ITEM: TIMESTEP
0
ITEM: NUMBER OF ATOMS
4000
ITEM: BOX BOUNDS pp pp pp
0.0000000000000000e+00 3.5430900000000001e+01
0.0000000000000000e+00 3.5430900000000001e+01
0.0000000000000000e+00 3.5430900000000001e+01
ITEM: ATOMS id type x y z c_peratom
1 2 0 0 0 -6.83711
2 1 1.77154 1.77154 0 -8.89583
3 3 1.77154 0 1.77154 -6.18009
4 3 0 1.77154 1.77154 -6.28727
101 3 0 0 3.54309 -6.18988
102 1 1.77154 1.77154 3.54309 -8.67856
5 3 3.54309 0 0 -6.23723
6 2 5.31463 1.77154 0 -6.84135
7 2 5.31463 0 1.77154 -6.89848
8 3 3.54309 1.77154 1.77154 -6.37666
105 3 3.54309 0 3.54309 -6.23203
106 1 5.31463 1.77154 3.54309 -8.59086
9 3 7.08618 0 0 -6.25945
10 3 8.85773 1.77154 0 -6.21385
11 3 8.85773 0 1.77154 -6.30646
12 1 7.08618 1.77154 1.77154 -8.62741
109 2 7.08618 0 3.54309 -6.99217
110 3 8.85773 1.77154 3.54309 -6.21586
13 2 10.6293 0 0 -6.8604
14 1 12.4008 1.77154 0 -8.62844
15 2 12.4008 0 1.77154 -6.92166
16 1 10.6293 1.77154 1.77154 -8.7106
113 2 10.6293 0 3.54309 -6.90259
114 3 12.4008 1.77154 3.54309 -6.2942
17 2 14.1724 0 0 -6.94239
18 1 15.9439 1.77154 0 -8.69236
19 2 15.9439 0 1.77154 -7.00507
20 1 14.1724 1.77154 1.77154 -8.54188
117 3 14.1724 0 3.54309 -6.30685
118 1 15.9439 1.77154 3.54309 -8.51582
21 1 0 3.54309 0 -8.73591
22 3 1.77154 5.31463 0 -6.36515
23 3 1.77154 3.54309 1.77154 -6.30508
24 2 0 5.31463 1.77154 -6.9099
121 1 0 3.54309 3.54309 -8.51889
122 3 1.77154 5.31463 3.54309 -6.29318
25 3 3.54309 3.54309 0 -6.3659
26 1 5.31463 5.31463 0 -8.73307
27 2 5.31463 3.54309 1.77154 -6.93181
28 1 3.54309 5.31463 1.77154 -8.52688
125 2 3.54309 3.54309 3.54309 -6.89097
126 1 5.31463 5.31463 3.54309 -8.59519
29 3 7.08618 3.54309 0 -6.29002
30 3 8.85773 5.31463 0 -6.19616
31 1 8.85773 3.54309 1.77154 -8.66481
32 1 7.08618 5.31463 1.77154 -8.6057
129 2 7.08618 3.54309 3.54309 -6.98334
130 3 8.85773 5.31463 3.54309 -6.23448
33 3 10.6293 3.54309 0 -6.23751
34 1 12.4008 5.31463 0 -8.51629
35 3 12.4008 3.54309 1.77154 -6.25481
36 3 10.6293 5.31463 1.77154 -6.32507
133 3 10.6293 3.54309 3.54309 -6.27591
134 3 12.4008 5.31463 3.54309 -6.41301
37 2 14.1724 3.54309 0 -6.90905
38 2 15.9439 5.31463 0 -6.98358
39 2 15.9439 3.54309 1.77154 -7.00511
40 1 14.1724 5.31463 1.77154 -8.64202
137 3 14.1724 3.54309 3.54309 -6.35952
138 2 15.9439 5.31463 3.54309 -7.06539
41 3 0 7.08618 0 -6.31758
42 1 1.77154 8.85773 0 -8.45209
43 1 1.77154 7.08618 1.77154 -8.76766
44 2 0 8.85773 1.77154 -6.90489
141 3 0 7.08618 3.54309 -6.28448
142 3 1.77154 8.85773 3.54309 -6.39607
45 3 3.54309 7.08618 0 -6.20597
46 1 5.31463 8.85773 0 -8.80561
47 2 5.31463 7.08618 1.77154 -6.80655
48 3 3.54309 8.85773 1.77154 -6.34016
145 3 3.54309 7.08618 3.54309 -6.29433
146 1 5.31463 8.85773 3.54309 -8.79132
49 3 7.08618 7.08618 0 -6.27163
50 3 8.85773 8.85773 0 -6.30938
51 3 8.85773 7.08618 1.77154 -6.29634
52 1 7.08618 8.85773 1.77154 -8.70569
149 3 7.08618 7.08618 3.54309 -6.27596
150 3 8.85773 8.85773 3.54309 -6.28602
53 1 10.6293 7.08618 0 -8.69589
54 2 12.4008 8.85773 0 -6.98307
55 2 12.4008 7.08618 1.77154 -6.9749
56 3 10.6293 8.85773 1.77154 -6.40811
153 1 10.6293 7.08618 3.54309 -8.85438
154 3 12.4008 8.85773 3.54309 -6.46755
57 2 14.1724 7.08618 0 -7.01549
58 2 15.9439 8.85773 0 -7.06942
59 2 15.9439 7.08618 1.77154 -7.10745
60 1 14.1724 8.85773 1.77154 -8.63395
157 2 14.1724 7.08618 3.54309 -6.99725
158 2 15.9439 8.85773 3.54309 -7.12299
61 3 0 10.6293 0 -6.37109
62 3 1.77154 12.4008 0 -6.52451
63 2 1.77154 10.6293 1.77154 -6.94868
64 1 0 12.4008 1.77154 -8.56208
161 1 0 10.6293 3.54309 -8.21429
162 2 1.77154 12.4008 3.54309 -6.98196
65 2 3.54309 10.6293 0 -6.97839
66 1 5.31463 12.4008 0 -8.45081
67 2 5.31463 10.6293 1.77154 -6.95433
68 1 3.54309 12.4008 1.77154 -8.3781
165 2 3.54309 10.6293 3.54309 -6.96042
166 1 5.31463 12.4008 3.54309 -8.37603
69 2 7.08618 10.6293 0 -6.88535
70 1 8.85773 12.4008 0 -8.55457
71 3 8.85773 10.6293 1.77154 -6.33596
72 1 7.08618 12.4008 1.77154 -8.38066
169 3 7.08618 10.6293 3.54309 -6.29417
170 2 8.85773 12.4008 3.54309 -6.90042
73 3 10.6293 10.6293 0 -6.43563
74 3 12.4008 12.4008 0 -6.38598
75 2 12.4008 10.6293 1.77154 -6.98641
76 3 10.6293 12.4008 1.77154 -6.40591
173 1 10.6293 10.6293 3.54309 -8.73538
174 2 12.4008 12.4008 3.54309 -7.05189
77 2 14.1724 10.6293 0 -6.96967
78 1 15.9439 12.4008 0 -8.39278
79 2 15.9439 10.6293 1.77154 -7.09386
80 1 14.1724 12.4008 1.77154 -8.36785
177 2 14.1724 10.6293 3.54309 -7.09712
178 2 15.9439 12.4008 3.54309 -7.12082
81 3 0 14.1724 0 -6.51384
82 1 1.77154 15.9439 0 -8.67862
83 2 1.77154 14.1724 1.77154 -6.95701
84 3 0 15.9439 1.77154 -6.40221
181 1 0 14.1724 3.54309 -8.69231
182 3 1.77154 15.9439 3.54309 -6.24566
85 2 3.54309 14.1724 0 -6.93153
86 1 5.31463 15.9439 0 -8.78983
87 2 5.31463 14.1724 1.77154 -7.02059
88 3 3.54309 15.9439 1.77154 -6.36439
185 1 3.54309 14.1724 3.54309 -8.71713
186 3 5.31463 15.9439 3.54309 -6.32872
89 3 7.08618 14.1724 0 -6.13384
90 1 8.85773 15.9439 0 -8.68332
91 2 8.85773 14.1724 1.77154 -6.95421
92 2 7.08618 15.9439 1.77154 -6.92273
189 1 7.08618 14.1724 3.54309 -8.51253
190 2 8.85773 15.9439 3.54309 -6.98453
93 3 10.6293 14.1724 0 -6.39101
94 2 12.4008 15.9439 0 -6.90951
95 1 12.4008 14.1724 1.77154 -8.51631
96 3 10.6293 15.9439 1.77154 -6.41359
193 1 10.6293 14.1724 3.54309 -8.5481
194 2 12.4008 15.9439 3.54309 -7.02628
97 1 14.1724 14.1724 0 -8.54835
98 3 15.9439 15.9439 0 -6.32537
99 1 15.9439 14.1724 1.77154 -8.47707
100 2 14.1724 15.9439 1.77154 -6.9815
197 2 14.1724 14.1724 3.54309 -7.01893
198 2 15.9439 15.9439 3.54309 -7.05474
103 2 1.77154 0 5.31463 -6.90694
104 2 0 1.77154 5.31463 -6.8743
201 3 0 0 7.08618 -6.25556
202 3 1.77154 1.77154 7.08618 -6.30295
107 2 5.31463 0 5.31463 -7.02527
108 2 3.54309 1.77154 5.31463 -6.99658
203 1 3.54309 0 7.08618 -8.52982
204 3 5.31463 1.77154 7.08618 -6.37826
111 1 8.85773 0 5.31463 -8.52433
112 2 7.08618 1.77154 5.31463 -6.96406
205 1 7.08618 0 7.08618 -8.74716
206 3 8.85773 1.77154 7.08618 -6.30691
115 1 12.4008 0 5.31463 -8.67832
116 1 10.6293 1.77154 5.31463 -8.57752
207 2 10.6293 0 7.08618 -6.98012
208 2 12.4008 1.77154 7.08618 -6.96757
119 1 15.9439 0 5.31463 -8.73587
120 3 14.1724 1.77154 5.31463 -6.45871
209 2 14.1724 0 7.08618 -7.03866
210 2 15.9439 1.77154 7.08618 -7.08592
123 1 1.77154 3.54309 5.31463 -8.4543
124 3 0 5.31463 5.31463 -6.25932
211 1 0 3.54309 7.08618 -8.45883
212 2 1.77154 5.31463 7.08618 -6.97513
127 2 5.31463 3.54309 5.31463 -6.99858
128 3 3.54309 5.31463 5.31463 -6.39493
213 1 3.54309 3.54309 7.08618 -8.58148
214 2 5.31463 5.31463 7.08618 -6.99309
131 1 8.85773 3.54309 5.31463 -8.66592
132 2 7.08618 5.31463 5.31463 -6.96198
215 1 7.08618 3.54309 7.08618 -8.67887
216 2 8.85773 5.31463 7.08618 -6.94297
135 3 12.4008 3.54309 5.31463 -6.33706
136 3 10.6293 5.31463 5.31463 -6.3644
217 3 10.6293 3.54309 7.08618 -6.28641
218 1 12.4008 5.31463 7.08618 -8.51254
139 2 15.9439 3.54309 5.31463 -7.01522
140 1 14.1724 5.31463 5.31463 -8.55474
219 1 14.1724 3.54309 7.08618 -8.46067
220 2 15.9439 5.31463 7.08618 -6.99241
143 1 1.77154 7.08618 5.31463 -8.93625
144 2 0 8.85773 5.31463 -6.97248
221 2 0 7.08618 7.08618 -6.99154
222 3 1.77154 8.85773 7.08618 -6.3165
147 3 5.31463 7.08618 5.31463 -6.44953
148 2 3.54309 8.85773 5.31463 -6.91375
223 2 3.54309 7.08618 7.08618 -6.97735
224 3 5.31463 8.85773 7.08618 -6.43858
151 1 8.85773 7.08618 5.31463 -8.74343
152 3 7.08618 8.85773 5.31463 -6.28792
225 1 7.08618 7.08618 7.08618 -8.72365
226 3 8.85773 8.85773 7.08618 -6.34227
155 2 12.4008 7.08618 5.31463 -6.95173
156 2 10.6293 8.85773 5.31463 -6.90968
227 3 10.6293 7.08618 7.08618 -6.32938
228 1 12.4008 8.85773 7.08618 -8.44448
159 2 15.9439 7.08618 5.31463 -7.09699
160 1 14.1724 8.85773 5.31463 -8.57262
229 2 14.1724 7.08618 7.08618 -6.94918
230 2 15.9439 8.85773 7.08618 -7.0386
163 1 1.77154 10.6293 5.31463 -8.66781
164 1 0 12.4008 5.31463 -8.61348
231 3 0 10.6293 7.08618 -6.31768
232 3 1.77154 12.4008 7.08618 -6.32461
167 3 5.31463 10.6293 5.31463 -6.3398
168 2 3.54309 12.4008 5.31463 -6.91141
233 3 3.54309 10.6293 7.08618 -6.3887
234 1 5.31463 12.4008 7.08618 -8.51272
171 1 8.85773 10.6293 5.31463 -8.49674
172 2 7.08618 12.4008 5.31463 -6.95355
235 1 7.08618 10.6293 7.08618 -8.56635
236 1 8.85773 12.4008 7.08618 -8.53237
175 2 12.4008 10.6293 5.31463 -7.06338
176 2 10.6293 12.4008 5.31463 -7.04966
237 2 10.6293 10.6293 7.08618 -6.99483
238 1 12.4008 12.4008 7.08618 -8.58718
179 2 15.9439 10.6293 5.31463 -7.15615
180 2 14.1724 12.4008 5.31463 -7.12092
239 2 14.1724 10.6293 7.08618 -7.08944
240 2 15.9439 12.4008 7.08618 -7.17558
183 3 1.77154 14.1724 5.31463 -6.21624
184 3 0 15.9439 5.31463 -6.31248
241 3 0 14.1724 7.08618 -6.32049
242 1 1.77154 15.9439 7.08618 -8.85096
187 2 5.31463 14.1724 5.31463 -6.97175
188 3 3.54309 15.9439 5.31463 -6.26505
243 1 3.54309 14.1724 7.08618 -8.58254
244 1 5.31463 15.9439 7.08618 -8.49143
191 3 8.85773 14.1724 5.31463 -6.51679
192 2 7.08618 15.9439 5.31463 -7.03576
245 2 7.08618 14.1724 7.08618 -6.98057
246 2 8.85773 15.9439 7.08618 -7.11913
195 1 12.4008 14.1724 5.31463 -8.48693
196 2 10.6293 15.9439 5.31463 -7.05917
247 2 10.6293 14.1724 7.08618 -7.06369
248 3 12.4008 15.9439 7.08618 -6.40256
199 1 15.9439 14.1724 5.31463 -8.71643
200 2 14.1724 15.9439 5.31463 -6.94346
249 3 14.1724 14.1724 7.08618 -6.49789
250 3 15.9439 15.9439 7.08618 -6.40738
251 1 1.77154 0 8.85773 -8.6946
252 3 0 1.77154 8.85773 -6.23865
301 3 0 0 10.6293 -6.27252
302 3 1.77154 1.77154 10.6293 -6.31355
303 1 1.77154 0 12.4008 -8.66327
304 3 0 1.77154 12.4008 -6.11809
253 3 5.31463 0 8.85773 -6.38422
254 2 3.54309 1.77154 8.85773 -6.9292
305 3 3.54309 0 10.6293 -6.41701
306 1 5.31463 1.77154 10.6293 -8.90234
307 2 5.31463 0 12.4008 -6.86245
308 2 3.54309 1.77154 12.4008 -6.92128
255 3 8.85773 0 8.85773 -6.36235
256 3 7.08618 1.77154 8.85773 -6.34547
309 3 7.08618 0 10.6293 -6.27514
310 1 8.85773 1.77154 10.6293 -8.80918
311 3 8.85773 0 12.4008 -6.30678
312 3 7.08618 1.77154 12.4008 -6.31361
257 2 12.4008 0 8.85773 -7.03025
258 1 10.6293 1.77154 8.85773 -8.69529
313 3 10.6293 0 10.6293 -6.36869
314 2 12.4008 1.77154 10.6293 -7.05108
315 2 12.4008 0 12.4008 -6.93573
316 3 10.6293 1.77154 12.4008 -6.38688
259 2 15.9439 0 8.85773 -7.10999
260 2 14.1724 1.77154 8.85773 -7.13565
317 1 14.1724 0 10.6293 -8.52676
318 2 15.9439 1.77154 10.6293 -7.12653
319 2 15.9439 0 12.4008 -7.03627
320 2 14.1724 1.77154 12.4008 -7.08039
261 2 1.77154 3.54309 8.85773 -6.8786
262 2 0 5.31463 8.85773 -6.95094
321 1 0 3.54309 10.6293 -8.63996
322 3 1.77154 5.31463 10.6293 -6.31184
323 1 1.77154 3.54309 12.4008 -8.60615
324 3 0 5.31463 12.4008 -6.0994
263 2 5.31463 3.54309 8.85773 -7.00151
264 1 3.54309 5.31463 8.85773 -8.32588
325 2 3.54309 3.54309 10.6293 -6.92536
326 1 5.31463 5.31463 10.6293 -8.57676
327 3 5.31463 3.54309 12.4008 -6.30955
328 3 3.54309 5.31463 12.4008 -6.26993
265 3 8.85773 3.54309 8.85773 -6.38478
266 2 7.08618 5.31463 8.85773 -6.98146
329 3 7.08618 3.54309 10.6293 -6.36273
330 2 8.85773 5.31463 10.6293 -6.98289
331 1 8.85773 3.54309 12.4008 -8.82251
332 3 7.08618 5.31463 12.4008 -6.38253
267 2 12.4008 3.54309 8.85773 -7.00406
268 1 10.6293 5.31463 8.85773 -8.79202
333 2 10.6293 3.54309 10.6293 -6.98312
334 3 12.4008 5.31463 10.6293 -6.41057
335 1 12.4008 3.54309 12.4008 -8.86104
336 2 10.6293 5.31463 12.4008 -6.93879
269 2 15.9439 3.54309 8.85773 -7.05123
270 1 14.1724 5.31463 8.85773 -8.68114
337 2 14.1724 3.54309 10.6293 -7.08839
338 3 15.9439 5.31463 10.6293 -6.52583
339 2 15.9439 3.54309 12.4008 -7.09668
340 2 14.1724 5.31463 12.4008 -7.00095
271 1 1.77154 7.08618 8.85773 -8.5447
272 2 0 8.85773 8.85773 -6.97226
341 2 0 7.08618 10.6293 -6.95098
342 2 1.77154 8.85773 10.6293 -6.97126
343 1 1.77154 7.08618 12.4008 -8.54937
344 2 0 8.85773 12.4008 -6.99664
273 2 5.31463 7.08618 8.85773 -6.99405
274 1 3.54309 8.85773 8.85773 -8.65465
345 2 3.54309 7.08618 10.6293 -6.96484
346 3 5.31463 8.85773 10.6293 -6.38557
347 2 5.31463 7.08618 12.4008 -6.95594
348 1 3.54309 8.85773 12.4008 -8.6516
275 2 8.85773 7.08618 8.85773 -6.97619
276 3 7.08618 8.85773 8.85773 -6.36173
349 1 7.08618 7.08618 10.6293 -8.62834
350 2 8.85773 8.85773 10.6293 -7.05167
351 2 8.85773 7.08618 12.4008 -7.05513
352 2 7.08618 8.85773 12.4008 -6.92712
277 3 12.4008 7.08618 8.85773 -6.19929
278 1 10.6293 8.85773 8.85773 -8.73306
353 3 10.6293 7.08618 10.6293 -6.41493
354 2 12.4008 8.85773 10.6293 -6.92408
355 1 12.4008 7.08618 12.4008 -8.61562
356 1 10.6293 8.85773 12.4008 -8.59012
279 3 15.9439 7.08618 8.85773 -6.36623
280 1 14.1724 8.85773 8.85773 -8.57929
357 3 14.1724 7.08618 10.6293 -6.36771
358 2 15.9439 8.85773 10.6293 -6.96037
359 2 15.9439 7.08618 12.4008 -7.03506
360 1 14.1724 8.85773 12.4008 -8.46945
281 1 1.77154 10.6293 8.85773 -8.88802
282 3 0 12.4008 8.85773 -6.29297
361 2 0 10.6293 10.6293 -6.95405
362 3 1.77154 12.4008 10.6293 -6.23936
363 1 1.77154 10.6293 12.4008 -8.7792
364 3 0 12.4008 12.4008 -6.35501
283 2 5.31463 10.6293 8.85773 -6.88524
284 3 3.54309 12.4008 8.85773 -6.32921
365 3 3.54309 10.6293 10.6293 -6.38956
366 3 5.31463 12.4008 10.6293 -6.39568
367 3 5.31463 10.6293 12.4008 -6.34075
368 3 3.54309 12.4008 12.4008 -6.31679
285 2 8.85773 10.6293 8.85773 -7.01405
286 2 7.08618 12.4008 8.85773 -6.97526
369 1 7.08618 10.6293 10.6293 -8.69744
370 1 8.85773 12.4008 10.6293 -8.44878
371 2 8.85773 10.6293 12.4008 -7.1015
372 2 7.08618 12.4008 12.4008 -6.96194
287 3 12.4008 10.6293 8.85773 -6.33555
288 2 10.6293 12.4008 8.85773 -6.9895
373 2 10.6293 10.6293 10.6293 -7.04393
374 1 12.4008 12.4008 10.6293 -8.52492
375 2 12.4008 10.6293 12.4008 -7.02289
376 2 10.6293 12.4008 12.4008 -7.0282
289 2 15.9439 10.6293 8.85773 -7.0591
290 2 14.1724 12.4008 8.85773 -7.07382
377 1 14.1724 10.6293 10.6293 -8.3576
378 2 15.9439 12.4008 10.6293 -7.02426
379 3 15.9439 10.6293 12.4008 -6.33599
380 2 14.1724 12.4008 12.4008 -6.9629
291 3 1.77154 14.1724 8.85773 -6.28869
292 3 0 15.9439 8.85773 -6.18358
381 1 0 14.1724 10.6293 -8.79778
382 3 1.77154 15.9439 10.6293 -6.17622
383 1 1.77154 14.1724 12.4008 -8.81937
384 3 0 15.9439 12.4008 -6.2292
293 2 5.31463 14.1724 8.85773 -6.98805
294 2 3.54309 15.9439 8.85773 -6.89661
385 1 3.54309 14.1724 10.6293 -8.82972
386 3 5.31463 15.9439 10.6293 -6.32756
387 2 5.31463 14.1724 12.4008 -6.92511
388 2 3.54309 15.9439 12.4008 -6.83231
295 3 8.85773 14.1724 8.85773 -6.4129
296 1 7.08618 15.9439 8.85773 -8.51747
389 1 7.08618 14.1724 10.6293 -8.45846
390 2 8.85773 15.9439 10.6293 -6.98579
391 2 8.85773 14.1724 12.4008 -7.08086
392 1 7.08618 15.9439 12.4008 -8.48269
297 2 12.4008 14.1724 8.85773 -7.02361
298 1 10.6293 15.9439 8.85773 -8.73522
393 2 10.6293 14.1724 10.6293 -7.03103
394 2 12.4008 15.9439 10.6293 -6.98145
395 3 12.4008 14.1724 12.4008 -6.38463
396 1 10.6293 15.9439 12.4008 -8.62776
299 2 15.9439 14.1724 8.85773 -7.09978
300 1 14.1724 15.9439 8.85773 -8.76469
397 1 14.1724 14.1724 10.6293 -8.35728
398 1 15.9439 15.9439 10.6293 -8.43248
399 2 15.9439 14.1724 12.4008 -7.03428
400 2 14.1724 15.9439 12.4008 -6.99171
401 1 0 0 14.1724 -8.55374
402 2 1.77154 1.77154 14.1724 -6.98746
403 1 1.77154 0 15.9439 -8.11967
404 1 0 1.77154 15.9439 -8.59752
405 1 3.54309 0 14.1724 -8.34472
406 3 5.31463 1.77154 14.1724 -6.2704
407 2 5.31463 0 15.9439 -6.80763
408 1 3.54309 1.77154 15.9439 -8.37267
409 1 7.08618 0 14.1724 -8.88009
410 3 8.85773 1.77154 14.1724 -6.27577
411 3 8.85773 0 15.9439 -6.22805
412 1 7.08618 1.77154 15.9439 -8.72617
413 1 10.6293 0 14.1724 -8.86329
414 3 12.4008 1.77154 14.1724 -6.39216
415 3 12.4008 0 15.9439 -6.25421
416 1 10.6293 1.77154 15.9439 -8.63342
417 1 14.1724 0 14.1724 -8.72744
418 1 15.9439 1.77154 14.1724 -8.4813
419 3 15.9439 0 15.9439 -6.30562
420 3 14.1724 1.77154 15.9439 -6.36276
421 3 0 3.54309 14.1724 -6.21913
422 1 1.77154 5.31463 14.1724 -8.22581
423 2 1.77154 3.54309 15.9439 -6.93563
424 1 0 5.31463 15.9439 -8.44163
425 1 3.54309 3.54309 14.1724 -8.36686
426 1 5.31463 5.31463 14.1724 -8.66343
427 3 5.31463 3.54309 15.9439 -6.15333
428 2 3.54309 5.31463 15.9439 -6.94812
429 3 7.08618 3.54309 14.1724 -6.4025
430 2 8.85773 5.31463 14.1724 -6.94644
431 2 8.85773 3.54309 15.9439 -6.88693
432 3 7.08618 5.31463 15.9439 -6.23952
433 3 10.6293 3.54309 14.1724 -6.35483
434 3 12.4008 5.31463 14.1724 -6.35396
435 3 12.4008 3.54309 15.9439 -6.32094
436 1 10.6293 5.31463 15.9439 -8.50759
437 2 14.1724 3.54309 14.1724 -7.00754
438 1 15.9439 5.31463 14.1724 -8.36974
439 2 15.9439 3.54309 15.9439 -7.03832
440 1 14.1724 5.31463 15.9439 -8.47819
441 2 0 7.08618 14.1724 -7.04322
442 2 1.77154 8.85773 14.1724 -6.95051
443 1 1.77154 7.08618 15.9439 -8.29237
444 1 0 8.85773 15.9439 -8.49237
445 2 3.54309 7.08618 14.1724 -6.98292
446 3 5.31463 8.85773 14.1724 -6.36998
447 2 5.31463 7.08618 15.9439 -6.95755
448 1 3.54309 8.85773 15.9439 -8.72277
449 1 7.08618 7.08618 14.1724 -8.75701
450 2 8.85773 8.85773 14.1724 -7.02331
451 3 8.85773 7.08618 15.9439 -6.33254
452 3 7.08618 8.85773 15.9439 -6.33911
453 2 10.6293 7.08618 14.1724 -7.014
454 2 12.4008 8.85773 14.1724 -7.00078
455 1 12.4008 7.08618 15.9439 -8.36646
456 1 10.6293 8.85773 15.9439 -8.73571
457 2 14.1724 7.08618 14.1724 -7.04088
458 1 15.9439 8.85773 14.1724 -8.6145
459 2 15.9439 7.08618 15.9439 -7.02853
460 2 14.1724 8.85773 15.9439 -6.92762
461 2 0 10.6293 14.1724 -6.9558
462 3 1.77154 12.4008 14.1724 -6.30138
463 3 1.77154 10.6293 15.9439 -6.33328
464 1 0 12.4008 15.9439 -8.87297
465 3 3.54309 10.6293 14.1724 -6.25177
466 1 5.31463 12.4008 14.1724 -8.56779
467 3 5.31463 10.6293 15.9439 -6.3
468 1 3.54309 12.4008 15.9439 -8.95427
469 1 7.08618 10.6293 14.1724 -8.64193
470 1 8.85773 12.4008 14.1724 -8.49006
471 2 8.85773 10.6293 15.9439 -7.00474
472 3 7.08618 12.4008 15.9439 -6.24644
473 2 10.6293 10.6293 14.1724 -7.0504
474 1 12.4008 12.4008 14.1724 -8.7285
475 3 12.4008 10.6293 15.9439 -6.4475
476 2 10.6293 12.4008 15.9439 -6.96209
477 3 14.1724 10.6293 14.1724 -6.35211
478 1 15.9439 12.4008 14.1724 -8.60954
479 3 15.9439 10.6293 15.9439 -6.23886
480 3 14.1724 12.4008 15.9439 -6.28972
481 3 0 14.1724 14.1724 -6.24897
482 3 1.77154 15.9439 14.1724 -6.28095
483 3 1.77154 14.1724 15.9439 -6.25575
484 1 0 15.9439 15.9439 -8.79966
485 3 3.54309 14.1724 14.1724 -6.25953
486 1 5.31463 15.9439 14.1724 -8.52563
487 3 5.31463 14.1724 15.9439 -6.26156
488 1 3.54309 15.9439 15.9439 -8.89422
489 1 7.08618 14.1724 14.1724 -8.37733
490 2 8.85773 15.9439 14.1724 -7.01519
491 2 8.85773 14.1724 15.9439 -7.01343
492 3 7.08618 15.9439 15.9439 -6.48166
493 2 10.6293 14.1724 14.1724 -7.00084
494 2 12.4008 15.9439 14.1724 -6.99758
495 3 12.4008 14.1724 15.9439 -6.31602
496 1 10.6293 15.9439 15.9439 -8.50352
497 1 14.1724 14.1724 14.1724 -8.4563
498 1 15.9439 15.9439 14.1724 -8.38714
499 2 15.9439 14.1724 15.9439 -6.9599
500 2 14.1724 15.9439 15.9439 -6.95692
501 2 0 0 17.7155 -7.03438
502 2 1.77154 1.77154 17.7155 -6.99023
503 1 1.77154 0 19.487 -8.57511
504 1 0 1.77154 19.487 -8.70081
601 3 0 0 21.2585 -6.27714
602 3 1.77154 1.77154 21.2585 -6.29707
505 2 3.54309 0 17.7155 -6.89544
506 3 5.31463 1.77154 17.7155 -6.24697
507 1 5.31463 0 19.487 -9.1307
508 3 3.54309 1.77154 19.487 -6.31961
605 3 3.54309 0 21.2585 -6.23929
606 3 5.31463 1.77154 21.2585 -6.32058
509 3 7.08618 0 17.7155 -6.30397
510 3 8.85773 1.77154 17.7155 -6.24846
511 1 8.85773 0 19.487 -8.89855
512 3 7.08618 1.77154 19.487 -6.25285
609 3 7.08618 0 21.2585 -6.29128
610 3 8.85773 1.77154 21.2585 -6.31624
513 3 10.6293 0 17.7155 -6.14319
514 1 12.4008 1.77154 17.7155 -8.74143
515 3 12.4008 0 19.487 -6.18403
516 3 10.6293 1.77154 19.487 -6.26445
613 3 10.6293 0 21.2585 -6.31842
614 1 12.4008 1.77154 21.2585 -8.56312
517 3 14.1724 0 17.7155 -6.24141
518 1 15.9439 1.77154 17.7155 -8.92113
519 3 15.9439 0 19.487 -6.20985
520 2 14.1724 1.77154 19.487 -6.88618
617 1 14.1724 0 21.2585 -8.80242
618 1 15.9439 1.77154 21.2585 -8.7359
521 2 0 3.54309 17.7155 -6.92474
522 3 1.77154 5.31463 17.7155 -6.33987
523 2 1.77154 3.54309 19.487 -6.9186
524 1 0 5.31463 19.487 -8.34759
621 3 0 3.54309 21.2585 -6.31767
622 1 1.77154 5.31463 21.2585 -8.30711
525 1 3.54309 3.54309 17.7155 -8.65844
526 1 5.31463 5.31463 17.7155 -8.43628
527 3 5.31463 3.54309 19.487 -6.15423
528 2 3.54309 5.31463 19.487 -6.98974
625 1 3.54309 3.54309 21.2585 -8.47755
626 1 5.31463 5.31463 21.2585 -8.34763
529 1 7.08618 3.54309 17.7155 -8.53964
530 1 8.85773 5.31463 17.7155 -8.30651
531 2 8.85773 3.54309 19.487 -6.88488
532 2 7.08618 5.31463 19.487 -6.96161
629 1 7.08618 3.54309 21.2585 -8.72228
630 1 8.85773 5.31463 21.2585 -8.52443
533 1 10.6293 3.54309 17.7155 -8.39033
534 2 12.4008 5.31463 17.7155 -7.01028
535 2 12.4008 3.54309 19.487 -7.00467
536 2 10.6293 5.31463 19.487 -7.00919
633 1 10.6293 3.54309 21.2585 -8.61091
634 2 12.4008 5.31463 21.2585 -7.03433
537 2 14.1724 3.54309 17.7155 -6.99238
538 2 15.9439 5.31463 17.7155 -7.02815
539 2 15.9439 3.54309 19.487 -7.01736
540 1 14.1724 5.31463 19.487 -8.30262
637 1 14.1724 3.54309 21.2585 -8.30449
638 2 15.9439 5.31463 21.2585 -6.93935
541 2 0 7.08618 17.7155 -6.9787
542 2 1.77154 8.85773 17.7155 -6.97398
543 1 1.77154 7.08618 19.487 -8.43614
544 3 0 8.85773 19.487 -6.30075
641 1 0 7.08618 21.2585 -8.17521
642 2 1.77154 8.85773 21.2585 -6.90938
545 2 3.54309 7.08618 17.7155 -6.97846
546 2 5.31463 8.85773 17.7155 -6.94705
547 2 5.31463 7.08618 19.487 -6.9764
548 3 3.54309 8.85773 19.487 -6.37635
645 1 3.54309 7.08618 21.2585 -8.26906
646 2 5.31463 8.85773 21.2585 -6.98001
549 1 7.08618 7.08618 17.7155 -8.66981
550 3 8.85773 8.85773 17.7155 -6.408
551 2 8.85773 7.08618 19.487 -6.99567
552 3 7.08618 8.85773 19.487 -6.41957
649 1 7.08618 7.08618 21.2585 -8.43596
650 2 8.85773 8.85773 21.2585 -6.93843
553 2 10.6293 7.08618 17.7155 -6.95964
554 3 12.4008 8.85773 17.7155 -6.3877
555 1 12.4008 7.08618 19.487 -8.48539
556 1 10.6293 8.85773 19.487 -8.71322
653 2 10.6293 7.08618 21.2585 -6.9908
654 2 12.4008 8.85773 21.2585 -6.98478
557 2 14.1724 7.08618 17.7155 -7.03897
558 1 15.9439 8.85773 17.7155 -8.32307
559 1 15.9439 7.08618 19.487 -8.22699
560 2 14.1724 8.85773 19.487 -7.03437
657 2 14.1724 7.08618 21.2585 -6.99667
658 1 15.9439 8.85773 21.2585 -8.71724
561 2 0 10.6293 17.7155 -6.95605
562 3 1.77154 12.4008 17.7155 -6.32508
563 1 1.77154 10.6293 19.487 -8.90567
564 2 0 12.4008 19.487 -6.81532
661 3 0 10.6293 21.2585 -6.33296
662 3 1.77154 12.4008 21.2585 -6.30189
565 3 3.54309 10.6293 17.7155 -6.3706
566 2 5.31463 12.4008 17.7155 -6.90158
567 1 5.31463 10.6293 19.487 -8.60857
568 2 3.54309 12.4008 19.487 -6.86979
665 3 3.54309 10.6293 21.2585 -6.34566
666 1 5.31463 12.4008 21.2585 -8.37789
569 1 7.08618 10.6293 17.7155 -8.72496
570 2 8.85773 12.4008 17.7155 -6.96349
571 2 8.85773 10.6293 19.487 -6.98791
572 2 7.08618 12.4008 19.487 -7.03488
669 2 7.08618 10.6293 21.2585 -6.99859
670 1 8.85773 12.4008 21.2585 -8.80524
573 3 10.6293 10.6293 17.7155 -6.46467
574 3 12.4008 12.4008 17.7155 -6.37844
575 2 12.4008 10.6293 19.487 -6.93817
576 1 10.6293 12.4008 19.487 -8.75677
673 3 10.6293 10.6293 21.2585 -6.3225
674 3 12.4008 12.4008 21.2585 -6.49262
577 1 14.1724 10.6293 17.7155 -8.77961
578 3 15.9439 12.4008 17.7155 -6.39623
579 2 15.9439 10.6293 19.487 -6.95646
580 2 14.1724 12.4008 19.487 -6.91331
677 2 14.1724 10.6293 21.2585 -6.93389
678 1 15.9439 12.4008 21.2585 -8.93809
581 3 0 14.1724 17.7155 -6.35579
582 2 1.77154 15.9439 17.7155 -6.94323
583 1 1.77154 14.1724 19.487 -8.74784
584 3 0 15.9439 19.487 -6.32493
681 1 0 14.1724 21.2585 -8.49897
682 2 1.77154 15.9439 21.2585 -6.98698
585 3 3.54309 14.1724 17.7155 -6.34567
586 3 5.31463 15.9439 17.7155 -6.4401
587 1 5.31463 14.1724 19.487 -8.47348
588 2 3.54309 15.9439 19.487 -6.93119
685 2 3.54309 14.1724 21.2585 -7.01637
686 2 5.31463 15.9439 21.2585 -7.03179
589 1 7.08618 14.1724 17.7155 -8.7306
590 2 8.85773 15.9439 17.7155 -7.02142
591 3 8.85773 14.1724 19.487 -6.38555
592 2 7.08618 15.9439 19.487 -7.0354
689 2 7.08618 14.1724 21.2585 -6.9775
690 1 8.85773 15.9439 21.2585 -8.6657
593 1 10.6293 14.1724 17.7155 -8.63784
594 3 12.4008 15.9439 17.7155 -6.35086
595 3 12.4008 14.1724 19.487 -6.35876
596 2 10.6293 15.9439 19.487 -6.92711
693 3 10.6293 14.1724 21.2585 -6.30623
694 1 12.4008 15.9439 21.2585 -8.72455
597 1 14.1724 14.1724 17.7155 -8.94751
598 2 15.9439 15.9439 17.7155 -6.90907
599 3 15.9439 14.1724 19.487 -6.39786
600 3 14.1724 15.9439 19.487 -6.26678
697 3 14.1724 14.1724 21.2585 -6.38335
698 1 15.9439 15.9439 21.2585 -8.72719
603 2 1.77154 0 23.0301 -6.88829
604 1 0 1.77154 23.0301 -8.93841
701 2 0 0 24.8016 -6.94733
702 3 1.77154 1.77154 24.8016 -6.33267
607 3 5.31463 0 23.0301 -6.33393
608 1 3.54309 1.77154 23.0301 -8.70474
703 2 3.54309 0 24.8016 -6.97001
704 1 5.31463 1.77154 24.8016 -8.53467
611 1 8.85773 0 23.0301 -8.89535
612 3 7.08618 1.77154 23.0301 -6.34494
705 2 7.08618 0 24.8016 -6.86186
706 3 8.85773 1.77154 24.8016 -6.33742
615 3 12.4008 0 23.0301 -6.25858
616 2 10.6293 1.77154 23.0301 -6.84595
707 1 10.6293 0 24.8016 -8.77244
708 2 12.4008 1.77154 24.8016 -6.83553
619 3 15.9439 0 23.0301 -6.20211
620 3 14.1724 1.77154 23.0301 -6.08629
709 1 14.1724 0 24.8016 -8.74424
710 1 15.9439 1.77154 24.8016 -8.67558
623 3 1.77154 3.54309 23.0301 -6.25443
624 2 0 5.31463 23.0301 -6.84026
711 3 0 3.54309 24.8016 -6.32642
712 1 1.77154 5.31463 24.8016 -8.7643
627 2 5.31463 3.54309 23.0301 -6.86637
628 2 3.54309 5.31463 23.0301 -6.87932
713 3 3.54309 3.54309 24.8016 -6.2669
714 1 5.31463 5.31463 24.8016 -8.86278
631 3 8.85773 3.54309 23.0301 -6.24611
632 3 7.08618 5.31463 23.0301 -6.16495
715 3 7.08618 3.54309 24.8016 -6.2729
716 1 8.85773 5.31463 24.8016 -9.00998
635 2 12.4008 3.54309 23.0301 -6.91382
636 3 10.6293 5.31463 23.0301 -6.28668
717 1 10.6293 3.54309 24.8016 -8.6477
718 2 12.4008 5.31463 24.8016 -6.93754
639 3 15.9439 3.54309 23.0301 -6.22967
640 1 14.1724 5.31463 23.0301 -8.314
719 1 14.1724 3.54309 24.8016 -8.34837
720 3 15.9439 5.31463 24.8016 -6.27373
643 3 1.77154 7.08618 23.0301 -6.24514
644 1 0 8.85773 23.0301 -8.68377
721 2 0 7.08618 24.8016 -6.8375
722 3 1.77154 8.85773 24.8016 -6.33086
647 2 5.31463 7.08618 23.0301 -6.93914
648 1 3.54309 8.85773 23.0301 -8.81625
723 3 3.54309 7.08618 24.8016 -6.2963
724 3 5.31463 8.85773 24.8016 -6.30926
651 3 8.85773 7.08618 23.0301 -6.27645
652 1 7.08618 8.85773 23.0301 -8.76346
725 3 7.08618 7.08618 24.8016 -6.30489
726 3 8.85773 8.85773 24.8016 -6.23147
655 1 12.4008 7.08618 23.0301 -8.48276
656 1 10.6293 8.85773 23.0301 -8.69026
727 3 10.6293 7.08618 24.8016 -6.2393
728 3 12.4008 8.85773 24.8016 -6.07175
659 3 15.9439 7.08618 23.0301 -6.38294
660 3 14.1724 8.85773 23.0301 -6.30667
729 1 14.1724 7.08618 24.8016 -8.603
730 3 15.9439 8.85773 24.8016 -6.37889
663 3 1.77154 10.6293 23.0301 -6.2741
664 1 0 12.4008 23.0301 -8.84425
731 3 0 10.6293 24.8016 -6.32749
732 2 1.77154 12.4008 24.8016 -6.92687
667 2 5.31463 10.6293 23.0301 -6.9207
668 1 3.54309 12.4008 23.0301 -8.78404
733 3 3.54309 10.6293 24.8016 -6.37464
734 2 5.31463 12.4008 24.8016 -6.98335
671 3 8.85773 10.6293 23.0301 -6.34543
672 2 7.08618 12.4008 23.0301 -6.94328
735 3 7.08618 10.6293 24.8016 -6.35418
736 1 8.85773 12.4008 24.8016 -8.53862
675 1 12.4008 10.6293 23.0301 -8.73086
676 3 10.6293 12.4008 23.0301 -6.30107
737 3 10.6293 10.6293 24.8016 -6.13973
738 3 12.4008 12.4008 24.8016 -6.18215
679 3 15.9439 10.6293 23.0301 -6.36353
680 3 14.1724 12.4008 23.0301 -6.30525
739 1 14.1724 10.6293 24.8016 -8.83832
740 3 15.9439 12.4008 24.8016 -6.1885
683 2 1.77154 14.1724 23.0301 -6.95486
684 2 0 15.9439 23.0301 -6.87909
741 1 0 14.1724 24.8016 -8.51614
742 1 1.77154 15.9439 24.8016 -8.56167
687 2 5.31463 14.1724 23.0301 -7.03289
688 1 3.54309 15.9439 23.0301 -8.69871
743 3 3.54309 14.1724 24.8016 -6.39159
744 2 5.31463 15.9439 24.8016 -6.99506
691 3 8.85773 14.1724 23.0301 -6.2924
692 3 7.08618 15.9439 23.0301 -6.46988
745 1 7.08618 14.1724 24.8016 -8.52641
746 3 8.85773 15.9439 24.8016 -6.32594
695 3 12.4008 14.1724 23.0301 -6.35105
696 3 10.6293 15.9439 23.0301 -6.26277
747 1 10.6293 14.1724 24.8016 -8.7521
748 3 12.4008 15.9439 24.8016 -6.29274
699 3 15.9439 14.1724 23.0301 -6.32941
700 2 14.1724 15.9439 23.0301 -6.8436
749 1 14.1724 14.1724 24.8016 -8.91458
750 2 15.9439 15.9439 24.8016 -6.87705
751 2 1.77154 0 26.5732 -6.98214
752 1 0 1.77154 26.5732 -8.6878
801 2 0 0 28.3447 -7.05251
802 2 1.77154 1.77154 28.3447 -7.03772
803 1 1.77154 0 30.1163 -8.61479
804 2 0 1.77154 30.1163 -7.08347
753 2 5.31463 0 26.5732 -7.00034
754 1 3.54309 1.77154 26.5732 -8.52438
805 2 3.54309 0 28.3447 -6.99507
806 2 5.31463 1.77154 28.3447 -6.98412
807 1 5.31463 0 30.1163 -8.51439
808 3 3.54309 1.77154 30.1163 -6.34452
755 3 8.85773 0 26.5732 -6.2426
756 1 7.08618 1.77154 26.5732 -8.65797
809 2 7.08618 0 28.3447 -7.011
810 1 8.85773 1.77154 28.3447 -8.88218
811 2 8.85773 0 30.1163 -6.90214
812 2 7.08618 1.77154 30.1163 -6.99547
757 3 12.4008 0 26.5732 -6.34511
758 3 10.6293 1.77154 26.5732 -6.31648
813 3 10.6293 0 28.3447 -6.33746
814 3 12.4008 1.77154 28.3447 -6.34446
815 1 12.4008 0 30.1163 -8.82957
816 3 10.6293 1.77154 30.1163 -6.24753
759 3 15.9439 0 26.5732 -6.28538
760 2 14.1724 1.77154 26.5732 -6.93811
817 3 14.1724 0 28.3447 -6.41727
818 1 15.9439 1.77154 28.3447 -8.79696
819 2 15.9439 0 30.1163 -6.92419
820 3 14.1724 1.77154 30.1163 -6.35894
761 2 1.77154 3.54309 26.5732 -6.94896
762 3 0 5.31463 26.5732 -6.1698
821 2 0 3.54309 28.3447 -7.01631
822 1 1.77154 5.31463 28.3447 -8.32939
823 2 1.77154 3.54309 30.1163 -6.97102
824 2 0 5.31463 30.1163 -7.01025
763 3 5.31463 3.54309 26.5732 -6.30473
764 2 3.54309 5.31463 26.5732 -6.95811
825 1 3.54309 3.54309 28.3447 -8.33127
826 2 5.31463 5.31463 28.3447 -6.91332
827 1 5.31463 3.54309 30.1163 -8.55853
828 2 3.54309 5.31463 30.1163 -6.99151
765 3 8.85773 3.54309 26.5732 -6.22007
766 3 7.08618 5.31463 26.5732 -6.21143
829 3 7.08618 3.54309 28.3447 -6.36103
830 1 8.85773 5.31463 28.3447 -9.00517
831 3 8.85773 3.54309 30.1163 -6.36183
832 2 7.08618 5.31463 30.1163 -6.94716
767 1 12.4008 3.54309 26.5732 -8.59887
768 3 10.6293 5.31463 26.5732 -6.24548
833 3 10.6293 3.54309 28.3447 -6.32662
834 2 12.4008 5.31463 28.3447 -6.84112
835 1 12.4008 3.54309 30.1163 -8.8452