ITEM: TIMESTEP
0
ITEM: NUMBER OF ATOMS
4000
ITEM: BOX BOUNDS pp pp pp
0.0000000000000000e+00 3.6097780000000000e+01
0.0000000000000000e+00 3.6097780000000000e+01
0.0000000000000000e+00 3.6097780000000000e+01
ITEM: ATOMS id type x y z c_peratom
1 1 0 0 0 -8.21682
2 3 1.80489 1.80489 0 -6.33258
3 3 1.80489 0 1.80489 -6.41005
4 3 0 1.80489 1.80489 -6.45425
101 2 0 0 3.60978 -7.02455
102 2 1.80489 1.80489 3.60978 -7.05037
5 1 3.60978 0 0 -8.38519
6 2 5.41467 1.80489 0 -7.00018
7 1 5.41467 0 1.80489 -8.10876
8 2 3.60978 1.80489 1.80489 -7.03634
105 1 3.60978 0 3.60978 -8.35879
106 2 5.41467 1.80489 3.60978 -7.01082
9 3 7.21956 0 0 -6.41125
10 1 9.02445 1.80489 0 -8.37688
11 1 9.02445 0 1.80489 -8.38708
12 3 7.21956 1.80489 1.80489 -6.4595
109 3 7.21956 0 3.60978 -6.37391
110 2 9.02445 1.80489 3.60978 -6.92814
13 3 10.8293 0 0 -6.36255
14 2 12.6342 1.80489 0 -6.88736
15 1 12.6342 0 1.80489 -8.33973
16 3 10.8293 1.80489 1.80489 -6.36872
113 3 10.8293 0 3.60978 -6.35993
114 2 12.6342 1.80489 3.60978 -6.88538
17 1 14.4391 0 0 -7.97728
18 1 16.244 1.80489 0 -8.11901
19 1 16.244 0 1.80489 -8.06064
20 2 14.4391 1.80489 1.80489 -7.01503
117 3 14.4391 0 3.60978 -6.30383
118 1 16.244 1.80489 3.60978 -8.44078
21 1 0 3.60978 0 -8.32888
22 1 1.80489 5.41467 0 -8.15323
23 1 1.80489 3.60978 1.80489 -8.11053
24 2 0 5.41467 1.80489 -6.98495
121 3 0 3.60978 3.60978 -6.50712
122 1 1.80489 5.41467 3.60978 -8.26209
25 1 3.60978 3.60978 0 -8.23152
26 1 5.41467 5.41467 0 -8.23826
27 3 5.41467 3.60978 1.80489 -6.48332
28 3 3.60978 5.41467 1.80489 -6.30098
125 2 3.60978 3.60978 3.60978 -6.98547
126 1 5.41467 5.41467 3.60978 -8.15656
29 2 7.21956 3.60978 0 -7.06925
30 2 9.02445 5.41467 0 -7.07136
31 3 9.02445 3.60978 1.80489 -6.40519
32 2 7.21956 5.41467 1.80489 -7.03979
129 1 7.21956 3.60978 3.60978 -8.22348
130 1 9.02445 5.41467 3.60978 -8.17862
33 1 10.8293 3.60978 0 -8.04417
34 2 12.6342 5.41467 0 -7.025
35 1 12.6342 3.60978 1.80489 -8.22152
36 1 10.8293 5.41467 1.80489 -7.98608
133 3 10.8293 3.60978 3.60978 -6.26225
134 1 12.6342 5.41467 3.60978 -8.07
37 3 14.4391 3.60978 0 -6.37276
38 1 16.244 5.41467 0 -8.15802
39 2 16.244 3.60978 1.80489 -6.91894
40 1 14.4391 5.41467 1.80489 -8.10863
137 3 14.4391 3.60978 3.60978 -6.29206
138 1 16.244 5.41467 3.60978 -8.20159
41 1 0 7.21956 0 -8.27418
42 3 1.80489 9.02445 0 -6.53141
43 3 1.80489 7.21956 1.80489 -6.39535
44 3 0 9.02445 1.80489 -6.36862
141 3 0 7.21956 3.60978 -6.44708
142 2 1.80489 9.02445 3.60978 -6.93428
45 3 3.60978 7.21956 0 -6.59966
46 3 5.41467 9.02445 0 -6.49754
47 2 5.41467 7.21956 1.80489 -7.01516
48 3 3.60978 9.02445 1.80489 -6.42856
145 1 3.60978 7.21956 3.60978 -8.20456
146 2 5.41467 9.02445 3.60978 -7.01593
49 1 7.21956 7.21956 0 -8.3436
50 3 9.02445 9.02445 0 -6.40411
51 2 9.02445 7.21956 1.80489 -7.08124
52 3 7.21956 9.02445 1.80489 -6.46023
149 2 7.21956 7.21956 3.60978 -7.05421
150 1 9.02445 9.02445 3.60978 -8.21662
53 1 10.8293 7.21956 0 -7.97799
54 1 12.6342 9.02445 0 -8.00176
55 1 12.6342 7.21956 1.80489 -8.01861
56 1 10.8293 9.02445 1.80489 -8.10889
153 3 10.8293 7.21956 3.60978 -6.13878
154 1 12.6342 9.02445 3.60978 -8.12706
57 3 14.4391 7.21956 0 -6.22761
58 3 16.244 9.02445 0 -6.28969
59 3 16.244 7.21956 1.80489 -6.23482
60 3 14.4391 9.02445 1.80489 -6.29589
157 3 14.4391 7.21956 3.60978 -6.17184
158 1 16.244 9.02445 3.60978 -8.21892
61 1 0 10.8293 0 -8.29231
62 1 1.80489 12.6342 0 -8.13389
63 3 1.80489 10.8293 1.80489 -6.39218
64 3 0 12.6342 1.80489 -6.35634
161 3 0 10.8293 3.60978 -6.49662
162 3 1.80489 12.6342 3.60978 -6.49638
65 1 3.60978 10.8293 0 -8.35737
66 3 5.41467 12.6342 0 -6.36312
67 1 5.41467 10.8293 1.80489 -8.2687
68 2 3.60978 12.6342 1.80489 -6.95539
165 1 3.60978 10.8293 3.60978 -8.43786
166 2 5.41467 12.6342 3.60978 -6.94337
69 1 7.21956 10.8293 0 -8.28463
70 1 9.02445 12.6342 0 -8.19021
71 3 9.02445 10.8293 1.80489 -6.34259
72 3 7.21956 12.6342 1.80489 -6.44453
169 3 7.21956 10.8293 3.60978 -6.45469
170 2 9.02445 12.6342 3.60978 -6.91852
73 3 10.8293 10.8293 0 -6.30608
74 3 12.6342 12.6342 0 -6.39022
75 2 12.6342 10.8293 1.80489 -6.98773
76 1 10.8293 12.6342 1.80489 -8.33031
173 2 10.8293 10.8293 3.60978 -7.12431
174 2 12.6342 12.6342 3.60978 -7.01547
77 1 14.4391 10.8293 0 -8.23337
78 2 16.244 12.6342 0 -6.99402
79 3 16.244 10.8293 1.80489 -6.29896
80 1 14.4391 12.6342 1.80489 -8.17173
177 2 14.4391 10.8293 3.60978 -7.00523
178 1 16.244 12.6342 3.60978 -8.07955
81 1 0 14.4391 0 -8.10211
82 1 1.80489 16.244 0 -7.92927
83 2 1.80489 14.4391 1.80489 -7.0521
84 1 0 16.244 1.80489 -8.23556
181 3 0 14.4391 3.60978 -6.5041
182 2 1.80489 16.244 3.60978 -6.94852
85 1 3.60978 14.4391 0 -8.25098
86 2 5.41467 16.244 0 -7.03339
87 3 5.41467 14.4391 1.80489 -6.47878
88 2 3.60978 16.244 1.80489 -7.06672
185 1 3.60978 14.4391 3.60978 -8.50644
186 2 5.41467 16.244 3.60978 -6.95632
89 2 7.21956 14.4391 0 -6.9495
90 3 9.02445 16.244 0 -6.61058
91 2 9.02445 14.4391 1.80489 -6.9726
92 3 7.21956 16.244 1.80489 -6.50737
189 1 7.21956 14.4391 3.60978 -8.54651
190 3 9.02445 16.244 3.60978 -6.49302
93 3 10.8293 14.4391 0 -6.42595
94 2 12.6342 16.244 0 -7.02758
95 1 12.6342 14.4391 1.80489 -8.19196
96 2 10.8293 16.244 1.80489 -7.01299
193 3 10.8293 14.4391 3.60978 -6.42141
194 3 12.6342 16.244 3.60978 -6.42228
97 2 14.4391 14.4391 0 -6.93284
98 3 16.244 16.244 0 -6.49117
99 3 16.244 14.4391 1.80489 -6.2928
100 1 14.4391 16.244 1.80489 -8.41341
197 1 14.4391 14.4391 3.60978 -8.14643
198 3 16.244 16.244 3.60978 -6.29151
103 2 1.80489 0 5.41467 -7.01452
104 1 0 1.80489 5.41467 -8.32514
201 3 0 0 7.21956 -6.56439
202 1 1.80489 1.80489 7.21956 -8.20698
107 1 5.41467 0 5.41467 -8.29275
108 3 3.60978 1.80489 5.41467 -6.47089
203 2 3.60978 0 7.21956 -6.96238
204 3 5.41467 1.80489 7.21956 -6.44523
111 1 9.02445 0 5.41467 -8.16108
112 2 7.21956 1.80489 5.41467 -6.98277
205 2 7.21956 0 7.21956 -6.98703
206 1 9.02445 1.80489 7.21956 -7.94458
115 1 12.6342 0 5.41467 -8.43836
116 1 10.8293 1.80489 5.41467 -8.08152
207 1 10.8293 0 7.21956 -8.1683
208 3 12.6342 1.80489 7.21956 -6.26206
119 1 16.244 0 5.41467 -8.37603
120 3 14.4391 1.80489 5.41467 -6.26685
209 3 14.4391 0 7.21956 -6.38079
210 1 16.244 1.80489 7.21956 -8.328
123 2 1.80489 3.60978 5.41467 -7.05094
124 2 0 5.41467 5.41467 -6.99826
211 2 0 3.60978 7.21956 -7.11104
212 1 1.80489 5.41467 7.21956 -8.17847
127 1 5.41467 3.60978 5.41467 -8.04442
128 2 3.60978 5.41467 5.41467 -7.127
213 1 3.60978 3.60978 7.21956 -8.18744
214 2 5.41467 5.41467 7.21956 -6.98539
131 3 9.02445 3.60978 5.41467 -6.21133
132 1 7.21956 5.41467 5.41467 -7.94343
215 1 7.21956 3.60978 7.21956 -8.05772
216 1 9.02445 5.41467 7.21956 -8.13872
135 1 12.6342 3.60978 5.41467 -8.08765
136 1 10.8293 5.41467 5.41467 -8.08992
217 1 10.8293 3.60978 7.21956 -7.94617
218 1 12.6342 5.41467 7.21956 -8.18777
139 2 16.244 3.60978 5.41467 -6.9274
140 1 14.4391 5.41467 5.41467 -8.1321
219 1 14.4391 3.60978 7.21956 -8.1416
220 3 16.244 5.41467 7.21956 -6.40303
143 1 1.80489 7.21956 5.41467 -8.07512
144 2 0 9.02445 5.41467 -6.99151
221 2 0 7.21956 7.21956 -7.05213
222 2 1.80489 9.02445 7.21956 -6.95703
147 2 5.41467 7.21956 5.41467 -7.10476
148 2 3.60978 9.02445 5.41467 -7.04479
223 1 3.60978 7.21956 7.21956 -8.20278
224 2 5.41467 9.02445 7.21956 -7.02824
151 2 9.02445 7.21956 5.41467 -7.06049
152 1 7.21956 9.02445 5.41467 -8.16404
225 1 7.21956 7.21956 7.21956 -8.08876
226 2 9.02445 9.02445 7.21956 -6.96574
155 3 12.6342 7.21956 5.41467 -6.1704
156 1 10.8293 9.02445 5.41467 -8.16135
227 3 10.8293 7.21956 7.21956 -6.28214
228 2 12.6342 9.02445 7.21956 -7.02593
159 2 16.244 7.21956 5.41467 -7.08691
160 1 14.4391 9.02445 5.41467 -8.13376
229 2 14.4391 7.21956 7.21956 -7.01999
230 2 16.244 9.02445 7.21956 -7.0755
163 3 1.80489 10.8293 5.41467 -6.52681
164 3 0 12.6342 5.41467 -6.41808
231 3 0 10.8293 7.21956 -6.53279
232 1 1.80489 12.6342 7.21956 -8.43366
167 3 5.41467 10.8293 5.41467 -6.54285
168 3 3.60978 12.6342 5.41467 -6.45397
233 1 3.60978 10.8293 7.21956 -8.27255
234 2 5.41467 12.6342 7.21956 -6.99315
171 1 9.02445 10.8293 5.41467 -8.0496
172 3 7.21956 12.6342 5.41467 -6.54951
235 3 7.21956 10.8293 7.21956 -6.41197
236 1 9.02445 12.6342 7.21956 -8.25128
175 1 12.6342 10.8293 5.41467 -7.93402
176 1 10.8293 12.6342 5.41467 -8.14882
237 2 10.8293 10.8293 7.21956 -7.11145
238 1 12.6342 12.6342 7.21956 -8.14324
179 2 16.244 10.8293 5.41467 -7.09646
180 2 14.4391 12.6342 5.41467 -6.97227
239 1 14.4391 10.8293 7.21956 -8.15457
240 3 16.244 12.6342 7.21956 -6.59749
183 3 1.80489 14.4391 5.41467 -6.41343
184 1 0 16.244 5.41467 -8.31913
241 3 0 14.4391 7.21956 -6.35348
242 1 1.80489 16.244 7.21956 -8.29215
187 2 5.41467 14.4391 5.41467 -7.0378
188 3 3.60978 16.244 5.41467 -6.46543
243 3 3.60978 14.4391 7.21956 -6.47271
244 2 5.41467 16.244 7.21956 -7.00072
191 3 9.02445 14.4391 5.41467 -6.52255
192 3 7.21956 16.244 5.41467 -6.51481
245 2 7.21956 14.4391 7.21956 -7.1133
246 2 9.02445 16.244 7.21956 -6.99323
195 3 12.6342 14.4391 5.41467 -6.40932
196 1 10.8293 16.244 5.41467 -8.48995
247 2 10.8293 14.4391 7.21956 -7.05919
248 3 12.6342 16.244 7.21956 -6.54314
199 3 16.244 14.4391 5.41467 -6.40544
200 1 14.4391 16.244 5.41467 -8.47272
249 2 14.4391 14.4391 7.21956 -6.952
250 3 16.244 16.244 7.21956 -6.48828
251 2 1.80489 0 9.02445 -7.05073
252 2 0 1.80489 9.02445 -7.10016
301 2 0 0 10.8293 -7.07941
302 3 1.80489 1.80489 10.8293 -6.61565
303 3 1.80489 0 12.6342 -6.41719
304 1 0 1.80489 12.6342 -8.30772
253 3 5.41467 0 9.02445 -6.57134
254 2 3.60978 1.80489 9.02445 -7.04836
305 2 3.60978 0 10.8293 -7.04275
306 2 5.41467 1.80489 10.8293 -6.94931
307 3 5.41467 0 12.6342 -6.45617
308 1 3.60978 1.80489 12.6342 -8.32569
255 1 9.02445 0 9.02445 -8.10793
256 1 7.21956 1.80489 9.02445 -8.35052
309 3 7.21956 0 10.8293 -6.37487
310 3 9.02445 1.80489 10.8293 -6.32198
311 1 9.02445 0 12.6342 -8.27217
312 1 7.21956 1.80489 12.6342 -8.29962
257 2 12.6342 0 9.02445 -6.86642
258 2 10.8293 1.80489 9.02445 -6.98654
313 1 10.8293 0 10.8293 -8.11833
314 1 12.6342 1.80489 10.8293 -8.35484
315 1 12.6342 0 12.6342 -8.33235
316 3 10.8293 1.80489 12.6342 -6.32358
259 3 16.244 0 9.02445 -6.27064
260 3 14.4391 1.80489 9.02445 -6.30846
317 3 14.4391 0 10.8293 -6.28459
318 1 16.244 1.80489 10.8293 -8.65628
319 3 16.244 0 12.6342 -6.36095
320 3 14.4391 1.80489 12.6342 -6.36733
261 2 1.80489 3.60978 9.02445 -7.08074
262 2 0 5.41467 9.02445 -7.03987
321 2 0 3.60978 10.8293 -7.13341
322 1 1.80489 5.41467 10.8293 -8.49542
323 3 1.80489 3.60978 12.6342 -6.46454
324 2 0 5.41467 12.6342 -6.92797
263 3 5.41467 3.60978 9.02445 -6.46813
264 3 3.60978 5.41467 9.02445 -6.39054
325 3 3.60978 3.60978 10.8293 -6.52377
326 1 5.41467 5.41467 10.8293 -8.33953
327 2 5.41467 3.60978 12.6342 -7.00493
328 2 3.60978 5.41467 12.6342 -6.98445
265 2 9.02445 3.60978 9.02445 -7.0081
266 2 7.21956 5.41467 9.02445 -6.99369
329 3 7.21956 3.60978 10.8293 -6.48076
330 3 9.02445 5.41467 10.8293 -6.5514
331 1 9.02445 3.60978 12.6342 -8.53532
332 2 7.21956 5.41467 12.6342 -6.99588
267 1 12.6342 3.60978 9.02445 -8.19492
268 3 10.8293 5.41467 9.02445 -6.28262
333 3 10.8293 3.60978 10.8293 -6.35866
334 1 12.6342 5.41467 10.8293 -8.34255
335 3 12.6342 3.60978 12.6342 -6.32378
336 3 10.8293 5.41467 12.6342 -6.4394
269 2 16.244 3.60978 9.02445 -6.91943
270 3 14.4391 5.41467 9.02445 -6.3797
337 3 14.4391 3.60978 10.8293 -6.29486
338 1 16.244 5.41467 10.8293 -8.47195
339 2 16.244 3.60978 12.6342 -6.95233
340 3 14.4391 5.41467 12.6342 -6.30453
271 3 1.80489 7.21956 9.02445 -6.49763
272 1 0 9.02445 9.02445 -8.61065
341 3 0 7.21956 10.8293 -6.48744
342 3 1.80489 9.02445 10.8293 -6.43979
343 3 1.80489 7.21956 12.6342 -6.43992
344 3 0 9.02445 12.6342 -6.50734
273 1 5.41467 7.21956 9.02445 -8.16505
274 3 3.60978 9.02445 9.02445 -6.45306
345 2 3.60978 7.21956 10.8293 -6.98011
346 2 5.41467 9.02445 10.8293 -6.98146
347 1 5.41467 7.21956 12.6342 -8.12482
348 1 3.60978 9.02445 12.6342 -8.20586
275 3 9.02445 7.21956 9.02445 -6.40797
276 3 7.21956 9.02445 9.02445 -6.36731
349 2 7.21956 7.21956 10.8293 -7.06299
350 3 9.02445 9.02445 10.8293 -6.45694
351 2 9.02445 7.21956 12.6342 -7.11255
352 2 7.21956 9.02445 12.6342 -7.12241
277 3 12.6342 7.21956 9.02445 -6.41932
278 1 10.8293 9.02445 9.02445 -8.19557
353 1 10.8293 7.21956 10.8293 -8.29362
354 3 12.6342 9.02445 10.8293 -6.48191
355 1 12.6342 7.21956 12.6342 -8.21393
356 2 10.8293 9.02445 12.6342 -7.10981
279 3 16.244 7.21956 9.02445 -6.505
280 2 14.4391 9.02445 9.02445 -7.07747
357 2 14.4391 7.21956 10.8293 -6.91709
358 1 16.244 9.02445 10.8293 -8.44514
359 3 16.244 7.21956 12.6342 -6.3622
360 3 14.4391 9.02445 12.6342 -6.59639
281 3 1.80489 10.8293 9.02445 -6.53936
282 2 0 12.6342 9.02445 -6.96022
361 3 0 10.8293 10.8293 -6.52295
362 2 1.80489 12.6342 10.8293 -7.0328
363 1 1.80489 10.8293 12.6342 -8.35134
364 3 0 12.6342 12.6342 -6.50683
283 1 5.41467 10.8293 9.02445 -8.20957
284 2 3.60978 12.6342 9.02445 -7.00031
365 3 3.60978 10.8293 10.8293 -6.43441
366 1 5.41467 12.6342 10.8293 -8.21099
367 1 5.41467 10.8293 12.6342 -8.13419
368 2 3.60978 12.6342 12.6342 -7.06791
285 1 9.02445 10.8293 9.02445 -8.05768
286 2 7.21956 12.6342 9.02445 -7.04974
369 1 7.21956 10.8293 10.8293 -8.02571
370 1 9.02445 12.6342 10.8293 -8.1057
371 2 9.02445 10.8293 12.6342 -7.05313
372 3 7.21956 12.6342 12.6342 -6.3762
287 1 12.6342 10.8293 9.02445 -7.99118
288 2 10.8293 12.6342 9.02445 -7.0507
373 1 10.8293 10.8293 10.8293 -8.08948
374 1 12.6342 12.6342 10.8293 -8.20191
375 3 12.6342 10.8293 12.6342 -6.67225
376 2 10.8293 12.6342 12.6342 -7.08176
289 2 16.244 10.8293 9.02445 -7.08428
290 3 14.4391 12.6342 9.02445 -6.51358
377 2 14.4391 10.8293 10.8293 -7.03032
378 2 16.244 12.6342 10.8293 -7.07873
379 2 16.244 10.8293 12.6342 -7.0924
380 2 14.4391 12.6342 12.6342 -7.09944
291 1 1.80489 14.4391 9.02445 -8.20004
292 2 0 16.244 9.02445 -6.95895
381 2 0 14.4391 10.8293 -7.03942
382 3 1.80489 16.244 10.8293 -6.53993
383 2 1.80489 14.4391 12.6342 -7.12531
384 3 0 16.244 12.6342 -6.44445
293 1 5.41467 14.4391 9.02445 -8.19131
294 1 3.60978 16.244 9.02445 -8.21442
385 2 3.60978 14.4391 10.8293 -7.17342
386 2 5.41467 16.244 10.8293 -6.99934
387 3 5.41467 14.4391 12.6342 -6.51065
388 2 3.60978 16.244 12.6342 -7.11119
295 2 9.02445 14.4391 9.02445 -7.04812
296 1 7.21956 16.244 9.02445 -8.39725
389 3 7.21956 14.4391 10.8293 -6.37881
390 3 9.02445 16.244 10.8293 -6.56441
391 1 9.02445 14.4391 12.6342 -8.2969
392 1 7.21956 16.244 12.6342 -8.23031
297 3 12.6342 14.4391 9.02445 -6.45126
298 2 10.8293 16.244 9.02445 -6.9809
393 3 10.8293 14.4391 10.8293 -6.45246
394 1 12.6342 16.244 10.8293 -8.21749
395 1 12.6342 14.4391 12.6342 -8.24657
396 2 10.8293 16.244 12.6342 -7.03322
299 2 16.244 14.4391 9.02445 -7.04282
300 1 14.4391 16.244 9.02445 -8.33838
397 3 14.4391 14.4391 10.8293 -6.38277
398 1 16.244 16.244 10.8293 -8.13162
399 1 16.244 14.4391 12.6342 -8.22243
400 3 14.4391 16.244 12.6342 -6.3197
401 3 0 0 14.4391 -6.35552
402 2 1.80489 1.80489 14.4391 -6.90859
403 3 1.80489 0 16.244 -6.43172
404 1 0 1.80489 16.244 -8.36872
405 1 3.60978 0 14.4391 -8.16701
406 1 5.41467 1.80489 14.4391 -8.09962
407 2 5.41467 0 16.244 -7.02917
408 2 3.60978 1.80489 16.244 -6.93885
409 2 7.21956 0 14.4391 -6.98527
410 3 9.02445 1.80489 14.4391 -6.44506
411 3 9.02445 0 16.244 -6.56364
412 1 7.21956 1.80489 16.244 -8.54199
413 3 10.8293 0 14.4391 -6.49459
414 3 12.6342 1.80489 14.4391 -6.49999
415 2 12.6342 0 16.244 -7.09234
416 2 10.8293 1.80489 16.244 -7.03528
417 3 14.4391 0 14.4391 -6.40994
418 3 16.244 1.80489 14.4391 -6.39756
419 3 16.244 0 16.244 -6.37319
420 1 14.4391 1.80489 16.244 -8.2931
421 2 0 3.60978 14.4391 -7.031
422 1 1.80489 5.41467 14.4391 -8.34248
423 3 1.80489 3.60978 16.244 -6.51562
424 3 0 5.41467 16.244 -6.45578
425 1 3.60978 3.60978 14.4391 -8.1229
426 1 5.41467 5.41467 14.4391 -8.12496
427 3 5.41467 3.60978 16.244 -6.38356
428 2 3.60978 5.41467 16.244 -7.00305
429 3 7.21956 3.60978 14.4391 -6.3693
430 2 9.02445 5.41467 14.4391 -6.98956
431 3 9.02445 3.60978 16.244 -6.45471
432 1 7.21956 5.41467 16.244 -8.31051
433 3 10.8293 3.60978 14.4391 -6.49742
434 1 12.6342 5.41467 14.4391 -8.26662
435 2 12.6342 3.60978 16.244 -6.96268
436 3 10.8293 5.41467 16.244 -6.48789
437 1 14.4391 3.60978 14.4391 -8.28175
438 1 16.244 5.41467 14.4391 -8.11301
439 2 16.244 3.60978 16.244 -7.02703
440 3 14.4391 5.41467 16.244 -6.41
441 3 0 7.21956 14.4391 -6.49285
442 3 1.80489 9.02445 14.4391 -6.34941
443 2 1.80489 7.21956 16.244 -7.03195
444 1 0 9.02445 16.244 -8.23568
445 1 3.60978 7.21956 14.4391 -7.98347
446 2 5.41467 9.02445 14.4391 -7.0301
447 2 5.41467 7.21956 16.244 -6.99966
448 1 3.60978 9.02445 16.244 -8.34588
449 3 7.21956 7.21956 14.4391 -6.64247
450 2 9.02445 9.02445 14.4391 -7.27493
451 2 9.02445 7.21956 16.244 -7.06692
452 3 7.21956 9.02445 16.244 -6.73551
453 2 10.8293 7.21956 14.4391 -7.11968
454 2 12.6342 9.02445 14.4391 -7.14402
455 1 12.6342 7.21956 16.244 -8.30845
456 2 10.8293 9.02445 16.244 -7.1218
457 2 14.4391 7.21956 14.4391 -6.98718
458 2 16.244 9.02445 14.4391 -6.99092
459 1 16.244 7.21956 16.244 -8.08452
460 1 14.4391 9.02445 16.244 -8.28947
461 1 0 10.8293 14.4391 -8.27272
462 2 1.80489 12.6342 14.4391 -7.00889
463 3 1.80489 10.8293 16.244 -6.60049
464 2 0 12.6342 16.244 -7.06101
465 3 3.60978 10.8293 14.4391 -6.4873
466 1 5.41467 12.6342 14.4391 -8.38184
467 2 5.41467 10.8293 16.244 -7.07162
468 3 3.60978 12.6342 16.244 -6.71638
469 3 7.21956 10.8293 14.4391 -6.67314
470 3 9.02445 12.6342 14.4391 -6.6856
471 2 9.02445 10.8293 16.244 -7.12605
472 2 7.21956 12.6342 16.244 -7.16923
473 2 10.8293 10.8293 14.4391 -7.22106
474 2 12.6342 12.6342 14.4391 -7.15361
475 2 12.6342 10.8293 16.244 -7.03351
476 1 10.8293 12.6342 16.244 -8.31454
477 2 14.4391 10.8293 14.4391 -7.14178
478 3 16.244 12.6342 14.4391 -6.37978
479 3 16.244 10.8293 16.244 -6.47298
480 1 14.4391 12.6342 16.244 -8.25479
481 3 0 14.4391 14.4391 -6.5774
482 2 1.80489 16.244 14.4391 -7.0527
483 1 1.80489 14.4391 16.244 -8.45289
484 3 0 16.244 16.244 -6.53881
485 2 3.60978 14.4391 14.4391 -7.11314
486 1 5.41467 16.244 14.4391 -8.27514
487 2 5.41467 14.4391 16.244 -7.14716
488 3 3.60978 16.244 16.244 -6.65413
489 2 7.21956 14.4391 14.4391 -7.09638
490 2 9.02445 16.244 14.4391 -7.14876
491 2 9.02445 14.4391 16.244 -7.16575
492 2 7.21956 16.244 16.244 -7.10443
493 2 10.8293 14.4391 14.4391 -7.10927
494 2 12.6342 16.244 14.4391 -7.01223
495 1 12.6342 14.4391 16.244 -8.16864
496 3 10.8293 16.244 16.244 -6.69699
497 2 14.4391 14.4391 14.4391 -7.00437
498 3 16.244 16.244 14.4391 -6.29254
499 1 16.244 14.4391 16.244 -8.00394
500 1 14.4391 16.244 16.244 -7.98473
501 3 0 0 18.0489 -6.49735
502 2 1.80489 1.80489 18.0489 -7.01848
503 3 1.80489 0 19.8538 -6.49591
504 2 0 1.80489 19.8538 -7.05982
601 3 0 0 21.6587 -6.44103
602 2 1.80489 1.80489 21.6587 -7.03899
505 3 3.60978 0 18.0489 -6.52697
506 3 5.41467 1.80489 18.0489 -6.57331
507 3 5.41467 0 19.8538 -6.51916
508 2 3.60978 1.80489 19.8538 -6.98853
605 1 3.60978 0 21.6587 -8.16737
606 2 5.41467 1.80489 21.6587 -7.06054
509 2 7.21956 0 18.0489 -7.03012
510 3 9.02445 1.80489 18.0489 -6.58983
511 2 9.02445 0 19.8538 -7.09258
512 2 7.21956 1.80489 19.8538 -7.04072
609 3 7.21956 0 21.6587 -6.4759
610 1 9.02445 1.80489 21.6587 -8.06612
513 2 10.8293 0 18.0489 -7.15458
514 2 12.6342 1.80489 18.0489 -7.1139
515 1 12.6342 0 19.8538 -8.20496
516 2 10.8293 1.80489 19.8538 -7.01495
613 2 10.8293 0 21.6587 -6.98926
614 3 12.6342 1.80489 21.6587 -6.4624
517 2 14.4391 0 18.0489 -7.00159
518 1 16.244 1.80489 18.0489 -8.15245
519 1 16.244 0 19.8538 -8.1478
520 3 14.4391 1.80489 19.8538 -6.51674
617 1 14.4391 0 21.6587 -8.05466
618 3 16.244 1.80489 21.6587 -6.3862
521 2 0 3.60978 18.0489 -7.01599
522 2 1.80489 5.41467 18.0489 -7.0526
523 1 1.80489 3.60978 19.8538 -8.27036
524 3 0 5.41467 19.8538 -6.50603
621 2 0 3.60978 21.6587 -6.99845
622 3 1.80489 5.41467 21.6587 -6.44682
525 1 3.60978 3.60978 18.0489 -8.37022
526 3 5.41467 5.41467 18.0489 -6.52306
527 3 5.41467 3.60978 19.8538 -6.58557
528 2 3.60978 5.41467 19.8538 -7.0255
625 1 3.60978 3.60978 21.6587 -8.19113
626 3 5.41467 5.41467 21.6587 -6.61997
529 3 7.21956 3.60978 18.0489 -6.46179
530 1 9.02445 5.41467 18.0489 -8.17951
531 1 9.02445 3.60978 19.8538 -8.02903
532 2 7.21956 5.41467 19.8538 -7.02805
629 2 7.21956 3.60978 21.6587 -7.06874
630 1 9.02445 5.41467 21.6587 -8.26676
533 1 10.8293 3.60978 18.0489 -8.3288
534 3 12.6342 5.41467 18.0489 -6.58565
535 3 12.6342 3.60978 19.8538 -6.61923
536 2 10.8293 5.41467 19.8538 -7.03101
633 1 10.8293 3.60978 21.6587 -8.15713
634 2 12.6342 5.41467 21.6587 -7.20064
537 2 14.4391 3.60978 18.0489 -7.06118
538 1 16.244 5.41467 18.0489 -8.26863
539 2 16.244 3.60978 19.8538 -7.00356
540 2 14.4391 5.41467 19.8538 -7.1274
637 2 14.4391 3.60978 21.6587 -7.1061
638 1 16.244 5.41467 21.6587 -8.20013
541 1 0 7.21956 18.0489 -8.22463
542 2 1.80489 9.02445 18.0489 -7.14894
543 2 1.80489 7.21956 19.8538 -7.07894
544 3 0 9.02445 19.8538 -6.545
641 1 0 7.21956 21.6587 -8.21452
642 2 1.80489 9.02445 21.6587 -7.11554
545 3 3.60978 7.21956 18.0489 -6.73334
546 2 5.41467 9.02445 18.0489 -7.13157
547 2 5.41467 7.21956 19.8538 -7.09115
548 2 3.60978 9.02445 19.8538 -7.21906
645 1 3.60978 7.21956 21.6587 -8.39604
646 3 5.41467 9.02445 21.6587 -6.71986
549 1 7.21956 7.21956 18.0489 -8.25838
550 2 9.02445 9.02445 18.0489 -7.01819
551 3 9.02445 7.21956 19.8538 -6.54122
552 3 7.21956 9.02445 19.8538 -6.64639
649 2 7.21956 7.21956 21.6587 -7.07876
650 2 9.02445 9.02445 21.6587 -6.94791
553 3 10.8293 7.21956 18.0489 -6.54083
554 3 12.6342 9.02445 18.0489 -6.44458
555 3 12.6342 7.21956 19.8538 -6.6178
556 1 10.8293 9.02445 19.8538 -8.40669
653 2 10.8293 7.21956 21.6587 -7.07318
654 2 12.6342 9.02445 21.6587 -7.08503
557 2 14.4391 7.21956 18.0489 -6.99788
558 3 16.244 9.02445 18.0489 -6.48455
559 1 16.244 7.21956 19.8538 -8.06334
560 1 14.4391 9.02445 19.8538 -8.29746
657 2 14.4391 7.21956 21.6587 -7.15094
658 2 16.244 9.02445 21.6587 -7.09423
561 2 0 10.8293 18.0489 -7.03232
562 2 1.80489 12.6342 18.0489 -7.13228
563 2 1.80489 10.8293 19.8538 -7.19519
564 1 0 12.6342 19.8538 -8.36449
661 1 0 10.8293 21.6587 -8.22084
662 3 1.80489 12.6342 21.6587 -6.74878
565 2 3.60978 10.8293 18.0489 -7.23496
566 2 5.41467 12.6342 18.0489 -7.26463
567 2 5.41467 10.8293 19.8538 -7.17976
568 2 3.60978 12.6342 19.8538 -7.22293
665 2 3.60978 10.8293 21.6587 -7.16829
666 3 5.41467 12.6342 21.6587 -6.692
569 3 7.21956 10.8293 18.0489 -6.80776
570 3 9.02445 12.6342 18.0489 -6.72072
571 3 9.02445 10.8293 19.8538 -6.56931
572 2 7.21956 12.6342 19.8538 -7.074
669 1 7.21956 10.8293 21.6587 -8.46683
670 1 9.02445 12.6342 21.6587 -8.35543
573 3 10.8293 10.8293 18.0489 -6.53704
574 3 12.6342 12.6342 18.0489 -6.45543
575 1 12.6342 10.8293 19.8538 -8.20358
576 3 10.8293 12.6342 19.8538 -6.62497
673 2 10.8293 10.8293 21.6587 -6.98939
674 2 12.6342 12.6342 21.6587 -7.06243
577 2 14.4391 10.8293 18.0489 -6.98983
578 2 16.244 12.6342 18.0489 -7.01431
579 3 16.244 10.8293 19.8538 -6.50985
580 1 14.4391 12.6342 19.8538 -8.12071
677 2 14.4391 10.8293 21.6587 -7.09829
678 1 16.244 12.6342 21.6587 -8.11514
581 3 0 14.4391 18.0489 -6.60962
582 2 1.80489 16.244 18.0489 -7.04964
583 3 1.80489 14.4391 19.8538 -6.74409
584 2 0 16.244 19.8538 -7.10153
681 2 0 14.4391 21.6587 -7.10315
682 2 1.80489 16.244 21.6587 -7.07455
585 2 3.60978 14.4391 18.0489 -7.1735
586 3 5.41467 16.244 18.0489 -6.68701
587 2 5.41467 14.4391 19.8538 -7.14948
588 2 3.60978 16.244 19.8538 -7.09196
685 3 3.60978 14.4391 21.6587 -6.7391
686 2 5.41467 16.244 21.6587 -7.006
589 2 7.21956 14.4391 18.0489 -7.18387
590 2 9.02445 16.244 18.0489 -7.09769
591 2 9.02445 14.4391 19.8538 -7.08424
592 1 7.21956 16.244 19.8538 -8.33792
689 1 7.21956 14.4391 21.6587 -8.27624
690 2 9.02445 16.244 21.6587 -7.02867
593 2 10.8293 14.4391 18.0489 -7.07966
594 2 12.6342 16.244 18.0489 -7.05443
595 2 12.6342 14.4391 19.8538 -7.06303
596 1 10.8293 16.244 19.8538 -8.39031
693 3 10.8293 14.4391 21.6587 -6.61292
694 2 12.6342 16.244 21.6587 -7.10065
597 2 14.4391 14.4391 18.0489 -7.09436
598 1 16.244 16.244 18.0489 -8.11576
599 1 16.244 14.4391 19.8538 -8.08753
600 2 14.4391 16.244 19.8538 -7.05069
697 1 14.4391 14.4391 21.6587 -8.07356
698 3 16.244 16.244 21.6587 -6.37111
603 3 1.80489 0 23.4636 -6.31327
604 1 0 1.80489 23.4636 -8.41048
701 3 0 0 25.2684 -6.26877
702 3 1.80489 1.80489 25.2684 -6.3452
607 1 5.41467 0 23.4636 -8.13324
608 1 3.60978 1.80489 23.4636 -8.1765
703 2 3.60978 0 25.2684 -7.01033
704 2 5.41467 1.80489 25.2684 -7.05927
611 3 9.02445 0 23.4636 -6.53102
612 1 7.21956 1.80489 23.4636 -8.09865
705 2 7.21956 0 25.2684 -7.12666
706 1 9.02445 1.80489 25.2684 -8.13542
615 2 12.6342 0 23.4636 -6.95693
616 1 10.8293 1.80489 23.4636 -8.15517
707 3 10.8293 0 25.2684 -6.51508
708 1 12.6342 1.80489 25.2684 -8.12609
619 1 16.244 0 23.4636 -8.21826
620 1 14.4391 1.80489 23.4636 -8.25426
709 3 14.4391 0 25.2684 -6.3599
710 3 16.244 1.80489 25.2684 -6.39307
623 2 1.80489 3.60978 23.4636 -6.98698
624 1 0 5.41467 23.4636 -8.21732
711 1 0 3.60978 25.2684 -8.07185
712 2 1.80489 5.41467 25.2684 -6.99152
627 1 5.41467 3.60978 23.4636 -8.19086
628 2 3.60978 5.41467 23.4636 -6.98887
713 3 3.60978 3.60978 25.2684 -6.47908
714 2 5.41467 5.41467 25.2684 -7.02996
631 2 9.02445 3.60978 23.4636 -7.0499
632 2 7.21956 5.41467 23.4636 -7.08756
715 3 7.21956 3.60978 25.2684 -6.4603
716 1 9.02445 5.41467 25.2684 -8.19308
635 2 12.6342 3.60978 23.4636 -7.09924
636 2 10.8293 5.41467 23.4636 -7.09231
717 2 10.8293 3.60978 25.2684 -7.09795
718 3 12.6342 5.41467 25.2684 -6.60784
639 2 16.244 3.60978 23.4636 -6.92595
640 2 14.4391 5.41467 23.4636 -7.11033
719 3 14.4391 3.60978 25.2684 -6.42966
720 1 16.244 5.41467 25.2684 -8.21969
643 3 1.80489 7.21956 23.4636 -6.51605
644 2 0 9.02445 23.4636 -7.0479
721 3 0 7.21956 25.2684 -6.47596
722 2 1.80489 9.02445 25.2684 -7.13733
647 2 5.41467 7.21956 23.4636 -7.12126
648 2 3.60978 9.02445 23.4636 -7.19266
723 1 3.60978 7.21956 25.2684 -8.27245
724 2 5.41467 9.02445 25.2684 -7.13487
651 3 9.02445 7.21956 23.4636 -6.48513
652 3 7.21956 9.02445 23.4636 -6.62104
725 3 7.21956 7.21956 25.2684 -6.54166
726 1 9.02445 9.02445 25.2684 -8.1832
655 2 12.6342 7.21956 23.4636 -7.1386
656 1 10.8293 9.02445 23.4636 -8.11557
727 1 10.8293 7.21956 25.2684 -8.03998
728 1 12.6342 9.02445 25.2684 -7.97926
659 1 16.244 7.21956 23.4636 -8.04614
660 1 14.4391 9.02445 23.4636 -8.11121
729 3 14.4391 7.21956 25.2684 -6.43659
730 1 16.244 9.02445 25.2684 -8.20093
663 2 1.80489 10.8293 23.4636 -7.20043
664 2 0 12.6342 23.4636 -7.13492
731 1 0 10.8293 25.2684 -8.11974
732 2 1.80489 12.6342 25.2684 -7.1884
667 2 5.41467 10.8293 23.4636 -7.08549
668 3 3.60978 12.6342 23.4636 -6.76956
733 2 3.60978 10.8293 25.2684 -7.17295
734 3 5.41467 12.6342 25.2684 -6.66468
671 3 9.02445 10.8293 23.4636 -6.40175
672 3 7.21956 12.6342 23.4636 -6.5537
735 2 7.21956 10.8293 25.2684 -6.95228
736 3 9.02445 12.6342 25.2684 -6.49119
675 1 12.6342 10.8293 23.4636 -8.08369
676 3 10.8293 12.6342 23.4636 -6.47181
737 1 10.8293 10.8293 25.2684 -8.15142
738 3 12.6342 12.6342 25.2684 -6.4343
679 2 16.244 10.8293 23.4636 -7.07967
680 1 14.4391 12.6342 23.4636 -8.18795
739 3 14.4391 10.8293 25.2684 -6.43033
740 2 16.244 12.6342 25.2684 -7.05117
683 2 1.80489 14.4391 23.4636 -7.12495
684 3 0 16.244 23.4636 -6.60978
741 3 0 14.4391 25.2684 -6.64959
742 2 1.80489 16.244 25.2684 -7.05252
687 3 5.41467 14.4391 23.4636 -6.57564
688 1 3.60978 16.244 23.4636 -8.33623
743 3 3.60978 14.4391 25.2684 -6.6605
744 1 5.41467 16.244 25.2684 -8.2664
691 2 9.02445 14.4391 23.4636 -6.96823
692 2 7.21956 16.244 23.4636 -7.04549
745 2 7.21956 14.4391 25.2684 -6.9906
746 3 9.02445 16.244 25.2684 -6.4845
695 2 12.6342 14.4391 23.4636 -7.00893
696 3 10.8293 16.244 23.4636 -6.48425
747 1 10.8293 14.4391 25.2684 -8.31063
748 1 12.6342 16.244 25.2684 -8.11139
699 3 16.244 14.4391 23.4636 -6.47588
700 1 14.4391 16.244 23.4636 -8.16291
749 2 14.4391 14.4391 25.2684 -7.00329
750 3 16.244 16.244 25.2684 -6.48746
751 2 1.80489 0 27.0733 -6.99338
752 1 0 1.80489 27.0733 -8.34105
801 1 0 0 28.8782 -8.1819
802 3 1.80489 1.80489 28.8782 -6.43326
803 3 1.80489 0 30.6831 -6.40472
804 3 0 1.80489 30.6831 -6.339
753 2 5.41467 0 27.0733 -7.127
754 1 3.60978 1.80489 27.0733 -8.49333
805 2 3.60978 0 28.8782 -7.03543
806 2 5.41467 1.80489 28.8782 -7.01447
807 2 5.41467 0 30.6831 -7.05533
808 3 3.60978 1.80489 30.6831 -6.5001
755 2 9.02445 0 27.0733 -7.09161
756 2 7.21956 1.80489 27.0733 -7.04727
809 1 7.21956 0 28.8782 -8.2374
810 3 9.02445 1.80489 28.8782 -6.45949
811 1 9.02445 0 30.6831 -8.081
812 1 7.21956 1.80489 30.6831 -7.99688
757 2 12.6342 0 27.0733 -7.01629
758 2 10.8293 1.80489 27.0733 -7.0629
813 2 10.8293 0 28.8782 -7.10059
814 1 12.6342 1.80489 28.8782 -8.36794
815 3 12.6342 0 30.6831 -6.52629
816 3 10.8293 1.80489 30.6831 -6.57098
759 3 16.244 0 27.0733 -6.37467
760 3 14.4391 1.80489 27.0733 -6.41634
817 2 14.4391 0 28.8782 -7.00443
818 1 16.244 1.80489 28.8782 -8.37744
819 3 16.244 0 30.6831 -6.4762
820 2 14.4391 1.80489 30.6831 -7.06419
761 2 1.80489 3.60978 27.0733 -6.93738
762 1 0 5.41467 27.0733 -8.3907
821 3 0 3.60978 28.8782 -6.43138
822 1 1.80489 5.41467 28.8782 -8.09662
823 1 1.80489 3.60978 30.6831 -8.27793
824 3 0 5.41467 30.6831 -6.5022
763 3 5.41467 3.60978 27.0733 -6.46328
764 1 3.60978 5.41467 27.0733 -8.19482
825 3 3.60978 3.60978 28.8782 -6.4117
826 1 5.41467 5.41467 28.8782 -8.14635
827 3 5.41467 3.60978 30.6831 -6.39113
828 2 3.60978 5.41467 30.6831 -7.03428
765 1 9.02445 3.60978 27.0733 -8.16256
766 3 7.21956 5.41467 27.0733 -6.35729
829 1 7.21956 3.60978 28.8782 -8.08086
830 2 9.02445 5.41467 28.8782 -7.01484
831 1 9.02445 3.60978 30.6831 -8.06981
832 2 7.21956 5.41467 30.6831 -7.06873
767 1 12.6342 3.60978 27.0733 -8.21058
768 2 10.8293 5.41467 27.0733 -7.10557
833 2 10.8293 3.60978 28.8782 -7.04005
834 1 12.6342 5.41467 28.8782 -7.99494
835 3 12.6342 3.60978 30.6831 -6.55528
836 1 10.8293 5.41467 30.6831 -8.03111
769 1 16.244 3.60978 27.0733 -8.3639
770 2 14.4391 5.41467 27.0733 -7.04007
837 2 14.4391 3.60978 28.8782 -7.04267