ITEM: TIMESTEP
0
ITEM: NUMBER OF ATOMS
4000
ITEM: BOX BOUNDS pp pp pp
0.0000000000000000e+00 3.5525530000000003e+01
0.0000000000000000e+00 3.5525530000000003e+01
0.0000000000000000e+00 3.5525530000000003e+01
ITEM: ATOMS id type x y z c_peratom
1 1 0 0 0 -8.36968
2 3 1.77628 1.77628 0 -6.35077
3 2 1.77628 0 1.77628 -6.87027
4 3 0 1.77628 1.77628 -6.29696
101 3 0 0 3.55255 -6.33657
102 2 1.77628 1.77628 3.55255 -6.87007
5 3 3.55255 0 0 -6.3872
6 2 5.32883 1.77628 0 -6.94451
7 2 5.32883 0 1.77628 -6.88695
8 3 3.55255 1.77628 1.77628 -6.38615
105 1 3.55255 0 3.55255 -8.44229
106 1 5.32883 1.77628 3.55255 -8.42518
9 1 7.10511 0 0 -8.29882
10 2 8.88138 1.77628 0 -7.03677
11 1 8.88138 0 1.77628 -8.31858
12 2 7.10511 1.77628 1.77628 -6.92967
109 3 7.10511 0 3.55255 -6.28664
110 3 8.88138 1.77628 3.55255 -6.43597
13 1 10.6577 0 0 -8.48461
14 3 12.4339 1.77628 0 -6.40733
15 2 12.4339 0 1.77628 -7.03201
16 2 10.6577 1.77628 1.77628 -7.0317
113 1 10.6577 0 3.55255 -8.59648
114 2 12.4339 1.77628 3.55255 -7.13575
17 3 14.2102 0 0 -6.47131
18 1 15.9865 1.77628 0 -8.3883
19 2 15.9865 0 1.77628 -6.92372
20 2 14.2102 1.77628 1.77628 -6.96759
117 1 14.2102 0 3.55255 -8.44998
118 2 15.9865 1.77628 3.55255 -6.98536
21 1 0 3.55255 0 -8.49917
22 3 1.77628 5.32883 0 -6.30751
23 1 1.77628 3.55255 1.77628 -8.51873
24 2 0 5.32883 1.77628 -6.93252
121 2 0 3.55255 3.55255 -6.94498
122 1 1.77628 5.32883 3.55255 -8.50081
25 3 3.55255 3.55255 0 -6.32229
26 2 5.32883 5.32883 0 -6.87768
27 1 5.32883 3.55255 1.77628 -8.60576
28 1 3.55255 5.32883 1.77628 -8.63043
125 3 3.55255 3.55255 3.55255 -6.23032
126 3 5.32883 5.32883 3.55255 -6.28202
29 2 7.10511 3.55255 0 -6.93858
30 3 8.88138 5.32883 0 -6.29544
31 1 8.88138 3.55255 1.77628 -8.8662
32 3 7.10511 5.32883 1.77628 -6.36847
129 3 7.10511 3.55255 3.55255 -6.32697
130 3 8.88138 5.32883 3.55255 -6.35812
33 2 10.6577 3.55255 0 -6.88867
34 3 12.4339 5.32883 0 -6.41847
35 1 12.4339 3.55255 1.77628 -8.67778
36 3 10.6577 5.32883 1.77628 -6.43635
133 2 10.6577 3.55255 3.55255 -7.04019
134 2 12.4339 5.32883 3.55255 -7.09831
37 3 14.2102 3.55255 0 -6.16459
38 3 15.9865 5.32883 0 -6.22431
39 1 15.9865 3.55255 1.77628 -8.47634
40 1 14.2102 5.32883 1.77628 -8.43544
137 2 14.2102 3.55255 3.55255 -7.06054
138 2 15.9865 5.32883 3.55255 -7.00417
41 1 0 7.10511 0 -8.61658
42 1 1.77628 8.88138 0 -8.54124
43 3 1.77628 7.10511 1.77628 -6.19583
44 2 0 8.88138 1.77628 -6.93961
141 1 0 7.10511 3.55255 -8.42093
142 1 1.77628 8.88138 3.55255 -8.63103
45 3 3.55255 7.10511 0 -6.33047
46 3 5.32883 8.88138 0 -6.35894
47 3 5.32883 7.10511 1.77628 -6.27008
48 1 3.55255 8.88138 1.77628 -8.60664
145 3 3.55255 7.10511 3.55255 -6.22208
146 1 5.32883 8.88138 3.55255 -8.50564
49 1 7.10511 7.10511 0 -8.78871
50 2 8.88138 8.88138 0 -6.93391
51 2 8.88138 7.10511 1.77628 -6.82111
52 3 7.10511 8.88138 1.77628 -6.214
149 1 7.10511 7.10511 3.55255 -8.61892
150 2 8.88138 8.88138 3.55255 -6.95944
53 1 10.6577 7.10511 0 -8.69876
54 2 12.4339 8.88138 0 -7.05255
55 2 12.4339 7.10511 1.77628 -7.03419
56 3 10.6577 8.88138 1.77628 -6.43617
153 1 10.6577 7.10511 3.55255 -8.67623
154 2 12.4339 8.88138 3.55255 -7.07163
57 2 14.2102 7.10511 0 -7.02078
58 3 15.9865 8.88138 0 -6.24865
59 1 15.9865 7.10511 1.77628 -8.40211
60 2 14.2102 8.88138 1.77628 -7.0061
157 2 14.2102 7.10511 3.55255 -7.13125
158 2 15.9865 8.88138 3.55255 -7.08073
61 2 0 10.6577 0 -6.96499
62 2 1.77628 12.4339 0 -7.00182
63 3 1.77628 10.6577 1.77628 -6.3659
64 1 0 12.4339 1.77628 -8.54166
161 2 0 10.6577 3.55255 -7.00542
162 2 1.77628 12.4339 3.55255 -6.99551
65 2 3.55255 10.6577 0 -6.93202
66 3 5.32883 12.4339 0 -6.29976
67 3 5.32883 10.6577 1.77628 -6.2924
68 1 3.55255 12.4339 1.77628 -8.66481
165 2 3.55255 10.6577 3.55255 -6.87537
166 3 5.32883 12.4339 3.55255 -6.26393
69 1 7.10511 10.6577 0 -8.61718
70 3 8.88138 12.4339 0 -6.26906
71 1 8.88138 10.6577 1.77628 -8.58537
72 3 7.10511 12.4339 1.77628 -6.20568
169 1 7.10511 10.6577 3.55255 -8.51598
170 2 8.88138 12.4339 3.55255 -6.93399
73 3 10.6577 10.6577 0 -6.37663
74 2 12.4339 12.4339 0 -6.93847
75 1 12.4339 10.6577 1.77628 -8.39786
76 2 10.6577 12.4339 1.77628 -6.96216
173 2 10.6577 10.6577 3.55255 -6.98853
174 1 12.4339 12.4339 3.55255 -8.47967
77 1 14.2102 10.6577 0 -8.30843
78 2 15.9865 12.4339 0 -6.93835
79 3 15.9865 10.6577 1.77628 -6.31727
80 1 14.2102 12.4339 1.77628 -8.34696
177 1 14.2102 10.6577 3.55255 -8.45716
178 3 15.9865 12.4339 3.55255 -6.39354
81 3 0 14.2102 0 -6.40585
82 2 1.77628 15.9865 0 -6.97695
83 2 1.77628 14.2102 1.77628 -6.9681
84 1 0 15.9865 1.77628 -8.66071
181 2 0 14.2102 3.55255 -6.97589
182 3 1.77628 15.9865 3.55255 -6.33359
85 2 3.55255 14.2102 0 -6.98189
86 1 5.32883 15.9865 0 -8.21332
87 2 5.32883 14.2102 1.77628 -6.85916
88 1 3.55255 15.9865 1.77628 -8.44176
185 1 3.55255 14.2102 3.55255 -8.34348
186 3 5.32883 15.9865 3.55255 -6.29825
89 1 7.10511 14.2102 0 -8.71603
90 2 8.88138 15.9865 0 -6.80631
91 3 8.88138 14.2102 1.77628 -6.41628
92 3 7.10511 15.9865 1.77628 -6.34836
189 1 7.10511 14.2102 3.55255 -8.83838
190 3 8.88138 15.9865 3.55255 -6.42467
93 1 10.6577 14.2102 0 -8.75558
94 3 12.4339 15.9865 0 -6.36798
95 2 12.4339 14.2102 1.77628 -6.90762
96 3 10.6577 15.9865 1.77628 -6.42917
193 3 10.6577 14.2102 3.55255 -6.47633
194 1 12.4339 15.9865 3.55255 -8.73511
97 1 14.2102 14.2102 0 -8.57072
98 2 15.9865 15.9865 0 -7.00753
99 3 15.9865 14.2102 1.77628 -6.31737
100 3 14.2102 15.9865 1.77628 -6.45096
197 3 14.2102 14.2102 3.55255 -6.32589
198 2 15.9865 15.9865 3.55255 -6.93514
103 3 1.77628 0 5.32883 -6.30365
104 1 0 1.77628 5.32883 -8.62662
201 3 0 0 7.10511 -6.3181
202 3 1.77628 1.77628 7.10511 -6.37209
107 3 5.32883 0 5.32883 -6.25624
108 1 3.55255 1.77628 5.32883 -8.74504
203 3 3.55255 0 7.10511 -6.32603
204 3 5.32883 1.77628 7.10511 -6.23039
111 2 8.88138 0 5.32883 -6.91476
112 1 7.10511 1.77628 5.32883 -8.89384
205 3 7.10511 0 7.10511 -6.35005
206 3 8.88138 1.77628 7.10511 -6.64235
115 2 12.4339 0 5.32883 -7.05316
116 2 10.6577 1.77628 5.32883 -7.13485
207 2 10.6577 0 7.10511 -7.0398
208 2 12.4339 1.77628 7.10511 -7.07826
119 1 15.9865 0 5.32883 -8.37281
120 1 14.2102 1.77628 5.32883 -8.36129
209 2 14.2102 0 7.10511 -7.01004
210 3 15.9865 1.77628 7.10511 -6.21671
123 2 1.77628 3.55255 5.32883 -6.87917
124 2 0 5.32883 5.32883 -6.97014
211 3 0 3.55255 7.10511 -6.35492
212 1 1.77628 5.32883 7.10511 -8.67277
127 3 5.32883 3.55255 5.32883 -6.25867
128 3 3.55255 5.32883 5.32883 -6.35483
213 3 3.55255 3.55255 7.10511 -6.30803
214 3 5.32883 5.32883 7.10511 -6.33543
131 2 8.88138 3.55255 5.32883 -6.90916
132 1 7.10511 5.32883 5.32883 -8.70959
215 3 7.10511 3.55255 7.10511 -6.39561
216 3 8.88138 5.32883 7.10511 -6.40016
135 2 12.4339 3.55255 5.32883 -7.11162
136 1 10.6577 5.32883 5.32883 -8.48115
217 2 10.6577 3.55255 7.10511 -7.03281
218 3 12.4339 5.32883 7.10511 -6.46632
139 1 15.9865 3.55255 5.32883 -8.52164
140 2 14.2102 5.32883 5.32883 -7.11122
219 2 14.2102 3.55255 7.10511 -7.02365
220 2 15.9865 5.32883 7.10511 -7.01715
143 3 1.77628 7.10511 5.32883 -6.11197
144 2 0 8.88138 5.32883 -6.961
221 1 0 7.10511 7.10511 -8.2369
222 1 1.77628 8.88138 7.10511 -8.50613
147 3 5.32883 7.10511 5.32883 -6.19925
148 3 3.55255 8.88138 5.32883 -6.20137
223 1 3.55255 7.10511 7.10511 -8.51885
224 1 5.32883 8.88138 7.10511 -8.41414
151 2 8.88138 7.10511 5.32883 -6.92283
152 2 7.10511 8.88138 5.32883 -6.95029
225 1 7.10511 7.10511 7.10511 -8.49371
226 2 8.88138 8.88138 7.10511 -6.93508
155 2 12.4339 7.10511 5.32883 -7.10774
156 3 10.6577 8.88138 5.32883 -6.47743
227 1 10.6577 7.10511 7.10511 -8.63662
228 1 12.4339 8.88138 7.10511 -8.59421
159 1 15.9865 7.10511 5.32883 -8.48417
160 2 14.2102 8.88138 5.32883 -7.14979
229 2 14.2102 7.10511 7.10511 -7.09846
230 2 15.9865 8.88138 7.10511 -7.10881
163 3 1.77628 10.6577 5.32883 -6.35322
164 2 0 12.4339 5.32883 -6.93203
231 1 0 10.6577 7.10511 -8.45685
232 3 1.77628 12.4339 7.10511 -6.2939
167 2 5.32883 10.6577 5.32883 -6.89549
168 1 3.55255 12.4339 5.32883 -8.67087
233 3 3.55255 10.6577 7.10511 -6.29956
234 2 5.32883 12.4339 7.10511 -6.85279
171 1 8.88138 10.6577 5.32883 -8.69829
172 3 7.10511 12.4339 5.32883 -6.43412
235 3 7.10511 10.6577 7.10511 -6.35074
236 2 8.88138 12.4339 7.10511 -6.94068
175 2 12.4339 10.6577 5.32883 -7.04907
176 2 10.6577 12.4339 5.32883 -7.00981
237 3 10.6577 10.6577 7.10511 -6.47846
238 1 12.4339 12.4339 7.10511 -8.58513
179 2 15.9865 10.6577 5.32883 -7.08488
180 2 14.2102 12.4339 5.32883 -7.0177
239 2 14.2102 10.6577 7.10511 -7.14361
240 2 15.9865 12.4339 7.10511 -7.06387
183 1 1.77628 14.2102 5.32883 -8.58929
184 3 0 15.9865 5.32883 -6.45574
241 3 0 14.2102 7.10511 -6.32154
242 3 1.77628 15.9865 7.10511 -6.29416
187 3 5.32883 14.2102 5.32883 -6.37762
188 1 3.55255 15.9865 5.32883 -8.69205
243 3 3.55255 14.2102 7.10511 -6.18848
244 2 5.32883 15.9865 7.10511 -6.89439
191 1 8.88138 14.2102 5.32883 -8.78548
192 3 7.10511 15.9865 5.32883 -6.46058
245 3 7.10511 14.2102 7.10511 -6.38947
246 3 8.88138 15.9865 7.10511 -6.31593
195 2 12.4339 14.2102 5.32883 -6.91145
196 3 10.6577 15.9865 5.32883 -6.37773
247 2 10.6577 14.2102 7.10511 -6.99629
248 1 12.4339 15.9865 7.10511 -8.4484
199 1 15.9865 14.2102 5.32883 -8.59352
200 1 14.2102 15.9865 5.32883 -8.23027
249 3 14.2102 14.2102 7.10511 -6.38415
250 2 15.9865 15.9865 7.10511 -6.93818
251 3 1.77628 0 8.88138 -6.49187
252 3 0 1.77628 8.88138 -6.46146
301 2 0 0 10.6577 -6.8955
302 3 1.77628 1.77628 10.6577 -6.32562
303 1 1.77628 0 12.4339 -8.28209
304 2 0 1.77628 12.4339 -6.91924
253 1 5.32883 0 8.88138 -8.9106
254 1 3.55255 1.77628 8.88138 -8.75399
305 2 3.55255 0 10.6577 -6.86073
306 3 5.32883 1.77628 10.6577 -6.16918
307 1 5.32883 0 12.4339 -8.57602
308 1 3.55255 1.77628 12.4339 -8.33791
255 2 8.88138 0 8.88138 -6.84678
256 3 7.10511 1.77628 8.88138 -6.42645
309 3 7.10511 0 10.6577 -6.24112
310 1 8.88138 1.77628 10.6577 -8.76766
311 3 8.88138 0 12.4339 -6.12466
312 3 7.10511 1.77628 12.4339 -6.27277
257 1 12.4339 0 8.88138 -8.54502
258 2 10.6577 1.77628 8.88138 -6.96674
313 3 10.6577 0 10.6577 -6.18405
314 1 12.4339 1.77628 10.6577 -8.30091
315 3 12.4339 0 12.4339 -6.22958
316 1 10.6577 1.77628 12.4339 -8.38061
259 2 15.9865 0 8.88138 -6.92153
260 1 14.2102 1.77628 8.88138 -8.42875
317 3 14.2102 0 10.6577 -6.25036
318 3 15.9865 1.77628 10.6577 -6.18717
319 3 15.9865 0 12.4339 -6.33882
320 1 14.2102 1.77628 12.4339 -8.79115
261 3 1.77628 3.55255 8.88138 -6.37913
262 3 0 5.32883 8.88138 -6.14533
321 3 0 3.55255 10.6577 -6.27925
322 1 1.77628 5.32883 10.6577 -8.58181
323 1 1.77628 3.55255 12.4339 -8.32567
324 2 0 5.32883 12.4339 -6.96755
263 1 5.32883 3.55255 8.88138 -8.90286
264 3 3.55255 5.32883 8.88138 -6.26714
325 3 3.55255 3.55255 10.6577 -6.19852
326 3 5.32883 5.32883 10.6577 -6.30052
327 1 5.32883 3.55255 12.4339 -8.59825
328 2 3.55255 5.32883 12.4339 -6.87605
265 3 8.88138 3.55255 8.88138 -6.52055
266 3 7.10511 5.32883 8.88138 -6.37455
329 2 7.10511 3.55255 10.6577 -6.85925
330 1 8.88138 5.32883 10.6577 -8.61687
331 2 8.88138 3.55255 12.4339 -6.95801
332 2 7.10511 5.32883 12.4339 -6.96506
267 1 12.4339 3.55255 8.88138 -8.53109
268 3 10.6577 5.32883 8.88138 -6.38656
333 3 10.6577 3.55255 10.6577 -6.32663
334 3 12.4339 5.32883 10.6577 -6.39668
335 2 12.4339 3.55255 12.4339 -6.94922
336 2 10.6577 5.32883 12.4339 -7.00232
269 1 15.9865 3.55255 8.88138 -8.41276
270 1 14.2102 5.32883 8.88138 -8.60069
337 3 14.2102 3.55255 10.6577 -6.13078
338 3 15.9865 5.32883 10.6577 -6.26928
339 3 15.9865 3.55255 12.4339 -6.29169
340 1 14.2102 5.32883 12.4339 -8.64604
271 2 1.77628 7.10511 8.88138 -6.91525
272 2 0 8.88138 8.88138 -7.00588
341 2 0 7.10511 10.6577 -6.88808
342 1 1.77628 8.88138 10.6577 -8.52337
343 3 1.77628 7.10511 12.4339 -6.40259
344 3 0 8.88138 12.4339 -6.39028
273 2 5.32883 7.10511 8.88138 -6.88388
274 2 3.55255 8.88138 8.88138 -6.9063
345 1 3.55255 7.10511 10.6577 -8.30523
346 1 5.32883 8.88138 10.6577 -8.19064
347 1 5.32883 7.10511 12.4339 -8.29258
348 2 3.55255 8.88138 12.4339 -6.9958
275 3 8.88138 7.10511 8.88138 -6.21845
276 1 7.10511 8.88138 8.88138 -8.30055
349 3 7.10511 7.10511 10.6577 -6.25076
350 1 8.88138 8.88138 10.6577 -8.37064
351 1 8.88138 7.10511 12.4339 -8.18312
352 2 7.10511 8.88138 12.4339 -6.95162
277 2 12.4339 7.10511 8.88138 -6.98063
278 3 10.6577 8.88138 8.88138 -6.34353
353 1 10.6577 7.10511 10.6577 -8.39765
354 1 12.4339 8.88138 10.6577 -8.39924
355 2 12.4339 7.10511 12.4339 -6.98267
356 2 10.6577 8.88138 12.4339 -7.03149
279 3 15.9865 7.10511 8.88138 -6.49831
280 2 14.2102 8.88138 8.88138 -7.11849
357 2 14.2102 7.10511 10.6577 -7.00899
358 2 15.9865 8.88138 10.6577 -7.03798
359 1 15.9865 7.10511 12.4339 -8.50284
360 2 14.2102 8.88138 12.4339 -7.09272
281 3 1.77628 10.6577 8.88138 -6.27446
282 3 0 12.4339 8.88138 -6.29719
361 1 0 10.6577 10.6577 -8.4252
362 3 1.77628 12.4339 10.6577 -6.28519
363 2 1.77628 10.6577 12.4339 -6.88603
364 1 0 12.4339 12.4339 -8.60115
283 1 5.32883 10.6577 8.88138 -8.32289
284 1 3.55255 12.4339 8.88138 -8.74372
365 3 3.55255 10.6577 10.6577 -6.24101
366 3 5.32883 12.4339 10.6577 -6.31776
367 1 5.32883 10.6577 12.4339 -8.36948
368 1 3.55255 12.4339 12.4339 -8.67483
285 2 8.88138 10.6577 8.88138 -6.89617
286 1 7.10511 12.4339 8.88138 -8.60841
369 3 7.10511 10.6577 10.6577 -6.22547
370 2 8.88138 12.4339 10.6577 -6.98505
371 1 8.88138 10.6577 12.4339 -8.65001
372 2 7.10511 12.4339 12.4339 -7.06843
287 2 12.4339 10.6577 8.88138 -7.02204
288 1 10.6577 12.4339 8.88138 -8.34042
373 2 10.6577 10.6577 10.6577 -6.98745
374 1 12.4339 12.4339 10.6577 -8.34303
375 1 12.4339 10.6577 12.4339 -8.30056
376 3 10.6577 12.4339 12.4339 -6.46015
289 3 15.9865 10.6577 8.88138 -6.62899
290 2 14.2102 12.4339 8.88138 -7.02136
377 2 14.2102 10.6577 10.6577 -7.08534
378 1 15.9865 12.4339 10.6577 -8.61776
379 1 15.9865 10.6577 12.4339 -8.3687
380 2 14.2102 12.4339 12.4339 -7.05502
291 1 1.77628 14.2102 8.88138 -8.62474
292 3 0 15.9865 8.88138 -6.3555
381 3 0 14.2102 10.6577 -6.33833
382 1 1.77628 15.9865 10.6577 -8.55689
383 2 1.77628 14.2102 12.4339 -6.96475
384 2 0 15.9865 12.4339 -6.92592
293 3 5.32883 14.2102 8.88138 -6.29897
294 1 3.55255 15.9865 8.88138 -8.5425
385 2 3.55255 14.2102 10.6577 -6.9675
386 1 5.32883 15.9865 10.6577 -8.33788
387 3 5.32883 14.2102 12.4339 -6.61938
388 2 3.55255 15.9865 12.4339 -7.01263
295 1 8.88138 14.2102 8.88138 -8.40117
296 1 7.10511 15.9865 8.88138 -8.59182
389 2 7.10511 14.2102 10.6577 -7.02589
390 3 8.88138 15.9865 10.6577 -6.40845
391 2 8.88138 14.2102 12.4339 -7.13388
392 2 7.10511 15.9865 12.4339 -7.09536
297 2 12.4339 14.2102 8.88138 -6.92378
298 1 10.6577 15.9865 8.88138 -8.71731
393 3 10.6577 14.2102 10.6577 -6.35465
394 3 12.4339 15.9865 10.6577 -6.36586
395 1 12.4339 14.2102 12.4339 -8.58401
396 2 10.6577 15.9865 12.4339 -6.90033
299 3 15.9865 14.2102 8.88138 -6.44757
300 1 14.2102 15.9865 8.88138 -8.80048
397 2 14.2102 14.2102 10.6577 -6.93679
398 3 15.9865 15.9865 10.6577 -6.30978
399 1 15.9865 14.2102 12.4339 -8.65741
400 3 14.2102 15.9865 12.4339 -6.19392
401 1 0 0 14.2102 -8.26994
402 2 1.77628 1.77628 14.2102 -7.04812
403 1 1.77628 0 15.9865 -8.40284
404 2 0 1.77628 15.9865 -7.02469
405 2 3.55255 0 14.2102 -6.96164
406 3 5.32883 1.77628 14.2102 -6.16571
407 1 5.32883 0 15.9865 -8.60191
408 2 3.55255 1.77628 15.9865 -7.01445
409 3 7.10511 0 14.2102 -6.2923
410 1 8.88138 1.77628 14.2102 -8.54654
411 2 8.88138 0 15.9865 -6.91006
412 3 7.10511 1.77628 15.9865 -6.34111
413 2 10.6577 0 14.2102 -6.90471
414 2 12.4339 1.77628 14.2102 -6.97483
415 1 12.4339 0 15.9865 -8.59554
416 3 10.6577 1.77628 15.9865 -6.38733
417 2 14.2102 0 14.2102 -6.8926
418 3 15.9865 1.77628 14.2102 -6.42011
419 3 15.9865 0 15.9865 -6.3785
420 3 14.2102 1.77628 15.9865 -6.57026
421 1 0 3.55255 14.2102 -8.38674
422 3 1.77628 5.32883 14.2102 -6.23887
423 1 1.77628 3.55255 15.9865 -8.38867
424 3 0 5.32883 15.9865 -6.37162
425 1 3.55255 3.55255 14.2102 -8.27262
426 3 5.32883 5.32883 14.2102 -6.14846
427 1 5.32883 3.55255 15.9865 -8.37601
428 2 3.55255 5.32883 15.9865 -6.93858
429 1 7.10511 3.55255 14.2102 -8.45308
430 2 8.88138 5.32883 14.2102 -6.99352
431 2 8.88138 3.55255 15.9865 -6.97428
432 3 7.10511 5.32883 15.9865 -6.2928
433 1 10.6577 3.55255 14.2102 -8.49268
434 3 12.4339 5.32883 14.2102 -6.39151
435 2 12.4339 3.55255 15.9865 -7.03976
436 2 10.6577 5.32883 15.9865 -7.03486
437 2 14.2102 3.55255 14.2102 -6.93907
438 1 15.9865 5.32883 14.2102 -8.24044
439 3 15.9865 3.55255 15.9865 -6.35186
440 1 14.2102 5.32883 15.9865 -8.33713
441 3 0 7.10511 14.2102 -6.50692
442 3 1.77628 8.88138 14.2102 -6.31682
443 1 1.77628 7.10511 15.9865 -8.79891
444 3 0 8.88138 15.9865 -6.28957
445 1 3.55255 7.10511 14.2102 -8.45048
446 1 5.32883 8.88138 14.2102 -8.17898
447 2 5.32883 7.10511 15.9865 -6.96712
448 2 3.55255 8.88138 15.9865 -6.91994
449 1 7.10511 7.10511 14.2102 -8.33162
450 2 8.88138 8.88138 14.2102 -6.9987
451 2 8.88138 7.10511 15.9865 -7.03384
452 2 7.10511 8.88138 15.9865 -7.02727
453 1 10.6577 7.10511 14.2102 -8.24265
454 1 12.4339 8.88138 14.2102 -8.20307
455 1 12.4339 7.10511 15.9865 -8.38072
456 1 10.6577 8.88138 15.9865 -8.58689
457 2 14.2102 7.10511 14.2102 -7.02595
458 2 15.9865 8.88138 14.2102 -7.02367
459 1 15.9865 7.10511 15.9865 -8.21352
460 2 14.2102 8.88138 15.9865 -6.98111
461 1 0 10.6577 14.2102 -8.63204
462 3 1.77628 12.4339 14.2102 -6.34503
463 3 1.77628 10.6577 15.9865 -6.30818
464 2 0 12.4339 15.9865 -6.88076
465 1 3.55255 10.6577 14.2102 -8.33847
466 2 5.32883 12.4339 14.2102 -7.0981
467 2 5.32883 10.6577 15.9865 -7.03058
468 1 3.55255 12.4339 15.9865 -8.44749
469 3 7.10511 10.6577 14.2102 -6.54665
470 2 8.88138 12.4339 14.2102 -7.10512
471 3 8.88138 10.6577 15.9865 -6.50398
472 2 7.10511 12.4339 15.9865 -7.09347
473 3 10.6577 10.6577 14.2102 -6.40472
474 2 12.4339 12.4339 14.2102 -7.01165
475 2 12.4339 10.6577 15.9865 -6.96127
476 1 10.6577 12.4339 15.9865 -8.8525
477 1 14.2102 10.6577 14.2102 -8.18917
478 2 15.9865 12.4339 14.2102 -6.93055
479 1 15.9865 10.6577 15.9865 -8.35967
480 2 14.2102 12.4339 15.9865 -6.99289
481 3 0 14.2102 14.2102 -6.42353
482 1 1.77628 15.9865 14.2102 -8.6491
483 3 1.77628 14.2102 15.9865 -6.38192
484 3 0 15.9865 15.9865 -6.31426
485 2 3.55255 14.2102 14.2102 -7.00936
486 2 5.32883 15.9865 14.2102 -7.05207
487 2 5.32883 14.2102 15.9865 -7.1199
488 3 3.55255 15.9865 15.9865 -6.43134
489 2 7.10511 14.2102 14.2102 -7.24264
490 3 8.88138 15.9865 14.2102 -6.63354
491 2 8.88138 14.2102 15.9865 -7.03208
492 3 7.10511 15.9865 15.9865 -6.63652
493 2 10.6577 14.2102 14.2102 -7.05562
494 2 12.4339 15.9865 14.2102 -6.96226
495 2 12.4339 14.2102 15.9865 -6.96252
496 1 10.6577 15.9865 15.9865 -8.79397
497 1 14.2102 14.2102 14.2102 -8.44455
498 3 15.9865 15.9865 14.2102 -6.16861
499 1 15.9865 14.2102 15.9865 -8.71822
500 3 14.2102 15.9865 15.9865 -6.21463
501 2 0 0 17.7628 -7.01484
502 2 1.77628 1.77628 17.7628 -7.03569
503 2 1.77628 0 19.539 -7.0028
504 3 0 1.77628 19.539 -6.40021
601 2 0 0 21.3153 -6.97785
602 1 1.77628 1.77628 21.3153 -8.55555
505 2 3.55255 0 17.7628 -7.08874
506 2 5.32883 1.77628 17.7628 -7.05609
507 3 5.32883 0 19.539 -6.52653
508 2 3.55255 1.77628 19.539 -7.00664
605 1 3.55255 0 21.3153 -8.63453
606 3 5.32883 1.77628 21.3153 -6.47777
509 2 7.10511 0 17.7628 -7.00165
510 2 8.88138 1.77628 17.7628 -6.96016
511 1 8.88138 0 19.539 -8.35062
512 2 7.10511 1.77628 19.539 -7.00651
609 1 7.10511 0 21.3153 -8.69851
610 1 8.88138 1.77628 21.3153 -8.49898
513 1 10.6577 0 17.7628 -8.34195
514 2 12.4339 1.77628 17.7628 -7.0256
515 1 12.4339 0 19.539 -8.48331
516 3 10.6577 1.77628 19.539 -6.40778
613 3 10.6577 0 21.3153 -6.38416
614 2 12.4339 1.77628 21.3153 -6.99667
517 1 14.2102 0 17.7628 -8.50765
518 3 15.9865 1.77628 17.7628 -6.38151
519 1 15.9865 0 19.539 -8.74819
520 2 14.2102 1.77628 19.539 -6.91975
617 2 14.2102 0 21.3153 -6.88692
618 3 15.9865 1.77628 21.3153 -6.21494
521 3 0 3.55255 17.7628 -6.47217
522 2 1.77628 5.32883 17.7628 -6.9035
523 3 1.77628 3.55255 19.539 -6.44315
524 1 0 5.32883 19.539 -8.91479
621 3 0 3.55255 21.3153 -6.26715
622 3 1.77628 5.32883 21.3153 -6.30981
525 1 3.55255 3.55255 17.7628 -8.36359
526 2 5.32883 5.32883 17.7628 -6.96319
527 3 5.32883 3.55255 19.539 -6.45737
528 1 3.55255 5.32883 19.539 -8.842
625 2 3.55255 3.55255 21.3153 -6.88513
626 3 5.32883 5.32883 21.3153 -6.43329
529 1 7.10511 3.55255 17.7628 -8.5243
530 2 8.88138 5.32883 17.7628 -7.08726
531 2 8.88138 3.55255 19.539 -7.01179
532 1 7.10511 5.32883 19.539 -8.6128
629 2 7.10511 3.55255 21.3153 -6.89683
630 3 8.88138 5.32883 21.3153 -6.47684
533 1 10.6577 3.55255 17.7628 -8.63001
534 2 12.4339 5.32883 17.7628 -7.0354
535 2 12.4339 3.55255 19.539 -7.0293
536 2 10.6577 5.32883 19.539 -7.10294
633 3 10.6577 3.55255 21.3153 -6.49004
634 2 12.4339 5.32883 21.3153 -7.00026
537 2 14.2102 3.55255 17.7628 -7.00889
538 1 15.9865 5.32883 17.7628 -8.22188
539 1 15.9865 3.55255 19.539 -8.39978
540 1 14.2102 5.32883 19.539 -8.3912
637 1 14.2102 3.55255 21.3153 -8.29852
638 1 15.9865 5.32883 21.3153 -8.36166
541 3 0 7.10511 17.7628 -6.36962
542 3 1.77628 8.88138 17.7628 -6.38759
543 3 1.77628 7.10511 19.539 -6.31747
544 1 0 8.88138 19.539 -8.71081
641 3 0 7.10511 21.3153 -6.32635
642 1 1.77628 8.88138 21.3153 -8.67823
545 3 3.55255 7.10511 17.7628 -6.42527
546 1 5.32883 8.88138 17.7628 -8.40948
547 3 5.32883 7.10511 19.539 -6.33205
548 3 3.55255 8.88138 19.539 -6.27496
645 3 3.55255 7.10511 21.3153 -6.37063
646 1 5.32883 8.88138 21.3153 -8.67767
549 1 7.10511 7.10511 17.7628 -8.40255
550 2 8.88138 8.88138 17.7628 -6.97864
551 2 8.88138 7.10511 19.539 -7.02934
552 2 7.10511 8.88138 19.539 -6.97093
649 3 7.10511 7.10511 21.3153 -6.48256
650 2 8.88138 8.88138 21.3153 -7.03541
553 3 10.6577 7.10511 17.7628 -6.58178
554 2 12.4339 8.88138 17.7628 -6.91428
555 3 12.4339 7.10511 19.539 -6.47907
556 1 10.6577 8.88138 19.539 -8.7364
653 2 10.6577 7.10511 21.3153 -7.04636
654 2 12.4339 8.88138 21.3153 -6.99096
557 3 14.2102 7.10511 17.7628 -6.27822
558 2 15.9865 8.88138 17.7628 -6.94839
559 2 15.9865 7.10511 19.539 -6.93596
560 1 14.2102 8.88138 19.539 -8.46338
657 2 14.2102 7.10511 21.3153 -6.95185
658 1 15.9865 8.88138 21.3153 -8.42756
561 3 0 10.6577 17.7628 -6.43847
562 1 1.77628 12.4339 17.7628 -8.49131
563 3 1.77628 10.6577 19.539 -6.32732
564 3 0 12.4339 19.539 -6.40613
661 2 0 10.6577 21.3153 -6.97887
662 1 1.77628 12.4339 21.3153 -8.46548
565 1 3.55255 10.6577 17.7628 -8.38036
566 2 5.32883 12.4339 17.7628 -6.98677
567 1 5.32883 10.6577 19.539 -8.20645
568 2 3.55255 12.4339 19.539 -6.99572
665 2 3.55255 10.6577 21.3153 -6.93799
666 1 5.32883 12.4339 21.3153 -8.30353
569 1 7.10511 10.6577 17.7628 -8.50356
570 3 8.88138 12.4339 17.7628 -6.43677
571 3 8.88138 10.6577 19.539 -6.36599
572 3 7.10511 12.4339 19.539 -6.338
669 3 7.10511 10.6577 21.3153 -6.44087
670 3 8.88138 12.4339 21.3153 -6.34522
573 3 10.6577 10.6577 17.7628 -6.35453
574 3 12.4339 12.4339 17.7628 -6.35398
575 3 12.4339 10.6577 19.539 -6.21866
576 1 10.6577 12.4339 19.539 -8.83567
673 1 10.6577 10.6577 21.3153 -8.371
674 3 12.4339 12.4339 21.3153 -6.25988
577 1 14.2102 10.6577 17.7628 -8.48102
578 2 15.9865 12.4339 17.7628 -6.94669
579 3 15.9865 10.6577 19.539 -6.29382
580 3 14.2102 12.4339 19.539 -6.34048
677 1 14.2102 10.6577 21.3153 -8.52372
678 2 15.9865 12.4339 21.3153 -6.91225
581 2 0 14.2102 17.7628 -6.87988
582 1 1.77628 15.9865 17.7628 -8.44648
583 1 1.77628 14.2102 19.539 -8.26809
584 3 0 15.9865 19.539 -6.25331
681 2 0 14.2102 21.3153 -6.99205
682 1 1.77628 15.9865 21.3153 -8.65895
585 2 3.55255 14.2102 17.7628 -6.98174
586 3 5.32883 15.9865 17.7628 -6.46001
587 1 5.32883 14.2102 19.539 -8.62736
588 2 3.55255 15.9865 19.539 -6.94321
685 2 3.55255 14.2102 21.3153 -7.03332
686 3 5.32883 15.9865 21.3153 -6.49036
589 3 7.10511 14.2102 17.7628 -6.60788
590 3 8.88138 15.9865 17.7628 -6.46106
591 3 8.88138 14.2102 19.539 -6.38959
592 3 7.10511 15.9865 19.539 -6.32899
689 1 7.10511 14.2102 21.3153 -8.70529
690 3 8.88138 15.9865 21.3153 -6.34293
593 3 10.6577 14.2102 17.7628 -6.38078
594 3 12.4339 15.9865 17.7628 -6.42102
595 2 12.4339 14.2102 19.539 -6.92352
596 1 10.6577 15.9865 19.539 -8.86963
693 2 10.6577 14.2102 21.3153 -6.86224
694 2 12.4339 15.9865 21.3153 -7.00852
597 1 14.2102 14.2102 17.7628 -8.71823
598 3 15.9865 15.9865 17.7628 -6.29878
599 2 15.9865 14.2102 19.539 -6.91854
600 3 14.2102 15.9865 19.539 -6.31094
697 1 14.2102 14.2102 21.3153 -8.66314
698 1 15.9865 15.9865 21.3153 -8.36774
603 3 1.77628 0 23.0916 -6.27251
604 3 0 1.77628 23.0916 -6.30448
701 2 0 0 24.8679 -6.96123
702 1 1.77628 1.77628 24.8679 -8.61645
703 3 1.77628 0 26.6441 -6.31025
704 3 0 1.77628 26.6441 -6.27418
607 3 5.32883 0 23.0916 -6.37245
608 2 3.55255 1.77628 23.0916 -6.94514
705 2 3.55255 0 24.8679 -6.89838
706 1 5.32883 1.77628 24.8679 -8.61088
707 2 5.32883 0 26.6441 -6.99649
708 3 3.55255 1.77628 26.6441 -6.32452
611 3 8.88138 0 23.0916 -6.39667
612 3 7.10511 1.77628 23.0916 -6.28648
709 3 7.10511 0 24.8679 -6.42734
710 1 8.88138 1.77628 24.8679 -8.52642
711 2 8.88138 0 26.6441 -6.98145
712 2 7.10511 1.77628 26.6441 -7.01213
615 2 12.4339 0 23.0916 -6.9643
616 2 10.6577 1.77628 23.0916 -6.90849
713 2 10.6577 0 24.8679 -7.02603
714 1 12.4339 1.77628 24.8679 -8.35159
715 2 12.4339 0 26.6441 -6.98813
716 2 10.6577 1.77628 26.6441 -6.96273
619 1 15.9865 0 23.0916 -8.3761
620 1 14.2102 1.77628 23.0916 -8.28028
717 2 14.2102 0 24.8679 -6.98709
718 3 15.9865 1.77628 24.8679 -6.21499
719 1 15.9865 0 26.6441 -8.42883
720 3 14.2102 1.77628 26.6441 -6.33811
623 1 1.77628 3.55255 23.0916 -8.49836
624 1 0 5.32883 23.0916 -8.7878
721 3 0 3.55255 24.8679 -6.1686
722 3 1.77628 5.32883 24.8679 -6.30016
723 1 1.77628 3.55255 26.6441 -8.63987
724 2 0 5.32883 26.6441 -6.8288
627 1 5.32883 3.55255 23.0916 -8.71692
628 3 3.55255 5.32883 23.0916 -6.41412
725 2 3.55255 3.55255 24.8679 -6.93667
726 3 5.32883 5.32883 24.8679 -6.45672
727 2 5.32883 3.55255 26.6441 -6.96557
728 2 3.55255 5.32883 26.6441 -6.93857
631 1 8.88138 3.55255 23.0916 -8.70977
632 3 7.10511 5.32883 23.0916 -6.34155
729 2 7.10511 3.55255 24.8679 -6.94592
730 3 8.88138 5.32883 24.8679 -6.28805
731 1 8.88138 3.55255 26.6441 -8.35872
732 2 7.10511 5.32883 26.6441 -6.9366
635 1 12.4339 3.55255 23.0916 -8.5291
636 3 10.6577 5.32883 23.0916 -6.29028
733 3 10.6577 3.55255 24.8679 -6.15676
734 3 12.4339 5.32883 24.8679 -6.22081
735 1 12.4339 3.55255 26.6441 -8.27137
736 1 10.6577 5.32883 26.6441 -8.56842
639 3 15.9865 3.55255 23.0916 -6.21397
640 3 14.2102 5.32883 23.0916 -6.26176
737 1 14.2102 3.55255 24.8679 -8.53782
738 3 15.9865 5.32883 24.8679 -6.46484
739 3 15.9865 3.55255 26.6441 -6.51591
740 2 14.2102 5.32883 26.6441 -6.91523
643 3 1.77628 7.10511 23.0916 -6.4163
644 3 0 8.88138 23.0916 -6.30703
741 3 0 7.10511 24.8679 -6.3504
742 2 1.77628 8.88138 24.8679 -6.87465
743 1 1.77628 7.10511 26.6441 -8.60385
744 2 0 8.88138 26.6441 -6.91002
647 3 5.32883 7.10511 23.0916 -6.47337
648 2 3.55255 8.88138 23.0916 -6.95744
745 1 3.55255 7.10511 24.8679 -8.75801
746 2 5.32883 8.88138 24.8679 -6.8612
747 3 5.32883 7.10511 26.6441 -6.33814
748 3 3.55255 8.88138 26.6441 -6.35379
651 1 8.88138 7.10511 23.0916 -8.7258
652 2 7.10511 8.88138 23.0916 -6.94471
749 1 7.10511 7.10511 24.8679 -8.60932
750 2 8.88138 8.88138 24.8679 -6.95079
751 3 8.88138 7.10511 26.6441 -6.30219
752 1 7.10511 8.88138 26.6441 -8.65015
655 1 12.4339 7.10511 23.0916 -8.70339
656 2 10.6577 8.88138 23.0916 -6.97408
753 3 10.6577 7.10511 24.8679 -6.37974
754 2 12.4339 8.88138 24.8679 -6.97471
755 2 12.4339 7.10511 26.6441 -6.91186
756 1 10.6577 8.88138 26.6441 -8.46764
659 2 15.9865 7.10511 23.0916 -6.9915
660 3 14.2102 8.88138 23.0916 -6.33863
757 1 14.2102 7.10511 24.8679 -8.67973
758 2 15.9865 8.88138 24.8679 -7.02606
759 2 15.9865 7.10511 26.6441 -7.06141
760 3 14.2102 8.88138 26.6441 -6.43782
663 1 1.77628 10.6577 23.0916 -8.12873
664 2 0 12.4339 23.0916 -7.10194
761 1 0 10.6577 24.8679 -8.10091
762 1 1.77628 12.4339 24.8679 -8.06266
763 1 1.77628 10.6577 26.6441 -8.43292
764 2 0 12.4339 26.6441 -7.05871
667 1 5.32883 10.6577 23.0916 -8.32433
668 2 3.55255 12.4339 23.0916 -7.09365
765 1 3.55255 10.6577 24.8679 -8.25717
766 1 5.32883 12.4339 24.8679 -8.42727
767 3 5.32883 10.6577 26.6441 -6.31935
768 3 3.55255 12.4339 26.6441 -6.10463
671 2 8.88138 10.6577 23.0916 -6.96696
672 3 7.10511 12.4339 23.0916 -6.36954
769 3 7.10511 10.6577 24.8679 -6.4718
770 3 8.88138 12.4339 24.8679 -6.43305
771 3 8.88138 10.6577 26.6441 -6.31478
772 3 7.10511 12.4339 26.6441 -6.36405
675 1 12.4339 10.6577 23.0916 -8.29909
676 1 10.6577 12.4339 23.0916 -8.43525
773 1 10.6577 10.6577 24.8679 -8.43058
774 2 12.4339 12.4339 24.8679 -6.97946
775 2 12.4339 10.6577 26.6441 -6.9362
776 3 10.6577 12.4339 26.6441 -6.36367
679 2 15.9865 10.6577 23.0916 -6.9557
680 3 14.2102 12.4339 23.0916 -6.44572
777 1 14.2102 10.6577 24.8679 -8.6846
778 3 15.9865 12.4339 24.8679 -6.47444
779 2 15.9865 10.6577 26.6441 -6.97447
780 3 14.2102 12.4339 26.6441 -6.40402
683 2 1.77628 14.2102 23.0916 -7.00025
684 2 0 15.9865 23.0916 -7.02269
781 1 0 14.2102 24.8679 -8.22845
782 1 1.77628 15.9865 24.8679 -8.33644
783 1 1.77628 14.2102 26.6441 -8.16725
784 2 0 15.9865 26.6441 -7.02502
687 2 5.32883 14.2102 23.0916 -7.00697
688 2 3.55255 15.9865 23.0916 -7.04421
785 1 3.55255 14.2102 24.8679 -8.25702
786 2 5.32883 15.9865 24.8679 -7.00336
787 2 5.32883 14.2102 26.6441 -6.94758
788 2 3.55255 15.9865 26.6441 -6.97085
691 2 8.88138 14.2102 23.0916 -6.95056
692 2 7.10511 15.9865 23.0916 -6.98769
789 1 7.10511 14.2102 24.8679 -8.61903
790 2 8.88138 15.9865 24.8679 -7.01965
791 3 8.88138 14.2102 26.6441 -6.45563
792 2 7.10511 15.9865 26.6441 -6.9739
695 2 12.4339 14.2102 23.0916 -7.0372
696 1 10.6577 15.9865 23.0916 -8.49256
793 2 10.6577 14.2102 24.8679 -6.98731
794 2 12.4339 15.9865 24.8679 -7.07942
795 1 12.4339 14.2102 26.6441 -8.36483
796 1 10.6577 15.9865 26.6441 -8.43734
699 2 15.9865 14.2102 23.0916 -6.9868
700 2 14.2102 15.9865 23.0916 -7.08944
797 2 14.2102 14.2102 24.8679 -7.07692
798 2 15.9865 15.9865 24.8679 -7.03228
799 3 15.9865 14.2102 26.6441 -6.35181
800 1 14.2102 15.9865 26.6441 -8.39823
801 3 0 0 28.4204 -6.23068