ITEM: TIMESTEP
0
ITEM: NUMBER OF ATOMS
4000
ITEM: BOX BOUNDS pp pp pp
0.0000000000000000e+00 3.5627870000000001e+01
0.0000000000000000e+00 3.5627870000000001e+01
0.0000000000000000e+00 3.5627870000000001e+01
ITEM: ATOMS id type x y z c_peratom
1 1 0 0 0 -8.09041
2 1 1.78139 1.78139 0 -8.15647
3 2 1.78139 0 1.78139 -7.0462
4 1 0 1.78139 1.78139 -8.1711
101 3 0 0 3.56279 -6.21775
102 1 1.78139 1.78139 3.56279 -8.41661
5 1 3.56279 0 0 -8.19044
6 3 5.34418 1.78139 0 -6.31807
7 3 5.34418 0 1.78139 -6.28753
8 1 3.56279 1.78139 1.78139 -8.28397
105 2 3.56279 0 3.56279 -6.87132
106 3 5.34418 1.78139 3.56279 -6.38063
9 3 7.12557 0 0 -6.53896
10 3 8.90697 1.78139 0 -6.61865
11 2 8.90697 0 1.78139 -6.96452
12 1 7.12557 1.78139 1.78139 -8.73898
109 3 7.12557 0 3.56279 -6.3282
110 3 8.90697 1.78139 3.56279 -6.34916
13 2 10.6884 0 0 -7.00488
14 3 12.4698 1.78139 0 -6.53903
15 1 12.4698 0 1.78139 -8.72728
16 1 10.6884 1.78139 1.78139 -8.75981
113 3 10.6884 0 3.56279 -6.35115
114 3 12.4698 1.78139 3.56279 -6.32644
17 3 14.2511 0 0 -6.54086
18 2 16.0325 1.78139 0 -7.04244
19 2 16.0325 0 1.78139 -6.89847
20 2 14.2511 1.78139 1.78139 -6.98205
117 3 14.2511 0 3.56279 -6.42951
118 1 16.0325 1.78139 3.56279 -8.446
21 3 0 3.56279 0 -6.2703
22 3 1.78139 5.34418 0 -6.31486
23 2 1.78139 3.56279 1.78139 -6.89961
24 1 0 5.34418 1.78139 -8.50312
121 2 0 3.56279 3.56279 -6.92601
122 3 1.78139 5.34418 3.56279 -6.34147
25 1 3.56279 3.56279 0 -8.42537
26 3 5.34418 5.34418 0 -6.29909
27 1 5.34418 3.56279 1.78139 -8.36725
28 2 3.56279 5.34418 1.78139 -6.88512
125 3 3.56279 3.56279 3.56279 -6.32374
126 1 5.34418 5.34418 3.56279 -8.34675
29 2 7.12557 3.56279 0 -6.91362
30 3 8.90697 5.34418 0 -6.59608
31 2 8.90697 3.56279 1.78139 -6.98605
32 3 7.12557 5.34418 1.78139 -6.39693
129 2 7.12557 3.56279 3.56279 -6.92447
130 1 8.90697 5.34418 3.56279 -8.61226
33 2 10.6884 3.56279 0 -7.03184
34 3 12.4698 5.34418 0 -6.5489
35 3 12.4698 3.56279 1.78139 -6.53933
36 2 10.6884 5.34418 1.78139 -7.0616
133 2 10.6884 3.56279 3.56279 -6.94441
134 2 12.4698 5.34418 3.56279 -7.07419
37 1 14.2511 3.56279 0 -8.61764
38 2 16.0325 5.34418 0 -6.994
39 2 16.0325 3.56279 1.78139 -7.03919
40 2 14.2511 5.34418 1.78139 -6.98016
137 1 14.2511 3.56279 3.56279 -8.36789
138 2 16.0325 5.34418 3.56279 -7.00952
41 3 0 7.12557 0 -6.27769
42 1 1.78139 8.90697 0 -8.20171
43 1 1.78139 7.12557 1.78139 -8.26377
44 1 0 8.90697 1.78139 -8.40787
141 2 0 7.12557 3.56279 -6.85196
142 3 1.78139 8.90697 3.56279 -6.2585
45 1 3.56279 7.12557 0 -8.48551
46 2 5.34418 8.90697 0 -7.01241
47 1 5.34418 7.12557 1.78139 -8.21454
48 1 3.56279 8.90697 1.78139 -8.12596
145 1 3.56279 7.12557 3.56279 -8.1982
146 3 5.34418 8.90697 3.56279 -6.19948
49 2 7.12557 7.12557 0 -6.93991
50 2 8.90697 8.90697 0 -6.96953
51 1 8.90697 7.12557 1.78139 -8.33392
52 1 7.12557 8.90697 1.78139 -8.37795
149 2 7.12557 7.12557 3.56279 -6.93497
150 3 8.90697 8.90697 3.56279 -6.36401
53 2 10.6884 7.12557 0 -6.97082
54 3 12.4698 8.90697 0 -6.35759
55 3 12.4698 7.12557 1.78139 -6.51451
56 1 10.6884 8.90697 1.78139 -8.55586
153 2 10.6884 7.12557 3.56279 -6.97936
154 2 12.4698 8.90697 3.56279 -6.98054
57 1 14.2511 7.12557 0 -8.59334
58 1 16.0325 8.90697 0 -8.63029
59 1 16.0325 7.12557 1.78139 -8.30208
60 1 14.2511 8.90697 1.78139 -8.57795
157 2 14.2511 7.12557 3.56279 -6.9453
158 3 16.0325 8.90697 3.56279 -6.3577
61 2 0 10.6884 0 -6.96649
62 2 1.78139 12.4698 0 -7.03326
63 2 1.78139 10.6884 1.78139 -6.99655
64 1 0 12.4698 1.78139 -8.32761
161 2 0 10.6884 3.56279 -6.98549
162 1 1.78139 12.4698 3.56279 -8.27382
65 2 3.56279 10.6884 0 -7.03704
66 2 5.34418 12.4698 0 -7.01781
67 1 5.34418 10.6884 1.78139 -8.31814
68 3 3.56279 12.4698 1.78139 -6.47728
165 2 3.56279 10.6884 3.56279 -6.99423
166 1 5.34418 12.4698 3.56279 -8.54453
69 2 7.12557 10.6884 0 -7.02879
70 1 8.90697 12.4698 0 -8.51315
71 3 8.90697 10.6884 1.78139 -6.35017
72 2 7.12557 12.4698 1.78139 -6.92996
169 2 7.12557 10.6884 3.56279 -6.95067
170 1 8.90697 12.4698 3.56279 -8.60609
73 3 10.6884 10.6884 0 -6.30522
74 1 12.4698 12.4698 0 -8.45409
75 2 12.4698 10.6884 1.78139 -6.84726
76 3 10.6884 12.4698 1.78139 -6.29643
173 1 10.6884 10.6884 3.56279 -8.56672
174 3 12.4698 12.4698 3.56279 -6.31744
77 3 14.2511 10.6884 0 -6.25694
78 1 16.0325 12.4698 0 -8.40522
79 3 16.0325 10.6884 1.78139 -6.1521
80 1 14.2511 12.4698 1.78139 -8.29504
177 3 14.2511 10.6884 3.56279 -6.29006
178 1 16.0325 12.4698 3.56279 -8.33707
81 1 0 14.2511 0 -8.25571
82 2 1.78139 16.0325 0 -6.95483
83 3 1.78139 14.2511 1.78139 -6.19647
84 1 0 16.0325 1.78139 -8.39867
181 1 0 14.2511 3.56279 -8.14179
182 3 1.78139 16.0325 3.56279 -6.15696
85 1 3.56279 14.2511 0 -8.448
86 2 5.34418 16.0325 0 -6.90766
87 2 5.34418 14.2511 1.78139 -6.9795
88 1 3.56279 16.0325 1.78139 -8.36093
185 3 3.56279 14.2511 3.56279 -6.27486
186 2 5.34418 16.0325 3.56279 -6.97116
89 1 7.12557 14.2511 0 -8.48453
90 1 8.90697 16.0325 0 -8.66634
91 3 8.90697 14.2511 1.78139 -6.33605
92 3 7.12557 16.0325 1.78139 -6.36107
189 3 7.12557 14.2511 3.56279 -6.46498
190 3 8.90697 16.0325 3.56279 -6.42941
93 2 10.6884 14.2511 0 -6.86549
94 1 12.4698 16.0325 0 -8.42228
95 1 12.4698 14.2511 1.78139 -8.48004
96 3 10.6884 16.0325 1.78139 -6.34791
193 3 10.6884 14.2511 3.56279 -6.28036
194 3 12.4698 16.0325 3.56279 -6.31017
97 2 14.2511 14.2511 0 -7.03504
98 1 16.0325 16.0325 0 -8.16337
99 1 16.0325 14.2511 1.78139 -8.13944
100 1 14.2511 16.0325 1.78139 -8.26277
197 3 14.2511 14.2511 3.56279 -6.11395
198 3 16.0325 16.0325 3.56279 -6.25313
103 2 1.78139 0 5.34418 -6.94282
104 1 0 1.78139 5.34418 -8.38656
201 2 0 0 7.12557 -7.01383
202 2 1.78139 1.78139 7.12557 -6.93454
107 3 5.34418 0 5.34418 -6.38431
108 3 3.56279 1.78139 5.34418 -6.51477
203 1 3.56279 0 7.12557 -8.71826
204 3 5.34418 1.78139 7.12557 -6.4664
111 3 8.90697 0 5.34418 -6.34744
112 1 7.12557 1.78139 5.34418 -8.87865
205 3 7.12557 0 7.12557 -6.47872
206 2 8.90697 1.78139 7.12557 -6.90732
115 1 12.4698 0 5.34418 -8.59959
116 1 10.6884 1.78139 5.34418 -8.68568
207 3 10.6884 0 7.12557 -6.3344
208 3 12.4698 1.78139 7.12557 -6.31589
119 2 16.0325 0 5.34418 -7.00472
120 2 14.2511 1.78139 5.34418 -6.97175
209 2 14.2511 0 7.12557 -7.02392
210 1 16.0325 1.78139 7.12557 -8.45222
123 3 1.78139 3.56279 5.34418 -6.38067
124 1 0 5.34418 5.34418 -8.53445
211 2 0 3.56279 7.12557 -6.98541
212 1 1.78139 5.34418 7.12557 -8.6762
127 3 5.34418 3.56279 5.34418 -6.41774
128 3 3.56279 5.34418 5.34418 -6.29079
213 3 3.56279 3.56279 7.12557 -6.33096
214 1 5.34418 5.34418 7.12557 -8.52235
131 3 8.90697 3.56279 5.34418 -6.43209
132 3 7.12557 5.34418 5.34418 -6.28021
215 2 7.12557 3.56279 7.12557 -6.90139
216 1 8.90697 5.34418 7.12557 -8.71856
135 1 12.4698 3.56279 5.34418 -8.45359
136 3 10.6884 5.34418 5.34418 -6.43907
217 3 10.6884 3.56279 7.12557 -6.33582
218 3 12.4698 5.34418 7.12557 -6.42452
139 2 16.0325 3.56279 5.34418 -7.01789
140 1 14.2511 5.34418 5.34418 -8.23504
219 2 14.2511 3.56279 7.12557 -6.99986
220 1 16.0325 5.34418 7.12557 -8.29546
143 2 1.78139 7.12557 5.34418 -6.8696
144 1 0 8.90697 5.34418 -8.6618
221 3 0 7.12557 7.12557 -6.3676
222 2 1.78139 8.90697 7.12557 -6.93468
147 1 5.34418 7.12557 5.34418 -8.25386
148 1 3.56279 8.90697 5.34418 -8.56027
223 3 3.56279 7.12557 7.12557 -6.30413
224 3 5.34418 8.90697 7.12557 -6.33265
151 3 8.90697 7.12557 5.34418 -6.50194
152 1 7.12557 8.90697 5.34418 -8.67909
225 2 7.12557 7.12557 7.12557 -6.94502
226 3 8.90697 8.90697 7.12557 -6.48539
155 1 12.4698 7.12557 5.34418 -8.45873
156 2 10.6884 8.90697 5.34418 -6.90636
227 3 10.6884 7.12557 7.12557 -6.54605
228 3 12.4698 8.90697 7.12557 -6.47328
159 3 16.0325 7.12557 5.34418 -6.46332
160 1 14.2511 8.90697 5.34418 -8.46099
229 2 14.2511 7.12557 7.12557 -6.99259
230 1 16.0325 8.90697 7.12557 -8.37139
163 2 1.78139 10.6884 5.34418 -6.9573
164 1 0 12.4698 5.34418 -8.13008
231 3 0 10.6884 7.12557 -6.38395
232 1 1.78139 12.4698 7.12557 -8.32633
167 2 5.34418 10.6884 5.34418 -6.92127
168 1 3.56279 12.4698 5.34418 -8.22227
233 3 3.56279 10.6884 7.12557 -6.3025
234 1 5.34418 12.4698 7.12557 -8.28552
171 3 8.90697 10.6884 5.34418 -6.34418
172 3 7.12557 12.4698 5.34418 -6.28788
235 2 7.12557 10.6884 7.12557 -6.97066
236 1 8.90697 12.4698 7.12557 -8.19275
175 2 12.4698 10.6884 5.34418 -6.87238
176 3 10.6884 12.4698 5.34418 -6.26602
237 1 10.6884 10.6884 7.12557 -8.57777
238 3 12.4698 12.4698 7.12557 -6.28029
179 3 16.0325 10.6884 5.34418 -6.21925
180 3 14.2511 12.4698 5.34418 -6.35082
239 1 14.2511 10.6884 7.12557 -8.54472
240 3 16.0325 12.4698 7.12557 -6.45896
183 1 1.78139 14.2511 5.34418 -8.16871
184 3 0 16.0325 5.34418 -6.24652
241 2 0 14.2511 7.12557 -6.97769
242 2 1.78139 16.0325 7.12557 -6.9385
187 3 5.34418 14.2511 5.34418 -6.3981
188 1 3.56279 16.0325 5.34418 -8.58711
243 2 3.56279 14.2511 7.12557 -6.98452
244 3 5.34418 16.0325 7.12557 -6.34898
191 1 8.90697 14.2511 5.34418 -8.54258
192 2 7.12557 16.0325 5.34418 -6.89953
245 2 7.12557 14.2511 7.12557 -7.03356
246 2 8.90697 16.0325 7.12557 -6.98007
195 1 12.4698 14.2511 5.34418 -8.76396
196 3 10.6884 16.0325 5.34418 -6.34196
247 2 10.6884 14.2511 7.12557 -6.88716
248 3 12.4698 16.0325 7.12557 -6.32508
199 2 16.0325 14.2511 5.34418 -6.81364
200 1 14.2511 16.0325 5.34418 -8.52327
249 1 14.2511 14.2511 7.12557 -8.41136
250 1 16.0325 16.0325 7.12557 -8.40289
251 1 1.78139 0 8.90697 -8.27964
252 1 0 1.78139 8.90697 -7.97613
301 1 0 0 10.6884 -8.16085
302 1 1.78139 1.78139 10.6884 -8.32862
303 3 1.78139 0 12.4698 -6.2555
304 3 0 1.78139 12.4698 -6.22755
253 2 5.34418 0 8.90697 -6.8931
254 2 3.56279 1.78139 8.90697 -6.93118
305 3 3.56279 0 10.6884 -6.25361
306 1 5.34418 1.78139 10.6884 -8.43449
307 1 5.34418 0 12.4698 -8.368
308 3 3.56279 1.78139 12.4698 -6.1622
255 1 8.90697 0 8.90697 -8.61914
256 3 7.12557 1.78139 8.90697 -6.39031
309 2 7.12557 0 10.6884 -7.00699
310 2 8.90697 1.78139 10.6884 -6.94779
311 1 8.90697 0 12.4698 -8.34679
312 2 7.12557 1.78139 12.4698 -6.91164
257 1 12.4698 0 8.90697 -8.56467
258 2 10.6884 1.78139 8.90697 -6.92078
313 3 10.6884 0 10.6884 -6.34371
314 2 12.4698 1.78139 10.6884 -7.04427
315 2 12.4698 0 12.4698 -6.98364
316 1 10.6884 1.78139 12.4698 -8.30636
259 3 16.0325 0 8.90697 -6.65823
260 3 14.2511 1.78139 8.90697 -6.47829
317 2 14.2511 0 10.6884 -7.05468
318 2 16.0325 1.78139 10.6884 -7.06088
319 2 16.0325 0 12.4698 -7.03373
320 1 14.2511 1.78139 12.4698 -8.5027
261 1 1.78139 3.56279 8.90697 -8.29532
262 3 0 5.34418 8.90697 -6.27563
321 2 0 3.56279 10.6884 -6.91795
322 1 1.78139 5.34418 10.6884 -8.35348
323 1 1.78139 3.56279 12.4698 -8.5923
324 3 0 5.34418 12.4698 -6.17303
263 1 5.34418 3.56279 8.90697 -8.64402
264 3 3.56279 5.34418 8.90697 -6.17931
325 2 3.56279 3.56279 10.6884 -6.91316
326 3 5.34418 5.34418 10.6884 -6.22558
327 1 5.34418 3.56279 12.4698 -8.66984
328 2 3.56279 5.34418 12.4698 -6.88145
265 1 8.90697 3.56279 8.90697 -8.62106
266 3 7.12557 5.34418 8.90697 -6.27113
329 3 7.12557 3.56279 10.6884 -6.25568
330 2 8.90697 5.34418 10.6884 -6.96707
331 1 8.90697 3.56279 12.4698 -8.54778
332 3 7.12557 5.34418 12.4698 -6.17845
267 1 12.4698 3.56279 8.90697 -8.66665
268 2 10.6884 5.34418 8.90697 -7.02034
333 2 10.6884 3.56279 10.6884 -7.05157
334 2 12.4698 5.34418 10.6884 -7.12724
335 1 12.4698 3.56279 12.4698 -8.38152
336 2 10.6884 5.34418 12.4698 -7.00653
269 1 16.0325 3.56279 8.90697 -8.30225
270 2 14.2511 5.34418 8.90697 -7.07627
337 2 14.2511 3.56279 10.6884 -7.07377
338 1 16.0325 5.34418 10.6884 -8.22562
339 3 16.0325 3.56279 12.4698 -6.53294
340 2 14.2511 5.34418 12.4698 -7.10789
271 3 1.78139 7.12557 8.90697 -6.45569
272 2 0 8.90697 8.90697 -6.93662
341 1 0 7.12557 10.6884 -8.52669
342 3 1.78139 8.90697 10.6884 -6.28743
343 1 1.78139 7.12557 12.4698 -8.25778
344 3 0 8.90697 12.4698 -6.20287
273 1 5.34418 7.12557 8.90697 -8.63825
274 2 3.56279 8.90697 8.90697 -6.89555
345 3 3.56279 7.12557 10.6884 -6.31995
346 3 5.34418 8.90697 10.6884 -6.20407
347 1 5.34418 7.12557 12.4698 -8.57814
348 2 3.56279 8.90697 12.4698 -6.83089
275 2 8.90697 7.12557 8.90697 -6.91383
276 2 7.12557 8.90697 8.90697 -6.88076
349 1 7.12557 7.12557 10.6884 -8.48139
350 3 8.90697 8.90697 10.6884 -6.40364
351 1 8.90697 7.12557 12.4698 -8.42745
352 3 7.12557 8.90697 12.4698 -6.33007
277 3 12.4698 7.12557 8.90697 -6.66774
278 3 10.6884 8.90697 8.90697 -6.51125
353 1 10.6884 7.12557 10.6884 -8.61443
354 2 12.4698 8.90697 10.6884 -7.08342
355 2 12.4698 7.12557 12.4698 -7.03644
356 3 10.6884 8.90697 12.4698 -6.53352
279 1 16.0325 7.12557 8.90697 -8.09841
280 2 14.2511 8.90697 8.90697 -7.04355
357 2 14.2511 7.12557 10.6884 -7.09866
358 1 16.0325 8.90697 10.6884 -8.22429
359 2 16.0325 7.12557 12.4698 -7.04932
360 1 14.2511 8.90697 12.4698 -8.3846
281 1 1.78139 10.6884 8.90697 -8.33445
282 2 0 12.4698 8.90697 -6.99759
361 1 0 10.6884 10.6884 -8.61917
362 2 1.78139 12.4698 10.6884 -6.9672
363 3 1.78139 10.6884 12.4698 -6.3131
364 2 0 12.4698 12.4698 -6.96374
283 1 5.34418 10.6884 8.90697 -8.43313
284 2 3.56279 12.4698 8.90697 -6.98564
365 1 3.56279 10.6884 10.6884 -8.2552
366 2 5.34418 12.4698 10.6884 -7.03254
367 1 5.34418 10.6884 12.4698 -8.63167
368 1 3.56279 12.4698 12.4698 -8.5192
285 1 8.90697 10.6884 8.90697 -8.44815
286 1 7.12557 12.4698 8.90697 -8.12212
369 3 7.12557 10.6884 10.6884 -6.38418
370 2 8.90697 12.4698 10.6884 -7.04343
371 2 8.90697 10.6884 12.4698 -7.07124
372 2 7.12557 12.4698 12.4698 -6.93265
287 2 12.4698 10.6884 8.90697 -7.02204
288 1 10.6884 12.4698 8.90697 -8.17985
373 2 10.6884 10.6884 10.6884 -7.06049
374 2 12.4698 12.4698 10.6884 -7.03946
375 2 12.4698 10.6884 12.4698 -7.02974
376 1 10.6884 12.4698 12.4698 -8.34707
289 2 16.0325 10.6884 8.90697 -6.99775
290 2 14.2511 12.4698 8.90697 -6.98502
377 3 14.2511 10.6884 10.6884 -6.54659
378 2 16.0325 12.4698 10.6884 -6.98667
379 3 16.0325 10.6884 12.4698 -6.42245
380 1 14.2511 12.4698 12.4698 -8.6846
291 3 1.78139 14.2511 8.90697 -6.47201
292 3 0 16.0325 8.90697 -6.30995
381 2 0 14.2511 10.6884 -6.93948
382 1 1.78139 16.0325 10.6884 -8.47028
383 3 1.78139 14.2511 12.4698 -6.43465
384 3 0 16.0325 12.4698 -6.34174
293 1 5.34418 14.2511 8.90697 -8.18887
294 2 3.56279 16.0325 8.90697 -6.98154
385 1 3.56279 14.2511 10.6884 -8.29329
386 3 5.34418 16.0325 10.6884 -6.35682
387 1 5.34418 14.2511 12.4698 -8.46361
388 2 3.56279 16.0325 12.4698 -6.95035
295 1 8.90697 14.2511 8.90697 -8.26734
296 1 7.12557 16.0325 8.90697 -8.31456
389 2 7.12557 14.2511 10.6884 -6.9766
390 3 8.90697 16.0325 10.6884 -6.38172
391 1 8.90697 14.2511 12.4698 -8.53862
392 1 7.12557 16.0325 12.4698 -8.48272
297 1 12.4698 14.2511 8.90697 -8.52935
298 2 10.6884 16.0325 8.90697 -6.93557
393 2 10.6884 14.2511 10.6884 -6.97151
394 3 12.4698 16.0325 10.6884 -6.37846
395 1 12.4698 14.2511 12.4698 -8.58033
396 3 10.6884 16.0325 12.4698 -6.418
299 3 16.0325 14.2511 8.90697 -6.50525
300 3 14.2511 16.0325 8.90697 -6.41998
397 3 14.2511 14.2511 10.6884 -6.45946
398 1 16.0325 16.0325 10.6884 -8.75017
399 3 16.0325 14.2511 12.4698 -6.55893
400 3 14.2511 16.0325 12.4698 -6.43953
401 1 0 0 14.2511 -8.65829
402 3 1.78139 1.78139 14.2511 -6.33571
403 3 1.78139 0 16.0325 -6.25851
404 2 0 1.78139 16.0325 -6.83978
405 1 3.56279 0 14.2511 -8.52245
406 1 5.34418 1.78139 14.2511 -8.32083
407 2 5.34418 0 16.0325 -6.99372
408 1 3.56279 1.78139 16.0325 -8.60158
409 3 7.12557 0 14.2511 -6.45958
410 1 8.90697 1.78139 14.2511 -8.48164
411 3 8.90697 0 16.0325 -6.62787
412 2 7.12557 1.78139 16.0325 -6.94465
413 2 10.6884 0 14.2511 -7.07262
414 2 12.4698 1.78139 14.2511 -7.0115
415 1 12.4698 0 16.0325 -8.43298
416 2 10.6884 1.78139 16.0325 -6.9839
417 3 14.2511 0 14.2511 -6.30561
418 2 16.0325 1.78139 14.2511 -7.00219
419 1 16.0325 0 16.0325 -8.57058
420 1 14.2511 1.78139 16.0325 -8.23741
421 3 0 3.56279 14.2511 -6.31754
422 2 1.78139 5.34418 14.2511 -6.94189
423 3 1.78139 3.56279 16.0325 -6.38392
424 2 0 5.34418 16.0325 -6.95405
425 3 3.56279 3.56279 14.2511 -6.32567
426 3 5.34418 5.34418 14.2511 -6.33972
427 2 5.34418 3.56279 16.0325 -6.95641
428 1 3.56279 5.34418 16.0325 -8.68917
429 3 7.12557 3.56279 14.2511 -6.38604
430 3 8.90697 5.34418 14.2511 -6.37755
431 3 8.90697 3.56279 16.0325 -6.4846
432 3 7.12557 5.34418 16.0325 -6.50664
433 2 10.6884 3.56279 14.2511 -6.99436
434 3 12.4698 5.34418 14.2511 -6.41491
435 1 12.4698 3.56279 16.0325 -8.57972
436 3 10.6884 5.34418 16.0325 -6.3415
437 2 14.2511 3.56279 14.2511 -7.03102
438 2 16.0325 5.34418 14.2511 -7.04965
439 1 16.0325 3.56279 16.0325 -8.50844
440 3 14.2511 5.34418 16.0325 -6.41345
441 1 0 7.12557 14.2511 -8.28668
442 1 1.78139 8.90697 14.2511 -8.20919
443 2 1.78139 7.12557 16.0325 -6.95909
444 2 0 8.90697 16.0325 -6.96047
445 1 3.56279 7.12557 14.2511 -8.12144
446 3 5.34418 8.90697 14.2511 -6.28018
447 2 5.34418 7.12557 16.0325 -6.94154
448 1 3.56279 8.90697 16.0325 -8.49122
449 1 7.12557 7.12557 14.2511 -8.52714
450 2 8.90697 8.90697 14.2511 -6.95258
451 3 8.90697 7.12557 16.0325 -6.35028
452 1 7.12557 8.90697 16.0325 -8.45085
453 1 10.6884 7.12557 14.2511 -8.5411
454 1 12.4698 8.90697 14.2511 -8.41093
455 1 12.4698 7.12557 16.0325 -8.52178
456 3 10.6884 8.90697 16.0325 -6.35586
457 2 14.2511 7.12557 14.2511 -7.05673
458 1 16.0325 8.90697 14.2511 -8.48872
459 3 16.0325 7.12557 16.0325 -6.61142
460 2 14.2511 8.90697 16.0325 -6.96783
461 1 0 10.6884 14.2511 -8.47671
462 3 1.78139 12.4698 14.2511 -6.37646
463 3 1.78139 10.6884 16.0325 -6.21467
464 2 0 12.4698 16.0325 -6.89361
465 3 3.56279 10.6884 14.2511 -6.28557
466 3 5.34418 12.4698 14.2511 -6.17769
467 2 5.34418 10.6884 16.0325 -6.86064
468 1 3.56279 12.4698 16.0325 -8.71075
469 2 7.12557 10.6884 14.2511 -7.00734
470 2 8.90697 12.4698 14.2511 -6.99368
471 3 8.90697 10.6884 16.0325 -6.42756
472 1 7.12557 12.4698 16.0325 -8.39313
473 2 10.6884 10.6884 14.2511 -7.06396
474 2 12.4698 12.4698 14.2511 -6.98194
475 2 12.4698 10.6884 16.0325 -6.91644
476 3 10.6884 12.4698 16.0325 -6.43091
477 3 14.2511 10.6884 14.2511 -6.37829
478 3 16.0325 12.4698 14.2511 -6.55732
479 1 16.0325 10.6884 16.0325 -8.38016
480 3 14.2511 12.4698 16.0325 -6.40084
481 3 0 14.2511 14.2511 -6.46891
482 1 1.78139 16.0325 14.2511 -8.48303
483 3 1.78139 14.2511 16.0325 -6.41074
484 3 0 16.0325 16.0325 -6.33999
485 3 3.56279 14.2511 14.2511 -6.21254
486 3 5.34418 16.0325 14.2511 -6.3394
487 1 5.34418 14.2511 16.0325 -8.32742
488 1 3.56279 16.0325 16.0325 -8.45317
489 3 7.12557 14.2511 14.2511 -6.17805
490 2 8.90697 16.0325 14.2511 -6.96586
491 1 8.90697 14.2511 16.0325 -8.38806
492 1 7.12557 16.0325 16.0325 -8.21862
493 3 10.6884 14.2511 14.2511 -6.31218
494 2 12.4698 16.0325 14.2511 -6.86985
495 1 12.4698 14.2511 16.0325 -8.72866
496 3 10.6884 16.0325 16.0325 -6.3638
497 2 14.2511 14.2511 14.2511 -6.91807
498 3 16.0325 16.0325 14.2511 -6.45645
499 3 16.0325 14.2511 16.0325 -6.45148
500 3 14.2511 16.0325 16.0325 -6.33718
501 1 0 0 17.8139 -8.70159
502 3 1.78139 1.78139 17.8139 -6.34318
503 2 1.78139 0 19.5953 -6.94382
504 3 0 1.78139 19.5953 -6.28925
601 1 0 0 21.3767 -8.54447
602 2 1.78139 1.78139 21.3767 -6.95452
505 3 3.56279 0 17.8139 -6.3985
506 1 5.34418 1.78139 17.8139 -8.48716
507 2 5.34418 0 19.5953 -7.05087
508 1 3.56279 1.78139 19.5953 -8.51815
605 2 3.56279 0 21.3767 -6.99224
606 2 5.34418 1.78139 21.3767 -7.05331
509 2 7.12557 0 17.8139 -7.04923
510 1 8.90697 1.78139 17.8139 -8.73957
511 2 8.90697 0 19.5953 -7.04841
512 2 7.12557 1.78139 19.5953 -7.10309
609 2 7.12557 0 21.3767 -7.0883
610 2 8.90697 1.78139 21.3767 -7.06418
513 2 10.6884 0 17.8139 -6.9746
514 2 12.4698 1.78139 17.8139 -6.89865
515 1 12.4698 0 19.5953 -8.70404
516 3 10.6884 1.78139 19.5953 -6.36958
613 1 10.6884 0 21.3767 -8.57622
614 3 12.4698 1.78139 21.3767 -6.3252
517 3 14.2511 0 17.8139 -6.24447
518 3 16.0325 1.78139 17.8139 -6.18167
519 1 16.0325 0 19.5953 -8.51557
520 3 14.2511 1.78139 19.5953 -6.20253
617 3 14.2511 0 21.3767 -6.35718
618 2 16.0325 1.78139 21.3767 -6.77175
521 1 0 3.56279 17.8139 -8.50132
522 3 1.78139 5.34418 17.8139 -6.2842
523 3 1.78139 3.56279 19.5953 -6.23808
524 1 0 5.34418 19.5953 -8.27335
621 1 0 3.56279 21.3767 -8.55643
622 3 1.78139 5.34418 21.3767 -6.14008
525 3 3.56279 3.56279 17.8139 -6.40476
526 2 5.34418 5.34418 17.8139 -6.98447
527 3 5.34418 3.56279 19.5953 -6.5498
528 3 3.56279 5.34418 19.5953 -6.39165
625 1 3.56279 3.56279 21.3767 -8.74448
626 3 5.34418 5.34418 21.3767 -6.36393
529 2 7.12557 3.56279 17.8139 -7.00661
530 1 8.90697 5.34418 17.8139 -8.87175
531 3 8.90697 3.56279 19.5953 -6.5137
532 2 7.12557 5.34418 19.5953 -7.00183
629 2 7.12557 3.56279 21.3767 -7.04756
630 3 8.90697 5.34418 21.3767 -6.40735
533 3 10.6884 3.56279 17.8139 -6.38226
534 3 12.4698 5.34418 17.8139 -6.36939
535 1 12.4698 3.56279 19.5953 -8.57014
536 3 10.6884 5.34418 19.5953 -6.30385
633 1 10.6884 3.56279 21.3767 -8.45622
634 1 12.4698 5.34418 21.3767 -8.38832
537 1 14.2511 3.56279 17.8139 -8.30508
538 3 16.0325 5.34418 17.8139 -6.47005
539 1 16.0325 3.56279 19.5953 -8.37011
540 2 14.2511 5.34418 19.5953 -7.0033
637 3 14.2511 3.56279 21.3767 -6.24893
638 1 16.0325 5.34418 21.3767 -8.3693
541 1 0 7.12557 17.8139 -8.39571
542 3 1.78139 8.90697 17.8139 -6.19861
543 1 1.78139 7.12557 19.5953 -8.41535
544 3 0 8.90697 19.5953 -6.28097
641 2 0 7.12557 21.3767 -6.86719
642 2 1.78139 8.90697 21.3767 -6.96121
545 3 3.56279 7.12557 17.8139 -6.3407
546 2 5.34418 8.90697 17.8139 -6.96649
547 1 5.34418 7.12557 19.5953 -8.41412
548 1 3.56279 8.90697 19.5953 -8.20994
645 1 3.56279 7.12557 21.3767 -8.362
646 2 5.34418 8.90697 21.3767 -6.93295
549 2 7.12557 7.12557 17.8139 -6.92205
550 1 8.90697 8.90697 17.8139 -8.86465
551 3 8.90697 7.12557 19.5953 -6.35935
552 3 7.12557 8.90697 19.5953 -6.37653
649 1 7.12557 7.12557 21.3767 -8.6537
650 3 8.90697 8.90697 21.3767 -6.29921
553 3 10.6884 7.12557 17.8139 -6.33032
554 1 12.4698 8.90697 17.8139 -8.63593
555 2 12.4698 7.12557 19.5953 -6.92515
556 3 10.6884 8.90697 19.5953 -6.35331
653 1 10.6884 7.12557 21.3767 -8.63554
654 3 12.4698 8.90697 21.3767 -6.46062
557 2 14.2511 7.12557 17.8139 -7.05013
558 1 16.0325 8.90697 17.8139 -8.46758
559 2 16.0325 7.12557 19.5953 -7.0888
560 2 14.2511 8.90697 19.5953 -7.06677
657 2 14.2511 7.12557 21.3767 -7.00691
658 1 16.0325 8.90697 21.3767 -8.30989
561 1 0 10.6884 17.8139 -8.63503
562 3 1.78139 12.4698 17.8139 -6.22011
563 3 1.78139 10.6884 19.5953 -6.14079
564 1 0 12.4698 19.5953 -8.63051
661 1 0 10.6884 21.3767 -8.42478
662 1 1.78139 12.4698 21.3767 -8.44956
565 1 3.56279 10.6884 17.8139 -8.23628
566 2 5.34418 12.4698 17.8139 -6.9164
567 1 5.34418 10.6884 19.5953 -8.37296
568 1 3.56279 12.4698 19.5953 -8.28506
665 2 3.56279 10.6884 21.3767 -6.89337
666 1 5.34418 12.4698 21.3767 -8.4463
569 3 7.12557 10.6884 17.8139 -6.29819
570 1 8.90697 12.4698 17.8139 -8.60527
571 3 8.90697 10.6884 19.5953 -6.2574
572 3 7.12557 12.4698 19.5953 -6.1699
669 3 7.12557 10.6884 21.3767 -6.3038
670 1 8.90697 12.4698 21.3767 -8.46607
573 3 10.6884 10.6884 17.8139 -6.2857
574 1 12.4698 12.4698 17.8139 -8.46715
575 3 12.4698 10.6884 19.5953 -6.38001
576 2 10.6884 12.4698 19.5953 -6.90194
673 1 10.6884 10.6884 21.3767 -8.54524
674 3 12.4698 12.4698 21.3767 -6.29176
577 2 14.2511 10.6884 17.8139 -6.99799
578 1 16.0325 12.4698 17.8139 -8.52526
579 2 16.0325 10.6884 19.5953 -7.03928
580 1 14.2511 12.4698 19.5953 -8.28478
677 2 14.2511 10.6884 21.3767 -7.02576
678 1 16.0325 12.4698 21.3767 -8.22863
581 3 0 14.2511 17.8139 -6.42274
582 3 1.78139 16.0325 17.8139 -6.51667
583 3 1.78139 14.2511 19.5953 -6.3793
584 3 0 16.0325 19.5953 -6.51822
681 3 0 14.2511 21.3767 -6.33329
682 3 1.78139 16.0325 21.3767 -6.53482
585 3 3.56279 14.2511 17.8139 -6.27533
586 2 5.34418 16.0325 17.8139 -7.01603
587 1 5.34418 14.2511 19.5953 -8.4387
588 3 3.56279 16.0325 19.5953 -6.49044
685 3 3.56279 14.2511 21.3767 -6.3128
686 3 5.34418 16.0325 21.3767 -6.17603
589 1 7.12557 14.2511 17.8139 -8.07685
590 1 8.90697 16.0325 17.8139 -8.35915
591 2 8.90697 14.2511 19.5953 -6.88897
592 3 7.12557 16.0325 19.5953 -6.16501
689 1 7.12557 14.2511 21.3767 -8.30103
690 1 8.90697 16.0325 21.3767 -8.51394
593 2 10.6884 14.2511 17.8139 -6.91321
594 3 12.4698 16.0325 17.8139 -6.31119
595 1 12.4698 14.2511 19.5953 -8.41965
596 2 10.6884 16.0325 19.5953 -6.95759
693 1 10.6884 14.2511 21.3767 -8.36475
694 3 12.4698 16.0325 21.3767 -6.40376
597 3 14.2511 14.2511 17.8139 -6.29267
598 1 16.0325 16.0325 17.8139 -8.38482
599 2 16.0325 14.2511 19.5953 -6.98718
600 2 14.2511 16.0325 19.5953 -6.92396
697 2 14.2511 14.2511 21.3767 -6.95146
698 1 16.0325 16.0325 21.3767 -8.34819
603 1 1.78139 0 23.1581 -8.39018
604 2 0 1.78139 23.1581 -6.93998
701 2 0 0 24.9395 -7.05473
702 1 1.78139 1.78139 24.9395 -8.22292
607 1 5.34418 0 23.1581 -8.52081
608 2 3.56279 1.78139 23.1581 -7.00768
703 3 3.56279 0 24.9395 -6.31716
704 1 5.34418 1.78139 24.9395 -8.30316
611 2 8.90697 0 23.1581 -7.00026
612 1 7.12557 1.78139 23.1581 -8.26995
705 2 7.12557 0 24.9395 -7.05333
706 2 8.90697 1.78139 24.9395 -7.00088
615 3 12.4698 0 23.1581 -6.41736
616 2 10.6884 1.78139 23.1581 -6.98234
707 3 10.6884 0 24.9395 -6.39625
708 1 12.4698 1.78139 24.9395 -8.42851
619 3 16.0325 0 23.1581 -6.34596
620 1 14.2511 1.78139 23.1581 -8.51844
709 2 14.2511 0 24.9395 -6.93379
710 1 16.0325 1.78139 24.9395 -8.35601
623 3 1.78139 3.56279 23.1581 -6.21786
624 1 0 5.34418 23.1581 -8.55579
711 1 0 3.56279 24.9395 -8.42785
712 3 1.78139 5.34418 24.9395 -6.22186
627 2 5.34418 3.56279 23.1581 -7.00612
628 3 3.56279 5.34418 23.1581 -6.32762
713 1 3.56279 3.56279 24.9395 -8.57762
714 2 5.34418 5.34418 24.9395 -6.97167
631 1 8.90697 3.56279 23.1581 -8.31337
632 3 7.12557 5.34418 23.1581 -6.57491
715 2 7.12557 3.56279 24.9395 -6.99957
716 2 8.90697 5.34418 24.9395 -7.05025
635 2 12.4698 3.56279 23.1581 -6.90411
636 2 10.6884 5.34418 23.1581 -7.01533
717 1 10.6884 3.56279 24.9395 -8.31408
718 1 12.4698 5.34418 24.9395 -8.37768
639 1 16.0325 3.56279 23.1581 -8.52854
640 3 14.2511 5.34418 23.1581 -6.32713
719 3 14.2511 3.56279 24.9395 -6.20104
720 2 16.0325 5.34418 24.9395 -6.96654
643 1 1.78139 7.12557 23.1581 -8.53172
644 3 0 8.90697 23.1581 -6.34819
721 3 0 7.12557 24.9395 -6.297
722 3 1.78139 8.90697 24.9395 -6.29172
647 3 5.34418 7.12557 23.1581 -6.42374
648 1 3.56279 8.90697 23.1581 -8.44584
723 3 3.56279 7.12557 24.9395 -6.36291
724 3 5.34418 8.90697 24.9395 -6.31121
651 2 8.90697 7.12557 23.1581 -6.98441
652 1 7.12557 8.90697 23.1581 -8.54415
725 2 7.12557 7.12557 24.9395 -6.94629
726 2 8.90697 8.90697 24.9395 -6.99642
655 3 12.4698 7.12557 23.1581 -6.30164
656 1 10.6884 8.90697 23.1581 -8.42756
727 2 10.6884 7.12557 24.9395 -6.99227
728 2 12.4698 8.90697 24.9395 -6.92198
659 2 16.0325 7.12557 23.1581 -7.05963
660 1 14.2511 8.90697 23.1581 -8.44392
729 1 14.2511 7.12557 24.9395 -8.3061
730 2 16.0325 8.90697 24.9395 -6.97461
663 2 1.78139 10.6884 23.1581 -6.94905
664 1 0 12.4698 23.1581 -8.33391
731 1 0 10.6884 24.9395 -8.337
732 1 1.78139 12.4698 24.9395 -8.18599
667 3 5.34418 10.6884 23.1581 -6.29312
668 3 3.56279 12.4698 23.1581 -6.26399
733 1 3.56279 10.6884 24.9395 -8.48605
734 2 5.34418 12.4698 24.9395 -6.8028
671 3 8.90697 10.6884 23.1581 -6.13236
672 3 7.12557 12.4698 23.1581 -6.15709
735 1 7.12557 10.6884 24.9395 -8.59725
736 1 8.90697 12.4698 24.9395 -8.45235
675 2 12.4698 10.6884 23.1581 -6.96808
676 1 10.6884 12.4698 23.1581 -8.22291
737 1 10.6884 10.6884 24.9395 -8.20755
738 1 12.4698 12.4698 24.9395 -8.41151
679 2 16.0325 10.6884 23.1581 -7.03808
680 1 14.2511 12.4698 23.1581 -8.5382
739 3 14.2511 10.6884 24.9395 -6.37103
740 3 16.0325 12.4698 24.9395 -6.45182
683 3 1.78139 14.2511 23.1581 -6.32637
684 2 0 16.0325 23.1581 -6.87841
741 1 0 14.2511 24.9395 -8.42523
742 3 1.78139 16.0325 24.9395 -6.33011
687 1 5.34418 14.2511 23.1581 -8.70948
688 3 3.56279 16.0325 23.1581 -6.32055
743 3 3.56279 14.2511 24.9395 -6.37097
744 3 5.34418 16.0325 24.9395 -6.27599
691 3 8.90697 14.2511 23.1581 -6.19365
692 3 7.12557 16.0325 23.1581 -6.16478
745 3 7.12557 14.2511 24.9395 -6.34813
746 3 8.90697 16.0325 24.9395 -6.39217
695 3 12.4698 14.2511 23.1581 -6.21751
696 3 10.6884 16.0325 23.1581 -6.33195
747 3 10.6884 14.2511 24.9395 -6.23672
748 1 12.4698 16.0325 24.9395 -8.75597
699 2 16.0325 14.2511 23.1581 -6.99476
700 1 14.2511 16.0325 23.1581 -8.63517
749 2 14.2511 14.2511 24.9395 -6.91167
750 3 16.0325 16.0325 24.9395 -6.41677
751 1 1.78139 0 26.7209 -8.28002
752 1 0 1.78139 26.7209 -8.18056
801 2 0 0 28.5023 -7.10635
802 2 1.78139 1.78139 28.5023 -6.94283
803 2 1.78139 0 30.2837 -7.02487
804 2 0 1.78139 30.2837 -6.9668
753 2 5.34418 0 26.7209 -6.90412
754 3 3.56279 1.78139 26.7209 -6.37799
805 3 3.56279 0 28.5023 -6.38337
806 3 5.34418 1.78139 28.5023 -6.31643
807 2 5.34418 0 30.2837 -6.90603
808 1 3.56279 1.78139 30.2837 -8.32894
755 1 8.90697 0 26.7209 -8.21084
756 1 7.12557 1.78139 26.7209 -8.40911
809 1 7.12557 0 28.5023 -8.46139
810 2 8.90697 1.78139 28.5023 -6.96953
811 1 8.90697 0 30.2837 -8.23453
812 3 7.12557 1.78139 30.2837 -6.38056
757 3 12.4698 0 26.7209 -6.2106
758 2 10.6884 1.78139 26.7209 -6.94397
813 1 10.6884 0 28.5023 -8.1459
814 1 12.4698 1.78139 28.5023 -8.20196
815 1 12.4698 0 30.2837 -7.95461
816 2 10.6884 1.78139 30.2837 -7.10942
759 2 16.0325 0 26.7209 -7.0256
760 1 14.2511 1.78139 26.7209 -8.3231
817 2 14.2511 0 28.5023 -6.9957
818 1 16.0325 1.78139 28.5023 -8.24177
819 3 16.0325 0 30.2837 -6.23791
820 2 14.2511 1.78139 30.2837 -7.00535
761 3 1.78139 3.56279 26.7209 -6.27384
762 1 0 5.34418 26.7209 -8.51167
821 2 0 3.56279 28.5023 -6.95327
822 2 1.78139 5.34418 28.5023 -6.96222
823 3 1.78139 3.56279 30.2837 -6.36359
824 3 0 5.34418 30.2837 -6.32026
763 3 5.34418 3.56279 26.7209 -6.34423
764 2 3.56279 5.34418 26.7209 -6.86702
825 1 3.56279 3.56279 28.5023 -8.59093
826 3 5.34418 5.34418 28.5023 -6.169
827 2 5.34418 3.56279 30.2837 -6.9296
828 1 3.56279 5.34418 30.2837 -8.39168
765 3 8.90697 3.56279 26.7209 -6.42507
766 1 7.12557 5.34418 26.7209 -8.46486
829 3 7.12557 3.56279 28.5023 -6.37491
830 2 8.90697 5.34418 28.5023 -7.00819
831 1 8.90697 3.56279 30.2837 -8.22888
832 1 7.12557 5.34418 30.2837 -8.37332
767 3 12.4698 3.56279 26.7209 -6.24885
768 2 10.6884 5.34418 26.7209 -6.96602
833 1 10.6884 3.56279 28.5023 -8.45523
834 3 12.4698 5.34418 28.5023 -6.42642