ITEM: TIMESTEP
0
ITEM: NUMBER OF ATOMS
4000
ITEM: BOX BOUNDS pp pp pp
0.0000000000000000e+00 3.5790759999999999e+01
0.0000000000000000e+00 3.5790759999999999e+01
0.0000000000000000e+00 3.5790759999999999e+01
ITEM: ATOMS id type x y z c_peratom
1 1 0 0 0 -8.18301
2 2 1.78954 1.78954 0 -7.03468
3 1 1.78954 0 1.78954 -8.53711
4 2 0 1.78954 1.78954 -7.00544
101 2 0 0 3.57908 -6.90881
102 3 1.78954 1.78954 3.57908 -6.37549
5 2 3.57908 0 0 -6.9518
6 1 5.36861 1.78954 0 -8.24936
7 3 5.36861 0 1.78954 -6.36629
8 2 3.57908 1.78954 1.78954 -6.99722
105 2 3.57908 0 3.57908 -6.89002
106 3 5.36861 1.78954 3.57908 -6.46639
9 1 7.15815 0 0 -8.19648
10 1 8.94769 1.78954 0 -8.22773
11 2 8.94769 0 1.78954 -6.93392
12 3 7.15815 1.78954 1.78954 -6.36022
109 3 7.15815 0 3.57908 -6.43195
110 2 8.94769 1.78954 3.57908 -6.97757
13 1 10.7372 0 0 -8.66992
14 3 12.5268 1.78954 0 -6.2594
15 3 12.5268 0 1.78954 -6.24938
16 3 10.7372 1.78954 1.78954 -6.29332
113 3 10.7372 0 3.57908 -6.3762
114 1 12.5268 1.78954 3.57908 -8.42875
17 1 14.3163 0 0 -8.47108
18 1 16.1058 1.78954 0 -8.08778
19 1 16.1058 0 1.78954 -8.19991
20 3 14.3163 1.78954 1.78954 -6.2443
117 1 14.3163 0 3.57908 -8.37498
118 2 16.1058 1.78954 3.57908 -7.00154
21 2 0 3.57908 0 -7.01772
22 2 1.78954 5.36861 0 -7.0134
23 1 1.78954 3.57908 1.78954 -8.6117
24 1 0 5.36861 1.78954 -8.26909
121 3 0 3.57908 3.57908 -6.1631
122 3 1.78954 5.36861 3.57908 -6.28901
25 3 3.57908 3.57908 0 -6.39978
26 1 5.36861 5.36861 0 -8.20197
27 2 5.36861 3.57908 1.78954 -6.9312
28 3 3.57908 5.36861 1.78954 -6.3627
125 3 3.57908 3.57908 3.57908 -6.39883
126 3 5.36861 5.36861 3.57908 -6.42383
29 1 7.15815 3.57908 0 -8.08278
30 1 8.94769 5.36861 0 -8.1744
31 2 8.94769 3.57908 1.78954 -7.00459
32 2 7.15815 5.36861 1.78954 -7.02225
129 1 7.15815 3.57908 3.57908 -8.50941
130 3 8.94769 5.36861 3.57908 -6.55348
33 1 10.7372 3.57908 0 -8.45696
34 3 12.5268 5.36861 0 -6.31877
35 3 12.5268 3.57908 1.78954 -6.27866
36 1 10.7372 5.36861 1.78954 -8.40803
133 1 10.7372 3.57908 3.57908 -8.48155
134 3 12.5268 5.36861 3.57908 -6.47773
37 1 14.3163 3.57908 0 -8.63369
38 3 16.1058 5.36861 0 -6.3042
39 2 16.1058 3.57908 1.78954 -6.94641
40 3 14.3163 5.36861 1.78954 -6.46143
137 2 14.3163 3.57908 3.57908 -6.9269
138 1 16.1058 5.36861 3.57908 -8.4141
41 2 0 7.15815 0 -7.03978
42 2 1.78954 8.94769 0 -7.05994
43 1 1.78954 7.15815 1.78954 -8.37905
44 3 0 8.94769 1.78954 -6.48322
141 2 0 7.15815 3.57908 -6.93958
142 2 1.78954 8.94769 3.57908 -6.94057
45 2 3.57908 7.15815 0 -7.0569
46 1 5.36861 8.94769 0 -8.34654
47 1 5.36861 7.15815 1.78954 -8.35337
48 2 3.57908 8.94769 1.78954 -7.03617
145 1 3.57908 7.15815 3.57908 -8.48092
146 2 5.36861 8.94769 3.57908 -6.95694
49 3 7.15815 7.15815 0 -6.35546
50 2 8.94769 8.94769 0 -7.02831
51 2 8.94769 7.15815 1.78954 -7.00209
52 2 7.15815 8.94769 1.78954 -7.0249
149 3 7.15815 7.15815 3.57908 -6.60083
150 3 8.94769 8.94769 3.57908 -6.43647
53 3 10.7372 7.15815 0 -6.4513
54 2 12.5268 8.94769 0 -7.03691
55 3 12.5268 7.15815 1.78954 -6.40176
56 1 10.7372 8.94769 1.78954 -8.49847
153 2 10.7372 7.15815 3.57908 -6.93748
154 2 12.5268 8.94769 3.57908 -6.92454
57 1 14.3163 7.15815 0 -8.47373
58 2 16.1058 8.94769 0 -6.97958
59 2 16.1058 7.15815 1.78954 -6.97865
60 1 14.3163 8.94769 1.78954 -8.26024
157 2 14.3163 7.15815 3.57908 -6.93291
158 1 16.1058 8.94769 3.57908 -8.30716
61 2 0 10.7372 0 -6.99267
62 3 1.78954 12.5268 0 -6.44322
63 1 1.78954 10.7372 1.78954 -8.61936
64 3 0 12.5268 1.78954 -6.43153
161 3 0 10.7372 3.57908 -6.43386
162 3 1.78954 12.5268 3.57908 -6.33856
65 2 3.57908 10.7372 0 -7.07899
66 2 5.36861 12.5268 0 -6.98467
67 2 5.36861 10.7372 1.78954 -7.03445
68 1 3.57908 12.5268 1.78954 -8.31368
165 3 3.57908 10.7372 3.57908 -6.45296
166 1 5.36861 12.5268 3.57908 -8.22767
69 3 7.15815 10.7372 0 -6.5376
70 1 8.94769 12.5268 0 -8.40843
71 2 8.94769 10.7372 1.78954 -7.08346
72 1 7.15815 12.5268 1.78954 -8.33154
169 1 7.15815 10.7372 3.57908 -8.20355
170 2 8.94769 12.5268 3.57908 -7.01631
73 2 10.7372 10.7372 0 -7.09718
74 1 12.5268 12.5268 0 -8.18299
75 2 12.5268 10.7372 1.78954 -7.08119
76 1 10.7372 12.5268 1.78954 -8.1782
173 1 10.7372 10.7372 3.57908 -8.23407
174 1 12.5268 12.5268 3.57908 -8.42576
77 1 14.3163 10.7372 0 -8.20306
78 2 16.1058 12.5268 0 -6.95949
79 2 16.1058 10.7372 1.78954 -7.02656
80 2 14.3163 12.5268 1.78954 -7.0669
177 3 14.3163 10.7372 3.57908 -6.42342
178 2 16.1058 12.5268 3.57908 -7.05172
81 3 0 14.3163 0 -6.47098
82 2 1.78954 16.1058 0 -6.95842
83 1 1.78954 14.3163 1.78954 -8.65738
84 3 0 16.1058 1.78954 -6.48769
181 3 0 14.3163 3.57908 -6.3945
182 3 1.78954 16.1058 3.57908 -6.48547
85 2 3.57908 14.3163 0 -6.98093
86 3 5.36861 16.1058 0 -6.52432
87 3 5.36861 14.3163 1.78954 -6.57865
88 3 3.57908 16.1058 1.78954 -6.64783
185 2 3.57908 14.3163 3.57908 -7.03179
186 2 5.36861 16.1058 3.57908 -7.15083
89 3 7.15815 14.3163 0 -6.46269
90 1 8.94769 16.1058 0 -8.22698
91 2 8.94769 14.3163 1.78954 -7.03486
92 2 7.15815 16.1058 1.78954 -7.03699
189 2 7.15815 14.3163 3.57908 -7.09915
190 2 8.94769 16.1058 3.57908 -7.07518
93 3 10.7372 14.3163 0 -6.3918
94 2 12.5268 16.1058 0 -6.98404
95 2 12.5268 14.3163 1.78954 -7.06354
96 1 10.7372 16.1058 1.78954 -8.48836
193 2 10.7372 14.3163 3.57908 -7.09687
194 3 12.5268 16.1058 3.57908 -6.51427
97 1 14.3163 14.3163 0 -8.30509
98 2 16.1058 16.1058 0 -6.94544
99 1 16.1058 14.3163 1.78954 -8.30222
100 2 14.3163 16.1058 1.78954 -6.99604
197 2 14.3163 14.3163 3.57908 -7.06541
198 2 16.1058 16.1058 3.57908 -7.03996
103 1 1.78954 0 5.36861 -8.73838
104 2 0 1.78954 5.36861 -6.87437
201 2 0 0 7.15815 -6.97088
202 3 1.78954 1.78954 7.15815 -6.43984
107 1 5.36861 0 5.36861 -8.49662
108 3 3.57908 1.78954 5.36861 -6.27284
203 3 3.57908 0 7.15815 -6.4221
204 1 5.36861 1.78954 7.15815 -8.5883
111 3 8.94769 0 5.36861 -6.45537
112 3 7.15815 1.78954 5.36861 -6.44081
205 3 7.15815 0 7.15815 -6.40056
206 2 8.94769 1.78954 7.15815 -6.97597
115 1 12.5268 0 5.36861 -8.34877
116 2 10.7372 1.78954 5.36861 -7.00366
207 1 10.7372 0 7.15815 -8.34843
208 3 12.5268 1.78954 7.15815 -6.38751
119 2 16.1058 0 5.36861 -6.89927
120 3 14.3163 1.78954 5.36861 -6.39448
209 3 14.3163 0 7.15815 -6.37612
210 1 16.1058 1.78954 7.15815 -8.21661
123 1 1.78954 3.57908 5.36861 -8.70571
124 1 0 5.36861 5.36861 -8.45627
211 3 0 3.57908 7.15815 -6.3416
212 3 1.78954 5.36861 7.15815 -6.37687
127 1 5.36861 3.57908 5.36861 -8.58519
128 2 3.57908 5.36861 5.36861 -6.87458
213 3 3.57908 3.57908 7.15815 -6.38401
214 2 5.36861 5.36861 7.15815 -6.95591
131 2 8.94769 3.57908 5.36861 -6.98849
132 2 7.15815 5.36861 5.36861 -7.0433
215 3 7.15815 3.57908 7.15815 -6.56094
216 2 8.94769 5.36861 7.15815 -7.0525
135 2 12.5268 3.57908 5.36861 -6.94141
136 3 10.7372 5.36861 5.36861 -6.56006
217 1 10.7372 3.57908 7.15815 -8.31835
218 1 12.5268 5.36861 7.15815 -8.26069
139 2 16.1058 3.57908 5.36861 -7.06284
140 1 14.3163 5.36861 5.36861 -8.26967
219 2 14.3163 3.57908 7.15815 -7.09427
220 1 16.1058 5.36861 7.15815 -8.28467
143 3 1.78954 7.15815 5.36861 -6.44301
144 3 0 8.94769 5.36861 -6.43031
221 2 0 7.15815 7.15815 -6.98056
222 1 1.78954 8.94769 7.15815 -8.51711
147 3 5.36861 7.15815 5.36861 -6.48748
148 3 3.57908 8.94769 5.36861 -6.41142
223 1 3.57908 7.15815 7.15815 -8.56558
224 1 5.36861 8.94769 7.15815 -8.42008
151 2 8.94769 7.15815 5.36861 -7.04129
152 1 7.15815 8.94769 5.36861 -8.47671
225 3 7.15815 7.15815 7.15815 -6.56499
226 2 8.94769 8.94769 7.15815 -6.95103
155 3 12.5268 7.15815 5.36861 -6.39789
156 1 10.7372 8.94769 5.36861 -8.48571
227 3 10.7372 7.15815 7.15815 -6.54416
228 1 12.5268 8.94769 7.15815 -8.53874
159 3 16.1058 7.15815 5.36861 -6.26451
160 3 14.3163 8.94769 5.36861 -6.38692
229 2 14.3163 7.15815 7.15815 -6.93189
230 1 16.1058 8.94769 7.15815 -8.3475
163 1 1.78954 10.7372 5.36861 -8.61585
164 3 0 12.5268 5.36861 -6.40874
231 2 0 10.7372 7.15815 -6.91847
232 3 1.78954 12.5268 7.15815 -6.54971
167 2 5.36861 10.7372 5.36861 -7.03693
168 2 3.57908 12.5268 5.36861 -7.01158
233 2 3.57908 10.7372 7.15815 -6.99005
234 3 5.36861 12.5268 7.15815 -6.56545
171 3 8.94769 10.7372 5.36861 -6.36262
172 1 7.15815 12.5268 5.36861 -8.31855
235 2 7.15815 10.7372 7.15815 -6.94399
236 3 8.94769 12.5268 7.15815 -6.5397
175 3 12.5268 10.7372 5.36861 -6.36917
176 2 10.7372 12.5268 5.36861 -6.96238
237 3 10.7372 10.7372 7.15815 -6.52802
238 1 12.5268 12.5268 7.15815 -8.57964
179 1 16.1058 10.7372 5.36861 -8.26917
180 3 14.3163 12.5268 5.36861 -6.45315
239 2 14.3163 10.7372 7.15815 -6.95225
240 1 16.1058 12.5268 7.15815 -8.40823
183 1 1.78954 14.3163 5.36861 -8.4398
184 1 0 16.1058 5.36861 -8.37554
241 1 0 14.3163 7.15815 -8.56419
242 1 1.78954 16.1058 7.15815 -8.21294
187 2 5.36861 14.3163 5.36861 -7.10341
188 2 3.57908 16.1058 5.36861 -7.08437
243 2 3.57908 14.3163 7.15815 -7.02452
244 3 5.36861 16.1058 7.15815 -6.54526
191 1 8.94769 14.3163 5.36861 -8.47616
192 3 7.15815 16.1058 5.36861 -6.62407
245 2 7.15815 14.3163 7.15815 -6.96095
246 2 8.94769 16.1058 7.15815 -7.09198
195 2 12.5268 14.3163 5.36861 -7.03547
196 2 10.7372 16.1058 5.36861 -7.1102
247 3 10.7372 14.3163 7.15815 -6.58192
248 2 12.5268 16.1058 7.15815 -7.04178
199 2 16.1058 14.3163 5.36861 -7.10352
200 1 14.3163 16.1058 5.36861 -8.51923
249 3 14.3163 14.3163 7.15815 -6.49277
250 2 16.1058 16.1058 7.15815 -7.08733
251 3 1.78954 0 8.94769 -6.48806
252 2 0 1.78954 8.94769 -6.95385
301 1 0 0 10.7372 -8.54541
302 3 1.78954 1.78954 10.7372 -6.31133
303 1 1.78954 0 12.5268 -8.26269
304 3 0 1.78954 12.5268 -6.35043
253 2 5.36861 0 8.94769 -6.85204
254 3 3.57908 1.78954 8.94769 -6.38113
305 1 3.57908 0 10.7372 -8.33682
306 3 5.36861 1.78954 10.7372 -6.27311
307 1 5.36861 0 12.5268 -8.20115
308 3 3.57908 1.78954 12.5268 -6.10818
255 3 8.94769 0 8.94769 -6.38102
256 3 7.15815 1.78954 8.94769 -6.37109
309 1 7.15815 0 10.7372 -8.38227
310 3 8.94769 1.78954 10.7372 -6.34597
311 1 8.94769 0 12.5268 -8.36936
312 3 7.15815 1.78954 12.5268 -6.19114
257 1 12.5268 0 8.94769 -8.35134
258 2 10.7372 1.78954 8.94769 -7.01447
313 2 10.7372 0 10.7372 -7.00127
314 2 12.5268 1.78954 10.7372 -7.12108
315 2 12.5268 0 12.5268 -7.07922
316 2 10.7372 1.78954 12.5268 -7.07303
259 1 16.1058 0 8.94769 -8.34241
260 2 14.3163 1.78954 8.94769 -7.01822
317 2 14.3163 0 10.7372 -7.07462
318 2 16.1058 1.78954 10.7372 -7.02801
319 1 16.1058 0 12.5268 -8.34965
320 3 14.3163 1.78954 12.5268 -6.56524
261 1 1.78954 3.57908 8.94769 -8.74258
262 1 0 5.36861 8.94769 -8.62498
321 3 0 3.57908 10.7372 -6.46118
322 2 1.78954 5.36861 10.7372 -6.84584
323 1 1.78954 3.57908 12.5268 -8.75349
324 3 0 5.36861 12.5268 -6.36604
263 2 5.36861 3.57908 8.94769 -6.84351
264 3 3.57908 5.36861 8.94769 -6.44367
325 3 3.57908 3.57908 10.7372 -6.34085
326 1 5.36861 5.36861 10.7372 -8.47862
327 1 5.36861 3.57908 12.5268 -8.53186
328 3 3.57908 5.36861 12.5268 -6.37917
265 1 8.94769 3.57908 8.94769 -8.35404
266 2 7.15815 5.36861 8.94769 -7.03344
329 1 7.15815 3.57908 10.7372 -8.35832
330 2 8.94769 5.36861 10.7372 -7.00256
331 2 8.94769 3.57908 12.5268 -6.93632
332 2 7.15815 5.36861 12.5268 -6.98114
267 1 12.5268 3.57908 8.94769 -8.19274
268 3 10.7372 5.36861 8.94769 -6.49969
333 1 10.7372 3.57908 10.7372 -8.43036
334 2 12.5268 5.36861 10.7372 -7.029
335 3 12.5268 3.57908 12.5268 -6.65024
336 2 10.7372 5.36861 12.5268 -7.0224
269 1 16.1058 3.57908 8.94769 -8.1413
270 1 14.3163 5.36861 8.94769 -8.0373
337 2 14.3163 3.57908 10.7372 -7.03833
338 2 16.1058 5.36861 10.7372 -7.07191
339 1 16.1058 3.57908 12.5268 -8.59284
340 3 14.3163 5.36861 12.5268 -6.61576
271 3 1.78954 7.15815 8.94769 -6.5209
272 2 0 8.94769 8.94769 -7.00384
341 3 0 7.15815 10.7372 -6.56055
342 2 1.78954 8.94769 10.7372 -6.9871
343 3 1.78954 7.15815 12.5268 -6.52353
344 3 0 8.94769 12.5268 -6.34893
273 3 5.36861 7.15815 8.94769 -6.37401
274 3 3.57908 8.94769 8.94769 -6.48467
345 3 3.57908 7.15815 10.7372 -6.57393
346 3 5.36861 8.94769 10.7372 -6.50124
347 3 5.36861 7.15815 12.5268 -6.47662
348 2 3.57908 8.94769 12.5268 -6.97797
275 3 8.94769 7.15815 8.94769 -6.63202
276 1 7.15815 8.94769 8.94769 -8.49956
349 1 7.15815 7.15815 10.7372 -8.27997
350 2 8.94769 8.94769 10.7372 -7.07029
351 1 8.94769 7.15815 12.5268 -8.11503
352 2 7.15815 8.94769 12.5268 -6.99007
277 2 12.5268 7.15815 8.94769 -7.07464
278 2 10.7372 8.94769 8.94769 -7.07283
353 2 10.7372 7.15815 10.7372 -7.09071
354 2 12.5268 8.94769 10.7372 -7.01614
355 3 12.5268 7.15815 12.5268 -6.62423
356 1 10.7372 8.94769 12.5268 -8.51802
279 3 16.1058 7.15815 8.94769 -6.45277
280 1 14.3163 8.94769 8.94769 -8.12138
357 1 14.3163 7.15815 10.7372 -8.45759
358 2 16.1058 8.94769 10.7372 -6.96366
359 2 16.1058 7.15815 12.5268 -6.98779
360 2 14.3163 8.94769 12.5268 -6.95996
281 3 1.78954 10.7372 8.94769 -6.53925
282 3 0 12.5268 8.94769 -6.474
361 1 0 10.7372 10.7372 -8.44552
362 1 1.78954 12.5268 10.7372 -8.58736
363 2 1.78954 10.7372 12.5268 -6.95077
364 2 0 12.5268 12.5268 -7.02081
283 3 5.36861 10.7372 8.94769 -6.52632
284 2 3.57908 12.5268 8.94769 -7.01267
365 3 3.57908 10.7372 10.7372 -6.57614
366 2 5.36861 12.5268 10.7372 -6.95482
367 1 5.36861 10.7372 12.5268 -8.48543
368 3 3.57908 12.5268 12.5268 -6.45473
285 2 8.94769 10.7372 8.94769 -7.11168
286 1 7.15815 12.5268 8.94769 -8.55289
369 3 7.15815 10.7372 10.7372 -6.53714
370 2 8.94769 12.5268 10.7372 -7.08543
371 2 8.94769 10.7372 12.5268 -7.04689
372 3 7.15815 12.5268 12.5268 -6.48257
287 3 12.5268 10.7372 8.94769 -6.52302
288 2 10.7372 12.5268 8.94769 -7.0317
373 2 10.7372 10.7372 10.7372 -7.14205
374 3 12.5268 12.5268 10.7372 -6.62354
375 3 12.5268 10.7372 12.5268 -6.60215
376 2 10.7372 12.5268 12.5268 -7.03439
289 1 16.1058 10.7372 8.94769 -8.26204
290 2 14.3163 12.5268 8.94769 -6.95662
377 1 14.3163 10.7372 10.7372 -8.54302
378 3 16.1058 12.5268 10.7372 -6.49429
379 3 16.1058 10.7372 12.5268 -6.39653
380 3 14.3163 12.5268 12.5268 -6.52718
291 3 1.78954 14.3163 8.94769 -6.43224
292 2 0 16.1058 8.94769 -6.93517
381 2 0 14.3163 10.7372 -6.95627
382 1 1.78954 16.1058 10.7372 -8.34109
383 3 1.78954 14.3163 12.5268 -6.47059
384 1 0 16.1058 12.5268 -8.16958
293 1 5.36861 14.3163 8.94769 -8.26716
294 1 3.57908 16.1058 8.94769 -8.23199
385 2 3.57908 14.3163 10.7372 -6.99633
386 2 5.36861 16.1058 10.7372 -7.01137
387 1 5.36861 14.3163 12.5268 -8.45956
388 3 3.57908 16.1058 12.5268 -6.4177
295 3 8.94769 14.3163 8.94769 -6.64524
296 1 7.15815 16.1058 8.94769 -8.40778
389 2 7.15815 14.3163 10.7372 -7.06536
390 2 8.94769 16.1058 10.7372 -7.03141
391 1 8.94769 14.3163 12.5268 -8.46012
392 2 7.15815 16.1058 12.5268 -7.06687
297 1 12.5268 14.3163 8.94769 -8.40098
298 2 10.7372 16.1058 8.94769 -7.07121
393 3 10.7372 14.3163 10.7372 -6.6123
394 2 12.5268 16.1058 10.7372 -6.99818
395 3 12.5268 14.3163 12.5268 -6.65078
396 3 10.7372 16.1058 12.5268 -6.49544
299 2 16.1058 14.3163 8.94769 -7.0022
300 1 14.3163 16.1058 8.94769 -8.3062
397 2 14.3163 14.3163 10.7372 -7.00382
398 1 16.1058 16.1058 10.7372 -8.45965
399 3 16.1058 14.3163 12.5268 -6.44108
400 2 14.3163 16.1058 12.5268 -6.93396
401 2 0 0 14.3163 -6.87432
402 1 1.78954 1.78954 14.3163 -8.31242
403 3 1.78954 0 16.1058 -6.22085
404 1 0 1.78954 16.1058 -8.20915
405 3 3.57908 0 14.3163 -6.17415
406 1 5.36861 1.78954 14.3163 -8.2838
407 3 5.36861 0 16.1058 -6.33709
408 1 3.57908 1.78954 16.1058 -8.58344
409 1 7.15815 0 14.3163 -8.30066
410 3 8.94769 1.78954 14.3163 -6.43559
411 1 8.94769 0 16.1058 -8.38621
412 2 7.15815 1.78954 16.1058 -6.94788
413 3 10.7372 0 14.3163 -6.50826
414 2 12.5268 1.78954 14.3163 -7.01628
415 2 12.5268 0 16.1058 -7.08647
416 3 10.7372 1.78954 16.1058 -6.59317
417 1 14.3163 0 14.3163 -8.24908
418 2 16.1058 1.78954 14.3163 -6.9969
419 2 16.1058 0 16.1058 -6.9675
420 3 14.3163 1.78954 16.1058 -6.61468
421 3 0 3.57908 14.3163 -6.27429
422 3 1.78954 5.36861 14.3163 -6.40703
423 3 1.78954 3.57908 16.1058 -6.35188
424 3 0 5.36861 16.1058 -6.38365
425 3 3.57908 3.57908 14.3163 -6.30439
426 3 5.36861 5.36861 14.3163 -6.45714
427 3 5.36861 3.57908 16.1058 -6.39252
428 3 3.57908 5.36861 16.1058 -6.51392
429 3 7.15815 3.57908 14.3163 -6.39592
430 1 8.94769 5.36861 14.3163 -8.30173
431 2 8.94769 3.57908 16.1058 -6.9627
432 1 7.15815 5.36861 16.1058 -8.39675
433 1 10.7372 3.57908 14.3163 -8.49789
434 3 12.5268 5.36861 14.3163 -6.63086
435 2 12.5268 3.57908 16.1058 -7.01164
436 3 10.7372 5.36861 16.1058 -6.47228
437 3 14.3163 3.57908 14.3163 -6.59158
438 3 16.1058 5.36861 14.3163 -6.4379
439 1 16.1058 3.57908 16.1058 -8.65686
440 3 14.3163 5.36861 16.1058 -6.5599
441 1 0 7.15815 14.3163 -8.66057
442 3 1.78954 8.94769 14.3163 -6.35591
443 3 1.78954 7.15815 16.1058 -6.49204
444 3 0 8.94769 16.1058 -6.49805
445 1 3.57908 7.15815 14.3163 -8.84047
446 2 5.36861 8.94769 14.3163 -6.99021
447 3 5.36861 7.15815 16.1058 -6.4916
448 3 3.57908 8.94769 16.1058 -6.55565
449 2 7.15815 7.15815 14.3163 -6.9892
450 1 8.94769 8.94769 14.3163 -8.38321
451 3 8.94769 7.15815 16.1058 -6.33075
452 1 7.15815 8.94769 16.1058 -8.44209
453 3 10.7372 7.15815 14.3163 -6.48386
454 3 12.5268 8.94769 14.3163 -6.56676
455 2 12.5268 7.15815 16.1058 -6.96355
456 3 10.7372 8.94769 16.1058 -6.39446
457 2 14.3163 7.15815 14.3163 -7.00803
458 3 16.1058 8.94769 14.3163 -6.54732
459 1 16.1058 7.15815 16.1058 -8.53667
460 2 14.3163 8.94769 16.1058 -6.96475
461 1 0 10.7372 14.3163 -8.54232
462 2 1.78954 12.5268 14.3163 -6.93427
463 3 1.78954 10.7372 16.1058 -6.47468
464 2 0 12.5268 16.1058 -6.94411
465 1 3.57908 10.7372 14.3163 -8.49457
466 1 5.36861 12.5268 14.3163 -8.22642
467 2 5.36861 10.7372 16.1058 -7.03115
468 3 3.57908 12.5268 16.1058 -6.46724
469 2 7.15815 10.7372 14.3163 -7.05807
470 1 8.94769 12.5268 14.3163 -8.38423
471 2 8.94769 10.7372 16.1058 -6.99683
472 1 7.15815 12.5268 16.1058 -8.18677
473 3 10.7372 10.7372 14.3163 -6.46774
474 3 12.5268 12.5268 14.3163 -6.64726
475 1 12.5268 10.7372 16.1058 -8.51385
476 3 10.7372 12.5268 16.1058 -6.51344
477 3 14.3163 10.7372 14.3163 -6.5572
478 1 16.1058 12.5268 14.3163 -8.55062
479 3 16.1058 10.7372 16.1058 -6.5099
480 2 14.3163 12.5268 16.1058 -7.02102
481 1 0 14.3163 14.3163 -8.30143
482 3 1.78954 16.1058 14.3163 -6.47013
483 2 1.78954 14.3163 16.1058 -7.03732
484 3 0 16.1058 16.1058 -6.37954
485 2 3.57908 14.3163 14.3163 -7.08097
486 2 5.36861 16.1058 14.3163 -7.13166
487 2 5.36861 14.3163 16.1058 -7.11929
488 2 3.57908 16.1058 16.1058 -7.14929
489 2 7.15815 14.3163 14.3163 -7.14335
490 2 8.94769 16.1058 14.3163 -7.03726
491 2 8.94769 14.3163 16.1058 -7.08078
492 2 7.15815 16.1058 16.1058 -7.13771
493 2 10.7372 14.3163 14.3163 -6.98449
494 1 12.5268 16.1058 14.3163 -8.64399
495 3 12.5268 14.3163 16.1058 -6.6259
496 3 10.7372 16.1058 16.1058 -6.50688
497 3 14.3163 14.3163 14.3163 -6.56403
498 2 16.1058 16.1058 14.3163 -6.96021
499 2 16.1058 14.3163 16.1058 -7.04217
500 2 14.3163 16.1058 16.1058 -7.04708
501 1 0 0 17.8954 -8.28992
502 3 1.78954 1.78954 17.8954 -6.31973
503 2 1.78954 0 19.6849 -7.00215
504 3 0 1.78954 19.6849 -6.27611
601 1 0 0 21.4745 -8.53599
602 2 1.78954 1.78954 21.4745 -6.98046
505 2 3.57908 0 17.8954 -6.88818
506 3 5.36861 1.78954 17.8954 -6.57957
507 3 5.36861 0 19.6849 -6.4913
508 1 3.57908 1.78954 19.6849 -8.69156
605 3 3.57908 0 21.4745 -6.41109
606 2 5.36861 1.78954 21.4745 -6.96986
509 2 7.15815 0 17.8954 -6.91012
510 3 8.94769 1.78954 17.8954 -6.58157
511 3 8.94769 0 19.6849 -6.47111
512 3 7.15815 1.78954 19.6849 -6.62983
609 1 7.15815 0 21.4745 -8.61765
610 2 8.94769 1.78954 21.4745 -6.93358
513 2 10.7372 0 17.8954 -7.02043
514 2 12.5268 1.78954 17.8954 -7.09397
515 2 12.5268 0 19.6849 -7.06253
516 1 10.7372 1.78954 19.6849 -8.67339
613 2 10.7372 0 21.4745 -6.96793
614 3 12.5268 1.78954 21.4745 -6.43933
517 2 14.3163 0 17.8954 -7.0868
518 3 16.1058 1.78954 17.8954 -6.46372
519 1 16.1058 0 19.6849 -8.63725
520 2 14.3163 1.78954 19.6849 -6.9556
617 3 14.3163 0 21.4745 -6.35342
618 1 16.1058 1.78954 21.4745 -8.2155
521 1 0 3.57908 17.8954 -8.3586
522 3 1.78954 5.36861 17.8954 -6.51347
523 3 1.78954 3.57908 19.6849 -6.35407
524 1 0 5.36861 19.6849 -8.23639
621 1 0 3.57908 21.4745 -8.26043
622 1 1.78954 5.36861 21.4745 -8.24887
525 2 3.57908 3.57908 17.8954 -6.90876
526 1 5.36861 5.36861 17.8954 -8.54932
527 2 5.36861 3.57908 19.6849 -7.00794
528 2 3.57908 5.36861 19.6849 -6.90187
625 3 3.57908 3.57908 21.4745 -6.44494
626 3 5.36861 5.36861 21.4745 -6.43997
529 2 7.15815 3.57908 17.8954 -7.00326
530 1 8.94769 5.36861 17.8954 -8.52838
531 3 8.94769 3.57908 19.6849 -6.4632
532 3 7.15815 5.36861 19.6849 -6.42031
629 3 7.15815 3.57908 21.4745 -6.44286
630 1 8.94769 5.36861 21.4745 -8.31648
533 3 10.7372 3.57908 17.8954 -6.57668
534 2 12.5268 5.36861 17.8954 -6.94184
535 3 12.5268 3.57908 19.6849 -6.45108
536 3 10.7372 5.36861 19.6849 -6.38868
633 3 10.7372 3.57908 21.4745 -6.39751
634 1 12.5268 5.36861 21.4745 -8.54046
537 3 14.3163 3.57908 17.8954 -6.54006
538 2 16.1058 5.36861 17.8954 -6.88986
539 1 16.1058 3.57908 19.6849 -8.3637
540 1 14.3163 5.36861 19.6849 -8.29914
637 3 14.3163 3.57908 21.4745 -6.23893
638 1 16.1058 5.36861 21.4745 -8.29874
541 2 0 7.15815 17.8954 -6.94305
542 2 1.78954 8.94769 17.8954 -6.95573
543 3 1.78954 7.15815 19.6849 -6.39841
544 1 0 8.94769 19.6849 -8.51891
641 2 0 7.15815 21.4745 -6.90711
642 3 1.78954 8.94769 21.4745 -6.29561
545 2 3.57908 7.15815 17.8954 -6.94898
546 2 5.36861 8.94769 17.8954 -7.01244
547 3 5.36861 7.15815 19.6849 -6.42887
548 1 3.57908 8.94769 19.6849 -8.35308
645 1 3.57908 7.15815 21.4745 -8.40826
646 2 5.36861 8.94769 21.4745 -7.00538
549 2 7.15815 7.15815 17.8954 -6.95334
550 2 8.94769 8.94769 17.8954 -7.0154
551 2 8.94769 7.15815 19.6849 -6.99367
552 1 7.15815 8.94769 19.6849 -8.21138
649 1 7.15815 7.15815 21.4745 -8.3226
650 2 8.94769 8.94769 21.4745 -7.0357
553 1 10.7372 7.15815 17.8954 -8.41645
554 1 12.5268 8.94769 17.8954 -8.31234
555 2 12.5268 7.15815 19.6849 -6.9567
556 2 10.7372 8.94769 19.6849 -7.0307
653 1 10.7372 7.15815 21.4745 -8.16586
654 2 12.5268 8.94769 21.4745 -6.97695
557 3 14.3163 7.15815 17.8954 -6.41555
558 1 16.1058 8.94769 17.8954 -8.51083
559 1 16.1058 7.15815 19.6849 -8.44658
560 3 14.3163 8.94769 19.6849 -6.41486
657 3 14.3163 7.15815 21.4745 -6.3277
658 2 16.1058 8.94769 21.4745 -6.89873
561 3 0 10.7372 17.8954 -6.36032
562 1 1.78954 12.5268 17.8954 -8.53772
563 1 1.78954 10.7372 19.6849 -8.15251
564 1 0 12.5268 19.6849 -8.34971
661 1 0 10.7372 21.4745 -8.36217
662 3 1.78954 12.5268 21.4745 -6.2542
565 3 3.57908 10.7372 17.8954 -6.42359
566 1 5.36861 12.5268 17.8954 -8.26328
567 1 5.36861 10.7372 19.6849 -8.14869
568 2 3.57908 12.5268 19.6849 -6.97644
665 2 3.57908 10.7372 21.4745 -6.9929
666 2 5.36861 12.5268 21.4745 -7.07857
569 2 7.15815 10.7372 17.8954 -7.06536
570 3 8.94769 12.5268 17.8954 -6.37848
571 1 8.94769 10.7372 19.6849 -8.22829
572 1 7.15815 12.5268 19.6849 -8.19468
669 2 7.15815 10.7372 21.4745 -7.03319
670 3 8.94769 12.5268 21.4745 -6.32627
573 1 10.7372 10.7372 17.8954 -8.21896
574 2 12.5268 12.5268 17.8954 -7.03163
575 1 12.5268 10.7372 19.6849 -8.36156
576 1 10.7372 12.5268 19.6849 -8.15464
673 3 10.7372 10.7372 21.4745 -6.31433
674 2 12.5268 12.5268 21.4745 -7.03981
577 2 14.3163 10.7372 17.8954 -7.0443
578 3 16.1058 12.5268 17.8954 -6.62085
579 2 16.1058 10.7372 19.6849 -6.97112
580 2 14.3163 12.5268 19.6849 -7.06015
677 3 14.3163 10.7372 21.4745 -6.50732
678 3 16.1058 12.5268 21.4745 -6.41456
581 3 0 14.3163 17.8954 -6.21322
582 1 1.78954 16.1058 17.8954 -8.40334
583 3 1.78954 14.3163 19.6849 -6.32257
584 1 0 16.1058 19.6849 -8.32385
681 3 0 14.3163 21.4745 -6.18512
682 3 1.78954 16.1058 21.4745 -6.18997
585 2 3.57908 14.3163 17.8954 -7.02326
586 1 5.36861 16.1058 17.8954 -8.32763
587 2 5.36861 14.3163 19.6849 -7.04298
588 2 3.57908 16.1058 19.6849 -6.92375
685 1 3.57908 14.3163 21.4745 -8.51461
686 3 5.36861 16.1058 21.4745 -6.41082
589 2 7.15815 14.3163 17.8954 -7.07019
590 3 8.94769 16.1058 17.8954 -6.40543
591 1 8.94769 14.3163 19.6849 -8.3715
592 1 7.15815 16.1058 19.6849 -8.26358
689 2 7.15815 14.3163 21.4745 -7.02485
690 2 8.94769 16.1058 21.4745 -7.03225
593 2 10.7372 14.3163 17.8954 -7.01004
594 1 12.5268 16.1058 17.8954 -8.35855
595 1 12.5268 14.3163 19.6849 -8.34828
596 3 10.7372 16.1058 19.6849 -6.32079
693 2 10.7372 14.3163 21.4745 -7.06419
694 2 12.5268 16.1058 21.4745 -6.96651
597 2 14.3163 14.3163 17.8954 -7.09744
598 2 16.1058 16.1058 17.8954 -7.01548
599 3 16.1058 14.3163 19.6849 -6.46081
600 2 14.3163 16.1058 19.6849 -7.07432
697 3 14.3163 14.3163 21.4745 -6.48075
698 1 16.1058 16.1058 21.4745 -8.27304
603 1 1.78954 0 23.264 -8.32638
604 2 0 1.78954 23.264 -6.97869
701 1 0 0 25.0535 -8.40279
702 2 1.78954 1.78954 25.0535 -7.0486
607 1 5.36861 0 23.264 -8.16366
608 1 3.57908 1.78954 23.264 -8.34946
703 3 3.57908 0 25.0535 -6.48526
704 1 5.36861 1.78954 25.0535 -8.26765
611 2 8.94769 0 23.264 -6.95991
612 2 7.15815 1.78954 23.264 -7.03519
705 1 7.15815 0 25.0535 -8.22615
706 1 8.94769 1.78954 25.0535 -8.12368
615 1 12.5268 0 23.264 -8.35361
616 3 10.7372 1.78954 23.264 -6.42697
707 1 10.7372 0 25.0535 -8.28647
708 2 12.5268 1.78954 25.0535 -6.98504
619 1 16.1058 0 23.264 -8.36449
620 1 14.3163 1.78954 23.264 -8.34661
709 2 14.3163 0 25.0535 -7.01619
710 3 16.1058 1.78954 25.0535 -6.26226
623 3 1.78954 3.57908 23.264 -6.47758
624 2 0 5.36861 23.264 -7.02465
711 2 0 3.57908 25.0535 -6.99917
712 1 1.78954 5.36861 25.0535 -8.5693
627 1 5.36861 3.57908 23.264 -8.31301
628 2 3.57908 5.36861 23.264 -6.92156
713 2 3.57908 3.57908 25.0535 -7.01122
714 2 5.36861 5.36861 25.0535 -6.93607
631 1 8.94769 3.57908 23.264 -8.26995
632 1 7.15815 5.36861 23.264 -8.27656
715 2 7.15815 3.57908 25.0535 -7.03294
716 3 8.94769 5.36861 25.0535 -6.25244
635 3 12.5268 3.57908 23.264 -6.41017
636 2 10.7372 5.36861 23.264 -6.93541
717 1 10.7372 3.57908 25.0535 -8.25532
718 3 12.5268 5.36861 25.0535 -6.48956
639 1 16.1058 3.57908 23.264 -8.35474
640 3 14.3163 5.36861 23.264 -6.38249
719 3 14.3163 3.57908 25.0535 -6.37302
720 3 16.1058 5.36861 25.0535 -6.31933
643 1 1.78954 7.15815 23.264 -8.24173
644 3 0 8.94769 23.264 -6.25826
721 1 0 7.15815 25.0535 -8.34108
722 3 1.78954 8.94769 25.0535 -6.41728
647 3 5.36861 7.15815 23.264 -6.43698
648 2 3.57908 8.94769 23.264 -6.94345
723 3 3.57908 7.15815 25.0535 -6.4758
724 1 5.36861 8.94769 25.0535 -8.66536
651 1 8.94769 7.15815 23.264 -8.25159
652 3 7.15815 8.94769 23.264 -6.38599
725 3 7.15815 7.15815 25.0535 -6.3687
726 2 8.94769 8.94769 25.0535 -6.99065
655 2 12.5268 7.15815 23.264 -6.97417
656 1 10.7372 8.94769 23.264 -8.35083
727 2 10.7372 7.15815 25.0535 -6.97039
728 3 12.5268 8.94769 25.0535 -6.39234
659 1 16.1058 7.15815 23.264 -8.49934
660 1 14.3163 8.94769 23.264 -8.4839
729 2 14.3163 7.15815 25.0535 -6.9526
730 3 16.1058 8.94769 25.0535 -6.45553
663 3 1.78954 10.7372 23.264 -6.4457
664 1 0 12.5268 23.264 -8.28169
731 1 0 10.7372 25.0535 -8.37673
732 2 1.78954 12.5268 25.0535 -7.00076
667 3 5.36861 10.7372 23.264 -6.63492
668 3 3.57908 12.5268 23.264 -6.59961
733 3 3.57908 10.7372 25.0535 -6.68219
734 2 5.36861 12.5268 25.0535 -7.09122
671 1 8.94769 10.7372 23.264 -8.28778
672 2 7.15815 12.5268 23.264 -7.03373
735 1 7.15815 10.7372 25.0535 -8.3954
736 3 8.94769 12.5268 25.0535 -6.41913
675 3 12.5268 10.7372 23.264 -6.5162
676 1 10.7372 12.5268 23.264 -8.5581
737 2 10.7372 10.7372 25.0535 -6.88715
738 3 12.5268 12.5268 25.0535 -6.56808
679 1 16.1058 10.7372 23.264 -8.34685
680 2 14.3163 12.5268 23.264 -6.98675
739 2 14.3163 10.7372 25.0535 -7.00134
740 3 16.1058 12.5268 25.0535 -6.57047
683 1 1.78954 14.3163 23.264 -8.31358
684 1 0 16.1058 23.264 -8.30725
741 3 0 14.3163 25.0535 -6.40898
742 2 1.78954 16.1058 25.0535 -6.95813
687 3 5.36861 14.3163 23.264 -6.56806
688 1 3.57908 16.1058 23.264 -8.48688
743 3 3.57908 14.3163 25.0535 -6.637
744 3 5.36861 16.1058 25.0535 -6.56783
691 2 8.94769 14.3163 23.264 -7.00006
692 1 7.15815 16.1058 23.264 -8.66273
745 3 7.15815 14.3163 25.0535 -6.62501
746 3 8.94769 16.1058 25.0535 -6.54743
695 2 12.5268 14.3163 23.264 -7.02081
696 3 10.7372 16.1058 23.264 -6.50868
747 2 10.7372 14.3163 25.0535 -7.00083
748 1 12.5268 16.1058 25.0535 -8.36395
699 1 16.1058 14.3163 23.264 -8.33837
700 3 14.3163 16.1058 23.264 -6.23557
749 3 14.3163 14.3163 25.0535 -6.53525
750 1 16.1058 16.1058 25.0535 -8.29669
751 2 1.78954 0 26.8431 -7.09851
752 3 0 1.78954 26.8431 -6.57994
801 3 0 0 28.6326 -6.44625
802 2 1.78954 1.78954 28.6326 -6.96608
803 3 1.78954 0 30.4221 -6.44865
804 1 0 1.78954 30.4221 -8.29328
753 2 5.36861 0 26.8431 -6.99241
754 2 3.57908 1.78954 26.8431 -7.07499
805 2 3.57908 0 28.6326 -7.09753
806 1 5.36861 1.78954 28.6326 -8.34553
807 2 5.36861 0 30.4221 -7.00315
808 3 3.57908 1.78954 30.4221 -6.45229
755 2 8.94769 0 26.8431 -7.0598
756 2 7.15815 1.78954 26.8431 -6.97952
809 3 7.15815 0 28.6326 -6.36196
810 1 8.94769 1.78954 28.6326 -8.39508
811 3 8.94769 0 30.4221 -6.29268
812 1 7.15815 1.78954 30.4221 -8.04562
757 2 12.5268 0 26.8431 -6.98371
758 1 10.7372 1.78954 26.8431 -8.2889
813 3 10.7372 0 28.6326 -6.56102
814 3 12.5268 1.78954 28.6326 -6.50877
815 3 12.5268 0 30.4221 -6.46179
816 2 10.7372 1.78954 30.4221 -6.91915
759 1 16.1058 0 26.8431 -8.42504
760 1 14.3163 1.78954 26.8431 -8.40653
817 1 14.3163 0 28.6326 -8.59765
818 3 16.1058 1.78954 28.6326 -6.42507
819 3 16.1058 0 30.4221 -6.45917
820 3 14.3163 1.78954 30.4221 -6.428
761 3 1.78954 3.57908 26.8431 -6.58747
762 3 0 5.36861 26.8431 -6.4339
821 3 0 3.57908 28.6326 -6.44565
822 2 1.78954 5.36861 28.6326 -6.93199
823 1 1.78954 3.57908 30.4221 -8.32347
824 2 0 5.36861 30.4221 -7.0262
763 3 5.36861 3.57908 26.8431 -6.4722
764 3 3.57908 5.36861 26.8431 -6.46255
825 1 3.57908 3.57908 28.6326 -8.45792
826 3 5.36861 5.36861 28.6326 -6.42528
827 1 5.36861 3.57908 30.4221 -8.24104
828 3 3.57908 5.36861 30.4221 -6.31377
765 2 8.94769 3.57908 26.8431 -6.99349
766 1 7.15815 5.36861 26.8431 -8.59244
829 2 7.15815 3.57908 28.6326 -6.97796
830 3 8.94769 5.36861 28.6326 -6.48545
831 2 8.94769 3.57908 30.4221 -7.01933
832 3 7.15815 5.36861 30.4221 -6.44027
767 2 12.5268 3.57908 26.8431 -6.95831
768 1 10.7372 5.36861 26.8431 -8.33175
833 3 10.7372 3.57908 28.6326 -6.50839
834 2 12.5268 5.36861 28.6326 -7.02757
835 3 12.5268 3.57908 30.4221 -6.4573