ITEM: TIMESTEP
0
ITEM: NUMBER OF ATOMS
4000
ITEM: BOX BOUNDS pp pp pp
0.0000000000000000e+00 3.5627870000000001e+01
0.0000000000000000e+00 3.5627870000000001e+01
0.0000000000000000e+00 3.5627870000000001e+01
ITEM: ATOMS id type x y z c_peratom
1 3 0 0 0 -6.34436
2 1 1.78139 1.78139 0 -8.68085
3 1 1.78139 0 1.78139 -8.59922
4 3 0 1.78139 1.78139 -6.3342
101 1 0 0 3.56279 -8.26853
102 1 1.78139 1.78139 3.56279 -8.51598
5 3 3.56279 0 0 -6.2759
6 3 5.34418 1.78139 0 -6.36341
7 1 5.34418 0 1.78139 -8.85138
8 3 3.56279 1.78139 1.78139 -6.23889
105 3 3.56279 0 3.56279 -6.24497
106 2 5.34418 1.78139 3.56279 -6.86954
9 2 7.12557 0 0 -6.95777
10 2 8.90697 1.78139 0 -6.98886
11 1 8.90697 0 1.78139 -8.54893
12 2 7.12557 1.78139 1.78139 -6.9995
109 3 7.12557 0 3.56279 -6.28698
110 1 8.90697 1.78139 3.56279 -8.53941
13 2 10.6884 0 0 -6.88004
14 3 12.4698 1.78139 0 -6.30628
15 1 12.4698 0 1.78139 -8.90968
16 3 10.6884 1.78139 1.78139 -6.28129
113 3 10.6884 0 3.56279 -6.33202
114 2 12.4698 1.78139 3.56279 -6.77913
17 3 14.2511 0 0 -6.48006
18 3 16.0325 1.78139 0 -6.44638
19 3 16.0325 0 1.78139 -6.47546
20 3 14.2511 1.78139 1.78139 -6.37162
117 3 14.2511 0 3.56279 -6.41449
118 1 16.0325 1.78139 3.56279 -8.89595
21 3 0 3.56279 0 -6.41158
22 3 1.78139 5.34418 0 -6.42828
23 3 1.78139 3.56279 1.78139 -6.37765
24 1 0 5.34418 1.78139 -8.76631
121 3 0 3.56279 3.56279 -6.31688
122 2 1.78139 5.34418 3.56279 -6.88708
25 1 3.56279 3.56279 0 -8.63158
26 2 5.34418 5.34418 0 -6.91452
27 1 5.34418 3.56279 1.78139 -8.29327
28 3 3.56279 5.34418 1.78139 -6.4666
125 2 3.56279 3.56279 3.56279 -6.94525
126 1 5.34418 5.34418 3.56279 -8.2668
29 2 7.12557 3.56279 0 -6.9949
30 2 8.90697 5.34418 0 -7.00203
31 1 8.90697 3.56279 1.78139 -8.43246
32 1 7.12557 5.34418 1.78139 -8.10748
129 1 7.12557 3.56279 3.56279 -8.02418
130 2 8.90697 5.34418 3.56279 -6.92576
33 2 10.6884 3.56279 0 -6.92635
34 3 12.4698 5.34418 0 -6.39423
35 1 12.4698 3.56279 1.78139 -8.60159
36 3 10.6884 5.34418 1.78139 -6.26929
133 3 10.6884 3.56279 3.56279 -6.24498
134 1 12.4698 5.34418 3.56279 -8.2676
37 1 14.2511 3.56279 0 -8.69504
38 1 16.0325 5.34418 0 -8.33953
39 2 16.0325 3.56279 1.78139 -6.91697
40 2 14.2511 5.34418 1.78139 -6.95591
137 2 14.2511 3.56279 3.56279 -6.90311
138 1 16.0325 5.34418 3.56279 -8.66464
41 3 0 7.12557 0 -6.39996
42 2 1.78139 8.90697 0 -6.91812
43 3 1.78139 7.12557 1.78139 -6.47077
44 1 0 8.90697 1.78139 -8.50941
141 2 0 7.12557 3.56279 -6.92238
142 2 1.78139 8.90697 3.56279 -6.98017
45 3 3.56279 7.12557 0 -6.4515
46 3 5.34418 8.90697 0 -6.32294
47 3 5.34418 7.12557 1.78139 -6.32096
48 1 3.56279 8.90697 1.78139 -8.67335
145 2 3.56279 7.12557 3.56279 -6.99363
146 1 5.34418 8.90697 3.56279 -8.49214
49 1 7.12557 7.12557 0 -8.30279
50 2 8.90697 8.90697 0 -6.95676
51 1 8.90697 7.12557 1.78139 -8.35955
52 2 7.12557 8.90697 1.78139 -6.95279
149 3 7.12557 7.12557 3.56279 -6.28303
150 1 8.90697 8.90697 3.56279 -8.31494
53 3 10.6884 7.12557 0 -6.34399
54 1 12.4698 8.90697 0 -8.41117
55 1 12.4698 7.12557 1.78139 -8.39874
56 2 10.6884 8.90697 1.78139 -7.01233
153 2 10.6884 7.12557 3.56279 -7.04035
154 1 12.4698 8.90697 3.56279 -8.17454
57 2 14.2511 7.12557 0 -6.8961
58 1 16.0325 8.90697 0 -8.58001
59 3 16.0325 7.12557 1.78139 -6.33988
60 2 14.2511 8.90697 1.78139 -6.91477
157 3 14.2511 7.12557 3.56279 -6.29373
158 3 16.0325 8.90697 3.56279 -6.43445
61 1 0 10.6884 0 -8.38875
62 1 1.78139 12.4698 0 -8.19738
63 2 1.78139 10.6884 1.78139 -6.92336
64 3 0 12.4698 1.78139 -6.3335
161 3 0 10.6884 3.56279 -6.37022
162 3 1.78139 12.4698 3.56279 -6.36593
65 3 3.56279 10.6884 0 -6.31061
66 1 5.34418 12.4698 0 -8.10967
67 3 5.34418 10.6884 1.78139 -6.2421
68 1 3.56279 12.4698 1.78139 -8.27393
165 2 3.56279 10.6884 3.56279 -7.01714
166 1 5.34418 12.4698 3.56279 -8.33267
69 1 7.12557 10.6884 0 -8.33377
70 1 8.90697 12.4698 0 -8.44391
71 2 8.90697 10.6884 1.78139 -7.02696
72 1 7.12557 12.4698 1.78139 -8.16034
169 2 7.12557 10.6884 3.56279 -6.98904
170 1 8.90697 12.4698 3.56279 -8.28617
73 2 10.6884 10.6884 0 -7.06238
74 1 12.4698 12.4698 0 -8.51451
75 1 12.4698 10.6884 1.78139 -8.31002
76 3 10.6884 12.4698 1.78139 -6.33157
173 2 10.6884 10.6884 3.56279 -7.09687
174 1 12.4698 12.4698 3.56279 -8.45817
77 3 14.2511 10.6884 0 -6.35007
78 3 16.0325 12.4698 0 -6.53581
79 1 16.0325 10.6884 1.78139 -8.66048
80 2 14.2511 12.4698 1.78139 -6.91903
177 3 14.2511 10.6884 3.56279 -6.20432
178 3 16.0325 12.4698 3.56279 -6.2833
81 1 0 14.2511 0 -8.42528
82 3 1.78139 16.0325 0 -6.1848
83 1 1.78139 14.2511 1.78139 -8.43148
84 1 0 16.0325 1.78139 -8.48858
181 3 0 14.2511 3.56279 -6.31969
182 3 1.78139 16.0325 3.56279 -6.29922
85 2 3.56279 14.2511 0 -7.0035
86 2 5.34418 16.0325 0 -7.05996
87 2 5.34418 14.2511 1.78139 -7.02994
88 2 3.56279 16.0325 1.78139 -6.93782
185 2 3.56279 14.2511 3.56279 -6.98453
186 2 5.34418 16.0325 3.56279 -7.03278
89 2 7.12557 14.2511 0 -7.09636
90 2 8.90697 16.0325 0 -7.03372
91 3 8.90697 14.2511 1.78139 -6.47672
92 1 7.12557 16.0325 1.78139 -8.4821
189 2 7.12557 14.2511 3.56279 -7.02341
190 3 8.90697 16.0325 3.56279 -6.47102
93 2 10.6884 14.2511 0 -7.04325
94 1 12.4698 16.0325 0 -8.78154
95 3 12.4698 14.2511 1.78139 -6.41682
96 3 10.6884 16.0325 1.78139 -6.47618
193 2 10.6884 14.2511 3.56279 -6.89925
194 1 12.4698 16.0325 3.56279 -8.906
97 2 14.2511 14.2511 0 -7.05804
98 2 16.0325 16.0325 0 -6.98361
99 1 16.0325 14.2511 1.78139 -8.74484
100 2 14.2511 16.0325 1.78139 -6.95104
197 3 14.2511 14.2511 3.56279 -6.39483
198 2 16.0325 16.0325 3.56279 -6.90508
103 2 1.78139 0 5.34418 -6.90381
104 2 0 1.78139 5.34418 -6.87298
201 1 0 0 7.12557 -8.25627
202 1 1.78139 1.78139 7.12557 -8.28987
107 1 5.34418 0 5.34418 -8.31733
108 1 3.56279 1.78139 5.34418 -8.28886
203 3 3.56279 0 7.12557 -6.25913
204 2 5.34418 1.78139 7.12557 -6.87657
111 2 8.90697 0 5.34418 -6.92743
112 3 7.12557 1.78139 5.34418 -6.30247
205 1 7.12557 0 7.12557 -8.34272
206 3 8.90697 1.78139 7.12557 -6.44504
115 1 12.4698 0 5.34418 -8.7019
116 3 10.6884 1.78139 5.34418 -6.39025
207 1 10.6884 0 7.12557 -8.48231
208 2 12.4698 1.78139 7.12557 -6.88687
119 3 16.0325 0 5.34418 -6.3563
120 3 14.2511 1.78139 5.34418 -6.35835
209 3 14.2511 0 7.12557 -6.42976
210 1 16.0325 1.78139 7.12557 -8.49878
123 3 1.78139 3.56279 5.34418 -6.21211
124 1 0 5.34418 5.34418 -8.28593
211 1 0 3.56279 7.12557 -8.01482
212 1 1.78139 5.34418 7.12557 -8.32615
127 1 5.34418 3.56279 5.34418 -8.31696
128 1 3.56279 5.34418 5.34418 -8.24859
213 3 3.56279 3.56279 7.12557 -6.28569
214 3 5.34418 5.34418 7.12557 -6.27276
131 2 8.90697 3.56279 5.34418 -6.89215
132 1 7.12557 5.34418 5.34418 -8.35181
215 3 7.12557 3.56279 7.12557 -6.33958
216 3 8.90697 5.34418 7.12557 -6.33876
135 1 12.4698 3.56279 5.34418 -8.59401
136 1 10.6884 5.34418 5.34418 -8.31266
217 2 10.6884 3.56279 7.12557 -6.90859
218 3 12.4698 5.34418 7.12557 -6.37655
139 3 16.0325 3.56279 5.34418 -6.30696
140 3 14.2511 5.34418 5.34418 -6.30033
219 2 14.2511 3.56279 7.12557 -6.94296
220 1 16.0325 5.34418 7.12557 -8.57714
143 1 1.78139 7.12557 5.34418 -8.23414
144 3 0 8.90697 5.34418 -6.31665
221 3 0 7.12557 7.12557 -6.30324
222 2 1.78139 8.90697 7.12557 -6.97405
147 2 5.34418 7.12557 5.34418 -6.99272
148 1 3.56279 8.90697 5.34418 -8.14866
223 1 3.56279 7.12557 7.12557 -8.24332
224 2 5.34418 8.90697 7.12557 -6.99487
151 2 8.90697 7.12557 5.34418 -6.93438
152 2 7.12557 8.90697 5.34418 -6.9597
225 1 7.12557 7.12557 7.12557 -8.51688
226 3 8.90697 8.90697 7.12557 -6.23865
155 1 12.4698 7.12557 5.34418 -8.36058
156 1 10.6884 8.90697 5.34418 -8.15819
227 1 10.6884 7.12557 7.12557 -8.58307
228 3 12.4698 8.90697 7.12557 -6.29547
159 2 16.0325 7.12557 5.34418 -6.89531
160 2 14.2511 8.90697 5.34418 -6.83578
229 3 14.2511 7.12557 7.12557 -6.41016
230 3 16.0325 8.90697 7.12557 -6.51048
163 1 1.78139 10.6884 5.34418 -8.65537
164 2 0 12.4698 5.34418 -6.88595
231 3 0 10.6884 7.12557 -6.43979
232 2 1.78139 12.4698 7.12557 -6.98021
167 2 5.34418 10.6884 5.34418 -6.97234
168 3 3.56279 12.4698 5.34418 -6.43094
233 2 3.56279 10.6884 7.12557 -7.01213
234 1 5.34418 12.4698 7.12557 -8.53928
171 1 8.90697 10.6884 5.34418 -8.43818
172 3 7.12557 12.4698 5.34418 -6.28628
235 3 7.12557 10.6884 7.12557 -6.33291
236 3 8.90697 12.4698 7.12557 -6.24311
175 1 12.4698 10.6884 5.34418 -8.30787
176 1 10.6884 12.4698 5.34418 -8.1341
237 3 10.6884 10.6884 7.12557 -6.16338
238 1 12.4698 12.4698 7.12557 -8.45241
179 1 16.0325 10.6884 5.34418 -8.77226
180 2 14.2511 12.4698 5.34418 -6.89196
239 3 14.2511 10.6884 7.12557 -6.34084
240 2 16.0325 12.4698 7.12557 -7.01754
183 1 1.78139 14.2511 5.34418 -8.59645
184 2 0 16.0325 5.34418 -7.03023
241 2 0 14.2511 7.12557 -7.02195
242 2 1.78139 16.0325 7.12557 -7.04256
187 1 5.34418 14.2511 5.34418 -8.39443
188 1 3.56279 16.0325 5.34418 -8.1642
243 2 3.56279 14.2511 7.12557 -7.02716
244 2 5.34418 16.0325 7.12557 -7.0579
191 1 8.90697 14.2511 5.34418 -8.60609
192 2 7.12557 16.0325 5.34418 -6.98079
245 3 7.12557 14.2511 7.12557 -6.36789
246 3 8.90697 16.0325 7.12557 -6.42804
195 3 12.4698 14.2511 5.34418 -6.46202
196 3 10.6884 16.0325 5.34418 -6.47811
247 2 10.6884 14.2511 7.12557 -6.95716
248 2 12.4698 16.0325 7.12557 -7.11301
199 1 16.0325 14.2511 5.34418 -8.50873
200 2 14.2511 16.0325 5.34418 -7.01813
249 2 14.2511 14.2511 7.12557 -7.09252
250 2 16.0325 16.0325 7.12557 -7.0833
251 1 1.78139 0 8.90697 -8.64357
252 2 0 1.78139 8.90697 -7.02583
301 3 0 0 10.6884 -6.30378
302 2 1.78139 1.78139 10.6884 -6.95788
303 1 1.78139 0 12.4698 -8.63877
304 3 0 1.78139 12.4698 -6.34403
253 3 5.34418 0 8.90697 -6.42103
254 2 3.56279 1.78139 8.90697 -6.91518
305 3 3.56279 0 10.6884 -6.51864
306 1 5.34418 1.78139 10.6884 -8.71178
307 3 5.34418 0 12.4698 -6.48126
308 2 3.56279 1.78139 12.4698 -6.94667
255 2 8.90697 0 8.90697 -6.96681
256 2 7.12557 1.78139 8.90697 -6.95532
309 2 7.12557 0 10.6884 -6.95303
310 1 8.90697 1.78139 10.6884 -8.64299
311 3 8.90697 0 12.4698 -6.42119
312 2 7.12557 1.78139 12.4698 -6.92093
257 1 12.4698 0 8.90697 -8.5137
258 3 10.6884 1.78139 8.90697 -6.29698
313 3 10.6884 0 10.6884 -6.32261
314 1 12.4698 1.78139 10.6884 -8.51925
315 3 12.4698 0 12.4698 -6.56315
316 2 10.6884 1.78139 12.4698 -6.9168
259 3 16.0325 0 8.90697 -6.45511
260 1 14.2511 1.78139 8.90697 -8.39603
317 3 14.2511 0 10.6884 -6.52633
318 3 16.0325 1.78139 10.6884 -6.66059
319 3 16.0325 0 12.4698 -6.79865
320 2 14.2511 1.78139 12.4698 -7.11116
261 2 1.78139 3.56279 8.90697 -6.99386
262 2 0 5.34418 8.90697 -7.03035
321 1 0 3.56279 10.6884 -8.30874
322 1 1.78139 5.34418 10.6884 -8.40998
323 2 1.78139 3.56279 12.4698 -6.98088
324 2 0 5.34418 12.4698 -7.00958
263 1 5.34418 3.56279 8.90697 -8.67556
264 2 3.56279 5.34418 8.90697 -6.91439
325 3 3.56279 3.56279 10.6884 -6.54881
326 2 5.34418 5.34418 10.6884 -6.91488
327 3 5.34418 3.56279 12.4698 -6.52579
328 2 3.56279 5.34418 12.4698 -7.03279
265 1 8.90697 3.56279 8.90697 -8.5964
266 3 7.12557 5.34418 8.90697 -6.37478
329 3 7.12557 3.56279 10.6884 -6.40028
330 1 8.90697 5.34418 10.6884 -8.59013
331 3 8.90697 3.56279 12.4698 -6.41741
332 2 7.12557 5.34418 12.4698 -6.90652
267 1 12.4698 3.56279 8.90697 -8.34171
268 2 10.6884 5.34418 8.90697 -6.9538
333 2 10.6884 3.56279 10.6884 -6.92599
334 1 12.4698 5.34418 10.6884 -8.60193
335 3 12.4698 3.56279 12.4698 -6.56105
336 3 10.6884 5.34418 12.4698 -6.3527
269 3 16.0325 3.56279 8.90697 -6.35971
270 2 14.2511 5.34418 8.90697 -6.89046
337 2 14.2511 3.56279 10.6884 -7.01989
338 1 16.0325 5.34418 10.6884 -8.65204
339 2 16.0325 3.56279 12.4698 -7.10489
340 2 14.2511 5.34418 12.4698 -7.06249
271 3 1.78139 7.12557 8.90697 -6.32902
272 3 0 8.90697 8.90697 -6.43026
341 1 0 7.12557 10.6884 -8.21459
342 3 1.78139 8.90697 10.6884 -6.40139
343 1 1.78139 7.12557 12.4698 -8.36916
344 2 0 8.90697 12.4698 -6.9922
273 3 5.34418 7.12557 8.90697 -6.4272
274 1 3.56279 8.90697 8.90697 -8.65404
345 3 3.56279 7.12557 10.6884 -6.47796
346 2 5.34418 8.90697 10.6884 -6.93665
347 1 5.34418 7.12557 12.4698 -8.71848
348 2 3.56279 8.90697 12.4698 -6.93215
275 3 8.90697 7.12557 8.90697 -6.30279
276 1 7.12557 8.90697 8.90697 -8.35926
349 3 7.12557 7.12557 10.6884 -6.35395
350 1 8.90697 8.90697 10.6884 -8.31583
351 1 8.90697 7.12557 12.4698 -8.43674
352 3 7.12557 8.90697 12.4698 -6.28678
277 3 12.4698 7.12557 8.90697 -6.39742
278 3 10.6884 8.90697 8.90697 -6.26465
353 2 10.6884 7.12557 10.6884 -6.86373
354 1 12.4698 8.90697 10.6884 -8.46008
355 2 12.4698 7.12557 12.4698 -7.02329
356 2 10.6884 8.90697 12.4698 -6.92764
279 3 16.0325 7.12557 8.90697 -6.38638
280 1 14.2511 8.90697 8.90697 -8.78348
357 3 14.2511 7.12557 10.6884 -6.38957
358 2 16.0325 8.90697 10.6884 -6.94029
359 2 16.0325 7.12557 12.4698 -6.97829
360 1 14.2511 8.90697 12.4698 -8.5088
281 3 1.78139 10.6884 8.90697 -6.38691
282 1 0 12.4698 8.90697 -8.56795
361 1 0 10.6884 10.6884 -8.48601
362 1 1.78139 12.4698 10.6884 -8.50133
363 3 1.78139 10.6884 12.4698 -6.3762
364 2 0 12.4698 12.4698 -6.93723
283 2 5.34418 10.6884 8.90697 -6.9688
284 1 3.56279 12.4698 8.90697 -8.34211
365 2 3.56279 10.6884 10.6884 -6.94696
366 1 5.34418 12.4698 10.6884 -8.31971
367 1 5.34418 10.6884 12.4698 -8.44614
368 3 3.56279 12.4698 12.4698 -6.17399
285 1 8.90697 10.6884 8.90697 -8.58724
286 3 7.12557 12.4698 8.90697 -6.32791
369 1 7.12557 10.6884 10.6884 -8.35208
370 3 8.90697 12.4698 10.6884 -6.37428
371 3 8.90697 10.6884 12.4698 -6.22752
372 3 7.12557 12.4698 12.4698 -6.26509
287 2 12.4698 10.6884 8.90697 -6.85751
288 3 10.6884 12.4698 8.90697 -6.31085
373 1 10.6884 10.6884 10.6884 -8.4423
374 1 12.4698 12.4698 10.6884 -8.41763
375 3 12.4698 10.6884 12.4698 -6.20592
376 3 10.6884 12.4698 12.4698 -6.24647
289 2 16.0325 10.6884 8.90697 -7.02635
290 1 14.2511 12.4698 8.90697 -8.32904
377 3 14.2511 10.6884 10.6884 -6.2657
378 1 16.0325 12.4698 10.6884 -8.47287
379 3 16.0325 10.6884 12.4698 -6.40899
380 3 14.2511 12.4698 12.4698 -6.22122
291 3 1.78139 14.2511 8.90697 -6.34322
292 3 0 16.0325 8.90697 -6.32713
381 2 0 14.2511 10.6884 -6.87566
382 1 1.78139 16.0325 10.6884 -8.51227
383 3 1.78139 14.2511 12.4698 -6.25153
384 3 0 16.0325 12.4698 -6.16333
293 2 5.34418 14.2511 8.90697 -6.94871
294 1 3.56279 16.0325 8.90697 -8.34605
385 3 3.56279 14.2511 10.6884 -6.1934
386 1 5.34418 16.0325 10.6884 -8.39909
387 1 5.34418 14.2511 12.4698 -8.31251
388 2 3.56279 16.0325 12.4698 -6.97763
295 1 8.90697 14.2511 8.90697 -8.77055
296 2 7.12557 16.0325 8.90697 -7.02572
389 2 7.12557 14.2511 10.6884 -6.96882
390 2 8.90697 16.0325 10.6884 -7.08841
391 3 8.90697 14.2511 12.4698 -6.53035
392 2 7.12557 16.0325 12.4698 -7.04288
297 3 12.4698 14.2511 8.90697 -6.52268
298 2 10.6884 16.0325 8.90697 -7.09638
393 2 10.6884 14.2511 10.6884 -6.93141
394 2 12.4698 16.0325 10.6884 -7.07836
395 1 12.4698 14.2511 12.4698 -8.52071
396 1 10.6884 16.0325 12.4698 -8.49071
299 2 16.0325 14.2511 8.90697 -7.06705
300 2 14.2511 16.0325 8.90697 -7.125
397 1 14.2511 14.2511 10.6884 -8.38122
398 3 16.0325 16.0325 10.6884 -6.43352
399 2 16.0325 14.2511 12.4698 -6.86469
400 3 14.2511 16.0325 12.4698 -6.39383
401 3 0 0 14.2511 -6.208
402 3 1.78139 1.78139 14.2511 -6.25054
403 3 1.78139 0 16.0325 -6.29774
404 1 0 1.78139 16.0325 -8.64248
405 1 3.56279 0 14.2511 -8.46037
406 3 5.34418 1.78139 14.2511 -6.36461
407 3 5.34418 0 16.0325 -6.35801
408 1 3.56279 1.78139 16.0325 -8.63669
409 2 7.12557 0 14.2511 -6.85165
410 3 8.90697 1.78139 14.2511 -6.50906
411 3 8.90697 0 16.0325 -6.4264
412 3 7.12557 1.78139 16.0325 -6.49848
413 3 10.6884 0 14.2511 -6.53239
414 2 12.4698 1.78139 14.2511 -7.09591
415 3 12.4698 0 16.0325 -6.58228
416 3 10.6884 1.78139 16.0325 -6.47743
417 2 14.2511 0 14.2511 -7.1394
418 2 16.0325 1.78139 14.2511 -7.15229
419 2 16.0325 0 16.0325 -6.98043
420 2 14.2511 1.78139 16.0325 -7.06616
421 1 0 3.56279 14.2511 -8.59277
422 2 1.78139 5.34418 14.2511 -7.00502
423 3 1.78139 3.56279 16.0325 -6.31868
424 1 0 5.34418 16.0325 -8.72805
425 1 3.56279 3.56279 14.2511 -8.55271
426 2 5.34418 5.34418 14.2511 -7.01263
427 3 5.34418 3.56279 16.0325 -6.36861
428 1 3.56279 5.34418 16.0325 -8.43696
429 1 7.12557 3.56279 14.2511 -8.76727
430 3 8.90697 5.34418 14.2511 -6.22221
431 3 8.90697 3.56279 16.0325 -6.25807
432 1 7.12557 5.34418 16.0325 -8.4544
433 1 10.6884 3.56279 14.2511 -8.74006
434 2 12.4698 5.34418 14.2511 -7.03909
435 2 12.4698 3.56279 16.0325 -6.94471
436 1 10.6884 5.34418 16.0325 -8.20702
437 2 14.2511 3.56279 14.2511 -7.14014
438 1 16.0325 5.34418 14.2511 -8.45675
439 3 16.0325 3.56279 16.0325 -6.46211
440 3 14.2511 5.34418 16.0325 -6.44391
441 3 0 7.12557 14.2511 -6.34435
442 1 1.78139 8.90697 14.2511 -8.62844
443 2 1.78139 7.12557 16.0325 -6.96538
444 3 0 8.90697 16.0325 -6.28722
445 2 3.56279 7.12557 14.2511 -7.0213
446 3 5.34418 8.90697 14.2511 -6.48019
447 1 5.34418 7.12557 16.0325 -8.32004
448 2 3.56279 8.90697 16.0325 -6.99304
449 3 7.12557 7.12557 14.2511 -6.27694
450 3 8.90697 8.90697 14.2511 -6.3493
451 1 8.90697 7.12557 16.0325 -8.3357
452 2 7.12557 8.90697 16.0325 -6.94168
453 1 10.6884 7.12557 14.2511 -8.37099
454 2 12.4698 8.90697 14.2511 -6.92479
455 1 12.4698 7.12557 16.0325 -8.36101
456 3 10.6884 8.90697 16.0325 -6.17639
457 2 14.2511 7.12557 14.2511 -7.00171
458 3 16.0325 8.90697 14.2511 -6.40363
459 1 16.0325 7.12557 16.0325 -8.30914
460 1 14.2511 8.90697 16.0325 -8.21851
461 2 0 10.6884 14.2511 -6.94248
462 1 1.78139 12.4698 14.2511 -8.49547
463 3 1.78139 10.6884 16.0325 -6.40155
464 1 0 12.4698 16.0325 -8.24199
465 3 3.56279 10.6884 14.2511 -6.3685
466 1 5.34418 12.4698 14.2511 -8.35549
467 3 5.34418 10.6884 16.0325 -6.53709
468 2 3.56279 12.4698 16.0325 -7.01285
469 2 7.12557 10.6884 14.2511 -6.8992
470 1 8.90697 12.4698 14.2511 -8.46267
471 3 8.90697 10.6884 16.0325 -6.28796
472 1 7.12557 12.4698 16.0325 -8.39633
473 1 10.6884 10.6884 14.2511 -8.69972
474 3 12.4698 12.4698 14.2511 -6.24426
475 3 12.4698 10.6884 16.0325 -6.14595
476 1 10.6884 12.4698 16.0325 -8.10546
477 1 14.2511 10.6884 14.2511 -8.45578
478 1 16.0325 12.4698 14.2511 -8.65657
479 2 16.0325 10.6884 16.0325 -6.95015
480 2 14.2511 12.4698 16.0325 -6.86308
481 1 0 14.2511 14.2511 -8.28706
482 2 1.78139 16.0325 14.2511 -6.87118
483 1 1.78139 14.2511 16.0325 -8.40526
484 3 0 16.0325 16.0325 -6.21888
485 1 3.56279 14.2511 14.2511 -8.28744
486 2 5.34418 16.0325 14.2511 -7.00511
487 2 5.34418 14.2511 16.0325 -7.02436
488 3 3.56279 16.0325 16.0325 -6.36129
489 3 7.12557 14.2511 14.2511 -6.3205
490 2 8.90697 16.0325 14.2511 -6.9807
491 1 8.90697 14.2511 16.0325 -8.08272
492 1 7.12557 16.0325 16.0325 -8.6
493 3 10.6884 14.2511 14.2511 -6.17602
494 3 12.4698 16.0325 14.2511 -6.29564
495 1 12.4698 14.2511 16.0325 -8.34286
496 1 10.6884 16.0325 16.0325 -8.46768
497 3 14.2511 14.2511 14.2511 -6.32604
498 1 16.0325 16.0325 14.2511 -8.87382
499 3 16.0325 14.2511 16.0325 -6.26281
500 3 14.2511 16.0325 16.0325 -6.28217
501 3 0 0 17.8139 -6.23829
502 2 1.78139 1.78139 17.8139 -6.89269
503 1 1.78139 0 19.5953 -8.39289
504 1 0 1.78139 19.5953 -8.24159
601 1 0 0 21.3767 -8.1114
602 1 1.78139 1.78139 21.3767 -8.31085
505 2 3.56279 0 17.8139 -6.88181
506 3 5.34418 1.78139 17.8139 -6.44674
507 2 5.34418 0 19.5953 -6.88938
508 1 3.56279 1.78139 19.5953 -8.3198
605 3 3.56279 0 21.3767 -6.23222
606 1 5.34418 1.78139 21.3767 -8.33516
509 3 7.12557 0 17.8139 -6.39808
510 1 8.90697 1.78139 17.8139 -8.45858
511 1 8.90697 0 19.5953 -8.41885
512 3 7.12557 1.78139 19.5953 -6.27415
609 3 7.12557 0 21.3767 -6.26838
610 2 8.90697 1.78139 21.3767 -6.95343
513 2 10.6884 0 17.8139 -6.87863
514 3 12.4698 1.78139 17.8139 -6.34221
515 2 12.4698 0 19.5953 -6.91205
516 1 10.6884 1.78139 19.5953 -8.17173
613 3 10.6884 0 21.3767 -6.2282
614 1 12.4698 1.78139 21.3767 -8.32403
517 1 14.2511 0 17.8139 -8.5894
518 1 16.0325 1.78139 17.8139 -8.37844
519 1 16.0325 0 19.5953 -8.27924
520 3 14.2511 1.78139 19.5953 -6.19072
617 3 14.2511 0 21.3767 -6.20517
618 1 16.0325 1.78139 21.3767 -8.25184
521 2 0 3.56279 17.8139 -6.89127
522 2 1.78139 5.34418 17.8139 -7.01363
523 3 1.78139 3.56279 19.5953 -6.51118
524 3 0 5.34418 19.5953 -6.60681
621 2 0 3.56279 21.3767 -7.01552
622 3 1.78139 5.34418 21.3767 -6.53486
525 2 3.56279 3.56279 17.8139 -6.95161
526 2 5.34418 5.34418 17.8139 -6.93953
527 1 5.34418 3.56279 19.5953 -8.35084
528 3 3.56279 5.34418 19.5953 -6.57413
625 2 3.56279 3.56279 21.3767 -6.95327
626 3 5.34418 5.34418 21.3767 -6.36772
529 2 7.12557 3.56279 17.8139 -6.89927
530 2 8.90697 5.34418 17.8139 -6.92432
531 1 8.90697 3.56279 19.5953 -8.0346
532 1 7.12557 5.34418 19.5953 -8.29264
629 1 7.12557 3.56279 21.3767 -8.36989
630 2 8.90697 5.34418 21.3767 -7.0795
533 1 10.6884 3.56279 17.8139 -8.35526
534 3 12.4698 5.34418 17.8139 -6.28671
535 3 12.4698 3.56279 19.5953 -6.12879
536 1 10.6884 5.34418 19.5953 -8.36635
633 1 10.6884 3.56279 21.3767 -8.23154
634 3 12.4698 5.34418 21.3767 -6.29161
537 1 14.2511 3.56279 17.8139 -8.71942
538 3 16.0325 5.34418 17.8139 -6.40497
539 2 16.0325 3.56279 19.5953 -6.9037
540 2 14.2511 5.34418 19.5953 -6.87001
637 1 14.2511 3.56279 21.3767 -8.54923
638 3 16.0325 5.34418 21.3767 -6.45371
541 3 0 7.12557 17.8139 -6.391
542 1 1.78139 8.90697 17.8139 -8.83739
543 3 1.78139 7.12557 19.5953 -6.55515
544 3 0 8.90697 19.5953 -6.43707
641 2 0 7.12557 21.3767 -6.95057
642 3 1.78139 8.90697 21.3767 -6.48188
545 2 3.56279 7.12557 17.8139 -6.9988
546 1 5.34418 8.90697 17.8139 -8.61224
547 3 5.34418 7.12557 19.5953 -6.53888
548 3 3.56279 8.90697 19.5953 -6.55225
645 1 3.56279 7.12557 21.3767 -8.78972
646 2 5.34418 8.90697 21.3767 -7.08891
549 3 7.12557 7.12557 17.8139 -6.268
550 1 8.90697 8.90697 17.8139 -8.34678
551 1 8.90697 7.12557 19.5953 -8.16904
552 2 7.12557 8.90697 19.5953 -7.08341
649 2 7.12557 7.12557 21.3767 -7.02971
650 2 8.90697 8.90697 21.3767 -7.04325
553 3 10.6884 7.12557 17.8139 -6.19391
554 1 12.4698 8.90697 17.8139 -8.50144
555 3 12.4698 7.12557 19.5953 -6.37204
556 2 10.6884 8.90697 19.5953 -6.96698
653 1 10.6884 7.12557 21.3767 -8.50967
654 3 12.4698 8.90697 21.3767 -6.39613
557 3 14.2511 7.12557 17.8139 -6.36374
558 1 16.0325 8.90697 17.8139 -8.18585
559 2 16.0325 7.12557 19.5953 -6.95151
560 2 14.2511 8.90697 19.5953 -6.91976
657 1 14.2511 7.12557 21.3767 -8.80202
658 3 16.0325 8.90697 21.3767 -6.39211
561 3 0 10.6884 17.8139 -6.33906
562 2 1.78139 12.4698 17.8139 -6.92718
563 2 1.78139 10.6884 19.5953 -6.94078
564 1 0 12.4698 19.5953 -8.51105
661 1 0 10.6884 21.3767 -8.56651
662 3 1.78139 12.4698 21.3767 -6.46087
565 2 3.56279 10.6884 17.8139 -7.06718
566 2 5.34418 12.4698 17.8139 -7.12992
567 2 5.34418 10.6884 19.5953 -7.13889
568 1 3.56279 12.4698 19.5953 -8.69865
665 3 3.56279 10.6884 21.3767 -6.56576
666 2 5.34418 12.4698 21.3767 -7.13324
569 2 7.12557 10.6884 17.8139 -7.0727
570 2 8.90697 12.4698 17.8139 -7.01683
571 1 8.90697 10.6884 19.5953 -8.26838
572 2 7.12557 12.4698 19.5953 -7.22894
669 2 7.12557 10.6884 21.3767 -7.14529
670 2 8.90697 12.4698 21.3767 -7.10303
573 1 10.6884 10.6884 17.8139 -8.23661
574 1 12.4698 12.4698 17.8139 -8.34212
575 3 12.4698 10.6884 19.5953 -6.27773
576 3 10.6884 12.4698 19.5953 -6.20618
673 1 10.6884 10.6884 21.3767 -8.34666
674 1 12.4698 12.4698 21.3767 -8.32208
577 3 14.2511 10.6884 17.8139 -6.21296
578 1 16.0325 12.4698 17.8139 -8.31778
579 1 16.0325 10.6884 19.5953 -8.33131
580 2 14.2511 12.4698 19.5953 -7.04454
677 2 14.2511 10.6884 21.3767 -6.8725
678 1 16.0325 12.4698 21.3767 -8.1708
581 3 0 14.2511 17.8139 -6.33209
582 3 1.78139 16.0325 17.8139 -6.40436
583 3 1.78139 14.2511 19.5953 -6.49298
584 3 0 16.0325 19.5953 -6.46733
681 1 0 14.2511 21.3767 -8.59961
682 3 1.78139 16.0325 21.3767 -6.50304
585 2 3.56279 14.2511 17.8139 -7.02454
586 3 5.34418 16.0325 17.8139 -6.59785
587 2 5.34418 14.2511 19.5953 -7.16251
588 3 3.56279 16.0325 19.5953 -6.61418
685 3 3.56279 14.2511 21.3767 -6.61319
686 3 5.34418 16.0325 21.3767 -6.52707
589 2 7.12557 14.2511 17.8139 -7.14088
590 2 8.90697 16.0325 17.8139 -7.04762
591 2 8.90697 14.2511 19.5953 -7.12247
592 2 7.12557 16.0325 19.5953 -7.11562
689 2 7.12557 14.2511 21.3767 -7.15514
690 2 8.90697 16.0325 21.3767 -7.01312
593 1 10.6884 14.2511 17.8139 -8.1271
594 2 12.4698 16.0325 17.8139 -6.9677
595 2 12.4698 14.2511 19.5953 -7.01304
596 1 10.6884 16.0325 19.5953 -8.35268
693 1 10.6884 14.2511 21.3767 -8.25496
694 1 12.4698 16.0325 21.3767 -8.29227
597 1 14.2511 14.2511 17.8139 -8.17105
598 1 16.0325 16.0325 17.8139 -8.42099
599 1 16.0325 14.2511 19.5953 -7.99022
600 2 14.2511 16.0325 19.5953 -7.07209
697 1 14.2511 14.2511 21.3767 -8.26073
698 1 16.0325 16.0325 21.3767 -8.38211
603 3 1.78139 0 23.1581 -6.31659
604 1 0 1.78139 23.1581 -8.25267
701 2 0 0 24.9395 -7.0268
702 2 1.78139 1.78139 24.9395 -7.02986
607 1 5.34418 0 23.1581 -8.34401
608 2 3.56279 1.78139 23.1581 -6.96034
703 3 3.56279 0 24.9395 -6.50072
704 2 5.34418 1.78139 24.9395 -7.03763
611 2 8.90697 0 23.1581 -6.922
612 3 7.12557 1.78139 23.1581 -6.36805
705 1 7.12557 0 24.9395 -8.52101
706 2 8.90697 1.78139 24.9395 -7.00385
615 3 12.4698 0 23.1581 -6.16034
616 1 10.6884 1.78139 23.1581 -8.34922
707 1 10.6884 0 24.9395 -8.11991
708 1 12.4698 1.78139 24.9395 -8.22841
619 2 16.0325 0 23.1581 -6.92149
620 1 14.2511 1.78139 23.1581 -8.39748
709 3 14.2511 0 24.9395 -6.30202
710 2 16.0325 1.78139 24.9395 -6.95978
623 2 1.78139 3.56279 23.1581 -7.0035
624 1 0 5.34418 23.1581 -8.41879
711 3 0 3.56279 24.9395 -6.22828
712 2 1.78139 5.34418 24.9395 -6.96602
627 2 5.34418 3.56279 23.1581 -6.99376
628 1 3.56279 5.34418 23.1581 -8.5898
713 3 3.56279 3.56279 24.9395 -6.61356
714 2 5.34418 5.34418 24.9395 -7.03622
631 2 8.90697 3.56279 23.1581 -6.98778
632 3 7.12557 5.34418 23.1581 -6.58086
715 1 7.12557 3.56279 24.9395 -8.47946
716 2 8.90697 5.34418 24.9395 -6.98925
635 3 12.4698 3.56279 23.1581 -6.26198
636 2 10.6884 5.34418 23.1581 -6.97332
717 3 10.6884 3.56279 24.9395 -6.39339
718 1 12.4698 5.34418 24.9395 -8.4889
639 3 16.0325 3.56279 23.1581 -6.37955
640 2 14.2511 5.34418 23.1581 -7.01146
719 2 14.2511 3.56279 24.9395 -7.03637
720 2 16.0325 5.34418 24.9395 -7.12828
643 2 1.78139 7.12557 23.1581 -7.006
644 3 0 8.90697 23.1581 -6.46057
721 2 0 7.12557 24.9395 -7.08078
722 1 1.78139 8.90697 24.9395 -8.29158
647 3 5.34418 7.12557 23.1581 -6.62265
648 2 3.56279 8.90697 23.1581 -7.01342
723 2 3.56279 7.12557 24.9395 -7.07255
724 2 5.34418 8.90697 24.9395 -6.99823
651 3 8.90697 7.12557 23.1581 -6.59776
652 2 7.12557 8.90697 23.1581 -7.07147
725 3 7.12557 7.12557 24.9395 -6.48479
726 1 8.90697 8.90697 24.9395 -8.54509
655 2 12.4698 7.12557 23.1581 -6.97754
656 2 10.6884 8.90697 23.1581 -7.01725
727 3 10.6884 7.12557 24.9395 -6.34169
728 1 12.4698 8.90697 24.9395 -8.42438
659 2 16.0325 7.12557 23.1581 -7.04375
660 3 14.2511 8.90697 23.1581 -6.31581
729 2 14.2511 7.12557 24.9395 -7.02763
730 1 16.0325 8.90697 24.9395 -8.3453
663 1 1.78139 10.6884 23.1581 -8.49642
664 2 0 12.4698 23.1581 -7.03914
731 2 0 10.6884 24.9395 -6.97563
732 2 1.78139 12.4698 24.9395 -7.0692
667 1 5.34418 10.6884 23.1581 -8.58474
668 2 3.56279 12.4698 23.1581 -7.03082
733 2 3.56279 10.6884 24.9395 -7.0931
734 2 5.34418 12.4698 24.9395 -7.05627
671 1 8.90697 10.6884 23.1581 -8.38104
672 2 7.12557 12.4698 23.1581 -7.08895
735 3 7.12557 10.6884 24.9395 -6.40917
736 2 8.90697 12.4698 24.9395 -6.99784
675 1 12.4698 10.6884 23.1581 -8.26954
676 3 10.6884 12.4698 23.1581 -6.25194
737 2 10.6884 10.6884 24.9395 -6.8904
738 1 12.4698 12.4698 24.9395 -8.21658
679 1 16.0325 10.6884 23.1581 -8.26775
680 3 14.2511 12.4698 23.1581 -6.08779
739 1 14.2511 10.6884 24.9395 -8.36366
740 3 16.0325 12.4698 24.9395 -6.29042
683 2 1.78139 14.2511 23.1581 -7.02717
684 2 0 16.0325 23.1581 -7.00813
741 3 0 14.2511 24.9395 -6.53158
742 3 1.78139 16.0325 24.9395 -6.40406
687 1 5.34418 14.2511 23.1581 -8.51318
688 2 3.56279 16.0325 23.1581 -6.8612
743 2 3.56279 14.2511 24.9395 -6.99849
744 3 5.34418 16.0325 24.9395 -6.26622
691 2 8.90697 14.2511 23.1581 -7.03515
692 1 7.12557 16.0325 23.1581 -8.30222
745 1 7.12557 14.2511 24.9395 -8.53589
746 2 8.90697 16.0325 24.9395 -7.04456
695 2 12.4698 14.2511 23.1581 -6.94348
696 1 10.6884 16.0325 23.1581 -8.14941
747 1 10.6884 14.2511 24.9395 -8.30828
748 2 12.4698 16.0325 24.9395 -7.02836
699 3 16.0325 14.2511 23.1581 -6.27246
700 3 14.2511 16.0325 23.1581 -6.29124
749 1 14.2511 14.2511 24.9395 -8.5052
750 3 16.0325 16.0325 24.9395 -6.30216
751 2 1.78139 0 26.7209 -7.0228
752 1 0 1.78139 26.7209 -8.36764
801 2 0 0 28.5023 -6.96837
802 2 1.78139 1.78139 28.5023 -6.94098
803 1 1.78139 0 30.2837 -8.74051
804 3 0 1.78139 30.2837 -6.44463
753 3 5.34418 0 26.7209 -6.4591
754 2 3.56279 1.78139 26.7209 -7.03656
805 3 3.56279 0 28.5023 -6.43741
806 1 5.34418 1.78139 28.5023 -8.56953
807 3 5.34418 0 30.2837 -6.31074
808 3 3.56279 1.78139 30.2837 -6.4035
755 1 8.90697 0 26.7209 -8.32657
756 2 7.12557 1.78139 26.7209 -7.06612
809 2 7.12557 0 28.5023 -6.96602
810 1 8.90697 1.78139 28.5023 -8.10134
811 2 8.90697 0 30.2837 -6.94747
812 1 7.12557 1.78139 30.2837 -8.38983
757 1 12.4698 0 26.7209 -8.25691
758 2 10.6884 1.78139 26.7209 -7.00005
813 2 10.6884 0 28.5023 -6.98761
814 2 12.4698 1.78139 28.5023 -7.02007
815 3 12.4698 0 30.2837 -6.41721
816 1 10.6884 1.78139 30.2837 -8.41786
759 2 16.0325 0 26.7209 -6.90217
760 2 14.2511 1.78139 26.7209 -7.01432
817 1 14.2511 0 28.5023 -8.51673
818 3 16.0325 1.78139 28.5023 -6.2959
819 3 16.0325 0 30.2837 -6.30004
820 2 14.2511 1.78139 30.2837 -6.92009
761 3 1.78139 3.56279 26.7209 -6.41069
762 1 0 5.34418 26.7209 -8.19532
821 1 0 3.56279 28.5023 -8.57315
822 2 1.78139 5.34418 28.5023 -6.96665
823 3 1.78139 3.56279 30.2837 -6.32006
824 3 0 5.34418 30.2837 -6.3863
763 2 5.34418 3.56279 26.7209 -7.0259
764 1 3.56279 5.34418 26.7209 -8.34934
825 1 3.56279 3.56279 28.5023 -8.57539
826 3 5.34418 5.34418 28.5023 -6.4425
827 3 5.34418 3.56279 30.2837 -6.46729
828 3 3.56279 5.34418 30.2837 -6.38619
765 1 8.90697 3.56279 26.7209 -8.44032
766 2 7.12557 5.34418 26.7209 -7.01709
829 2 7.12557 3.56279 28.5023 -7.07851
830 2 8.90697 5.34418 28.5023 -7.00508
831 1 8.90697 3.56279 30.2837 -8.18175
832 2 7.12557 5.34418 30.2837 -7.01835
767 1 12.4698 3.56279 26.7209 -8.31231
768 3 10.6884 5.34418 26.7209 -6.27187
833 2 10.6884 3.56279 28.5023 -7.02491
834 3 12.4698 5.34418 28.5023 -6.38518