ITEM: TIMESTEP
0
ITEM: NUMBER OF ATOMS
4000
ITEM: BOX BOUNDS pp pp pp
0.0000000000000000e+00 3.6097780000000000e+01
0.0000000000000000e+00 3.6097780000000000e+01
0.0000000000000000e+00 3.6097780000000000e+01
ITEM: ATOMS id type x y z c_peratom
1 1 0 0 0 -8.38194
2 2 1.80489 1.80489 0 -6.98563
3 1 1.80489 0 1.80489 -8.17015
4 3 0 1.80489 1.80489 -6.52893
101 2 0 0 3.60978 -7.08886
102 1 1.80489 1.80489 3.60978 -8.12395
5 2 3.60978 0 0 -6.89194
6 3 5.41467 1.80489 0 -6.53219
7 1 5.41467 0 1.80489 -8.21785
8 1 3.60978 1.80489 1.80489 -8.15816
105 3 3.60978 0 3.60978 -6.3618
106 2 5.41467 1.80489 3.60978 -7.07261
9 1 7.21956 0 0 -8.17878
10 1 9.02445 1.80489 0 -8.34567
11 2 9.02445 0 1.80489 -7.02083
12 2 7.21956 1.80489 1.80489 -7.14634
109 2 7.21956 0 3.60978 -7.03272
110 1 9.02445 1.80489 3.60978 -8.20566
13 3 10.8293 0 0 -6.40068
14 1 12.6342 1.80489 0 -8.6481
15 3 12.6342 0 1.80489 -6.27165
16 3 10.8293 1.80489 1.80489 -6.39096
113 1 10.8293 0 3.60978 -8.08879
114 3 12.6342 1.80489 3.60978 -6.36428
17 3 14.4391 0 0 -6.24511
18 3 16.244 1.80489 0 -6.4593
19 1 16.244 0 1.80489 -8.45852
20 3 14.4391 1.80489 1.80489 -6.38396
117 3 14.4391 0 3.60978 -6.36807
118 1 16.244 1.80489 3.60978 -8.19209
21 1 0 3.60978 0 -8.30551
22 2 1.80489 5.41467 0 -7.04316
23 2 1.80489 3.60978 1.80489 -7.04484
24 2 0 5.41467 1.80489 -7.03995
121 2 0 3.60978 3.60978 -7.10397
122 1 1.80489 5.41467 3.60978 -8.22791
25 3 3.60978 3.60978 0 -6.55462
26 1 5.41467 5.41467 0 -8.21845
27 2 5.41467 3.60978 1.80489 -7.14055
28 2 3.60978 5.41467 1.80489 -7.05686
125 2 3.60978 3.60978 3.60978 -7.16413
126 2 5.41467 5.41467 3.60978 -7.12868
29 2 7.21956 3.60978 0 -7.07827
30 2 9.02445 5.41467 0 -7.00465
31 2 9.02445 3.60978 1.80489 -7.13951
32 3 7.21956 5.41467 1.80489 -6.63777
129 2 7.21956 3.60978 3.60978 -7.23214
130 2 9.02445 5.41467 3.60978 -7.11026
33 2 10.8293 3.60978 0 -7.01356
34 2 12.6342 5.41467 0 -6.96725
35 3 12.6342 3.60978 1.80489 -6.42301
36 1 10.8293 5.41467 1.80489 -8.21328
133 1 10.8293 3.60978 3.60978 -8.19991
134 3 12.6342 5.41467 3.60978 -6.45715
37 3 14.4391 3.60978 0 -6.52908
38 3 16.244 5.41467 0 -6.5214
39 2 16.244 3.60978 1.80489 -6.8519
40 3 14.4391 5.41467 1.80489 -6.60159
137 1 14.4391 3.60978 3.60978 -8.46616
138 3 16.244 5.41467 3.60978 -6.52255
41 3 0 7.21956 0 -6.50402
42 3 1.80489 9.02445 0 -6.43036
43 3 1.80489 7.21956 1.80489 -6.42701
44 1 0 9.02445 1.80489 -8.27536
141 3 0 7.21956 3.60978 -6.3451
142 1 1.80489 9.02445 3.60978 -8.24479
45 3 3.60978 7.21956 0 -6.48181
46 2 5.41467 9.02445 0 -6.93486
47 1 5.41467 7.21956 1.80489 -8.1251
48 1 3.60978 9.02445 1.80489 -8.16738
145 1 3.60978 7.21956 3.60978 -8.07103
146 3 5.41467 9.02445 3.60978 -6.27354
49 1 7.21956 7.21956 0 -8.14312
50 1 9.02445 9.02445 0 -8.30173
51 3 9.02445 7.21956 1.80489 -6.46594
52 3 7.21956 9.02445 1.80489 -6.37486
149 2 7.21956 7.21956 3.60978 -7.02592
150 3 9.02445 9.02445 3.60978 -6.5722
53 2 10.8293 7.21956 0 -6.95589
54 1 12.6342 9.02445 0 -8.38957
55 2 12.6342 7.21956 1.80489 -7.06131
56 3 10.8293 9.02445 1.80489 -6.52154
153 1 10.8293 7.21956 3.60978 -8.28999
154 2 12.6342 9.02445 3.60978 -7.07865
57 3 14.4391 7.21956 0 -6.56245
58 3 16.244 9.02445 0 -6.57008
59 3 16.244 7.21956 1.80489 -6.51689
60 3 14.4391 9.02445 1.80489 -6.67671
157 2 14.4391 7.21956 3.60978 -7.01614
158 3 16.244 9.02445 3.60978 -6.49576
61 2 0 10.8293 0 -6.97555
62 3 1.80489 12.6342 0 -6.36039
63 3 1.80489 10.8293 1.80489 -6.37266
64 3 0 12.6342 1.80489 -6.41929
161 2 0 10.8293 3.60978 -6.96179
162 1 1.80489 12.6342 3.60978 -8.20417
65 1 3.60978 10.8293 0 -8.08287
66 1 5.41467 12.6342 0 -8.09003
67 1 5.41467 10.8293 1.80489 -8.13045
68 2 3.60978 12.6342 1.80489 -6.89622
165 3 3.60978 10.8293 3.60978 -6.21548
166 1 5.41467 12.6342 3.60978 -8.28772
69 1 7.21956 10.8293 0 -8.05003
70 1 9.02445 12.6342 0 -8.1482
71 2 9.02445 10.8293 1.80489 -7.00235
72 2 7.21956 12.6342 1.80489 -6.98408
169 3 7.21956 10.8293 3.60978 -6.37944
170 1 9.02445 12.6342 3.60978 -8.42372
73 1 10.8293 10.8293 0 -8.27009
74 3 12.6342 12.6342 0 -6.53282
75 2 12.6342 10.8293 1.80489 -7.01732
76 2 10.8293 12.6342 1.80489 -7.03922
173 3 10.8293 10.8293 3.60978 -6.56398
174 1 12.6342 12.6342 3.60978 -8.09927
77 2 14.4391 10.8293 0 -7.06949
78 2 16.244 12.6342 0 -7.09796
79 2 16.244 10.8293 1.80489 -7.05523
80 3 14.4391 12.6342 1.80489 -6.60203
177 2 14.4391 10.8293 3.60978 -7.04797
178 1 16.244 12.6342 3.60978 -8.42363
81 1 0 14.4391 0 -8.1981
82 3 1.80489 16.244 0 -6.28546
83 1 1.80489 14.4391 1.80489 -8.35457
84 3 0 16.244 1.80489 -6.45996
181 2 0 14.4391 3.60978 -7.03204
182 3 1.80489 16.244 3.60978 -6.51123
85 3 3.60978 14.4391 0 -6.33487
86 3 5.41467 16.244 0 -6.36356
87 3 5.41467 14.4391 1.80489 -6.44977
88 2 3.60978 16.244 1.80489 -6.91075
185 3 3.60978 14.4391 3.60978 -6.43108
186 1 5.41467 16.244 3.60978 -8.30039
89 2 7.21956 14.4391 0 -6.99071
90 3 9.02445 16.244 0 -6.50149
91 3 9.02445 14.4391 1.80489 -6.42983
92 2 7.21956 16.244 1.80489 -7.03707
189 3 7.21956 14.4391 3.60978 -6.37938
190 1 9.02445 16.244 3.60978 -8.22277
93 1 10.8293 14.4391 0 -8.35984
94 2 12.6342 16.244 0 -7.01987
95 1 12.6342 14.4391 1.80489 -8.27124
96 2 10.8293 16.244 1.80489 -7.07437
193 1 10.8293 14.4391 3.60978 -8.07538
194 2 12.6342 16.244 3.60978 -7.03846
97 3 14.4391 14.4391 0 -6.58915
98 1 16.244 16.244 0 -8.35067
99 2 16.244 14.4391 1.80489 -6.97535
100 3 14.4391 16.244 1.80489 -6.52112
197 2 14.4391 14.4391 3.60978 -7.00251
198 3 16.244 16.244 3.60978 -6.52342
103 2 1.80489 0 5.41467 -6.97315
104 1 0 1.80489 5.41467 -8.03138
201 2 0 0 7.21956 -6.96264
202 1 1.80489 1.80489 7.21956 -8.35412
107 1 5.41467 0 5.41467 -8.3257
108 3 3.60978 1.80489 5.41467 -6.42132
203 3 3.60978 0 7.21956 -6.32771
204 1 5.41467 1.80489 7.21956 -8.37068
111 3 9.02445 0 5.41467 -6.522
112 3 7.21956 1.80489 5.41467 -6.56743
205 2 7.21956 0 7.21956 -7.00849
206 3 9.02445 1.80489 7.21956 -6.54985
115 1 12.6342 0 5.41467 -8.27118
116 1 10.8293 1.80489 5.41467 -8.18529
207 2 10.8293 0 7.21956 -6.9509
208 2 12.6342 1.80489 7.21956 -6.98926
119 2 16.244 0 5.41467 -7.03651
120 2 14.4391 1.80489 5.41467 -7.02822
209 2 14.4391 0 7.21956 -7.02408
210 1 16.244 1.80489 7.21956 -8.2357
123 1 1.80489 3.60978 5.41467 -8.00164
124 1 0 5.41467 5.41467 -8.11706
211 2 0 3.60978 7.21956 -7.09592
212 1 1.80489 5.41467 7.21956 -8.25154
127 2 5.41467 3.60978 5.41467 -7.116
128 2 3.60978 5.41467 5.41467 -7.0406
213 2 3.60978 3.60978 7.21956 -7.0248
214 1 5.41467 5.41467 7.21956 -8.38864
131 2 9.02445 3.60978 5.41467 -7.06652
132 2 7.21956 5.41467 5.41467 -7.12276
215 3 7.21956 3.60978 7.21956 -6.43625
216 1 9.02445 5.41467 7.21956 -8.22724
135 3 12.6342 3.60978 5.41467 -6.41551
136 1 10.8293 5.41467 5.41467 -8.04953
217 2 10.8293 3.60978 7.21956 -6.94798
218 1 12.6342 5.41467 7.21956 -8.27783
139 2 16.244 3.60978 5.41467 -7.00102
140 2 14.4391 5.41467 5.41467 -7.01087
219 3 14.4391 3.60978 7.21956 -6.46203
220 2 16.244 5.41467 7.21956 -6.93682
143 3 1.80489 7.21956 5.41467 -6.33525
144 3 0 9.02445 5.41467 -6.39363
221 3 0 7.21956 7.21956 -6.36341
222 2 1.80489 9.02445 7.21956 -6.89456
147 3 5.41467 7.21956 5.41467 -6.43623
148 1 3.60978 9.02445 5.41467 -8.21518
223 2 3.60978 7.21956 7.21956 -6.99041
224 1 5.41467 9.02445 7.21956 -8.08465
151 2 9.02445 7.21956 5.41467 -7.09473
152 1 7.21956 9.02445 5.41467 -8.2829
225 3 7.21956 7.21956 7.21956 -6.35952
226 1 9.02445 9.02445 7.21956 -8.10875
155 2 12.6342 7.21956 5.41467 -7.05335
156 2 10.8293 9.02445 5.41467 -7.01357
227 1 10.8293 7.21956 7.21956 -8.04375
228 2 12.6342 9.02445 7.21956 -6.98999
159 1 16.244 7.21956 5.41467 -8.38288
160 1 14.4391 9.02445 5.41467 -8.26067
229 3 14.4391 7.21956 7.21956 -6.44973
230 3 16.244 9.02445 7.21956 -6.29524
163 2 1.80489 10.8293 5.41467 -6.9842
164 1 0 12.6342 5.41467 -8.12498
231 3 0 10.8293 7.21956 -6.33133
232 1 1.80489 12.6342 7.21956 -8.12508
167 1 5.41467 10.8293 5.41467 -8.12264
168 1 3.60978 12.6342 5.41467 -8.09428
233 3 3.60978 10.8293 7.21956 -6.28265
234 1 5.41467 12.6342 7.21956 -8.0984
171 2 9.02445 10.8293 5.41467 -6.93118
172 3 7.21956 12.6342 5.41467 -6.28528
235 3 7.21956 10.8293 7.21956 -6.33168
236 1 9.02445 12.6342 7.21956 -8.31412
175 1 12.6342 10.8293 5.41467 -8.22555
176 2 10.8293 12.6342 5.41467 -7.01853
237 3 10.8293 10.8293 7.21956 -6.50032
238 3 12.6342 12.6342 7.21956 -6.38565
179 3 16.244 10.8293 5.41467 -6.35096
180 1 14.4391 12.6342 5.41467 -8.02266
239 1 14.4391 10.8293 7.21956 -8.2249
240 3 16.244 12.6342 7.21956 -6.36331
183 2 1.80489 14.4391 5.41467 -7.10958
184 2 0 16.244 5.41467 -7.11579
241 2 0 14.4391 7.21956 -7.13734
242 2 1.80489 16.244 7.21956 -7.23128
187 2 5.41467 14.4391 5.41467 -6.99452
188 2 3.60978 16.244 5.41467 -7.13341
243 2 3.60978 14.4391 7.21956 -7.15149
244 1 5.41467 16.244 7.21956 -8.17058
191 3 9.02445 14.4391 5.41467 -6.32707
192 3 7.21956 16.244 5.41467 -6.34626
245 1 7.21956 14.4391 7.21956 -8.0841
246 2 9.02445 16.244 7.21956 -7.00097
195 2 12.6342 14.4391 5.41467 -7.04285
196 2 10.8293 16.244 5.41467 -7.13952
247 1 10.8293 14.4391 7.21956 -8.21674
248 2 12.6342 16.244 7.21956 -7.1045
199 2 16.244 14.4391 5.41467 -6.98009
200 3 14.4391 16.244 5.41467 -6.5564
249 1 14.4391 14.4391 7.21956 -8.24227
250 2 16.244 16.244 7.21956 -6.97023
251 3 1.80489 0 9.02445 -6.41358
252 3 0 1.80489 9.02445 -6.48299
301 1 0 0 10.8293 -8.36139
302 2 1.80489 1.80489 10.8293 -6.95179
303 1 1.80489 0 12.6342 -8.31123
304 2 0 1.80489 12.6342 -7.06285
253 1 5.41467 0 9.02445 -8.21316
254 3 3.60978 1.80489 9.02445 -6.4368
305 1 3.60978 0 10.8293 -8.26109
306 3 5.41467 1.80489 10.8293 -6.40364
307 3 5.41467 0 12.6342 -6.36628
308 3 3.60978 1.80489 12.6342 -6.45943
255 3 9.02445 0 9.02445 -6.65726
256 3 7.21956 1.80489 9.02445 -6.42833
309 2 7.21956 0 10.8293 -6.91308
310 2 9.02445 1.80489 10.8293 -7.053
311 2 9.02445 0 12.6342 -7.08941
312 1 7.21956 1.80489 12.6342 -8.15378
257 3 12.6342 0 9.02445 -6.65133
258 3 10.8293 1.80489 9.02445 -6.55785
313 2 10.8293 0 10.8293 -7.08347
314 3 12.6342 1.80489 10.8293 -6.476
315 2 12.6342 0 12.6342 -7.09941
316 2 10.8293 1.80489 12.6342 -7.03839
259 1 16.244 0 9.02445 -8.23094
260 3 14.4391 1.80489 9.02445 -6.45541
317 1 14.4391 0 10.8293 -8.18451
318 2 16.244 1.80489 10.8293 -7.01748
319 2 16.244 0 12.6342 -6.97361
320 1 14.4391 1.80489 12.6342 -8.16846
261 2 1.80489 3.60978 9.02445 -7.04155
262 3 0 5.41467 9.02445 -6.43411
321 1 0 3.60978 10.8293 -8.3804
322 1 1.80489 5.41467 10.8293 -8.09497
323 3 1.80489 3.60978 12.6342 -6.50837
324 2 0 5.41467 12.6342 -6.97466
263 3 5.41467 3.60978 9.02445 -6.43538
264 1 3.60978 5.41467 9.02445 -8.19601
325 2 3.60978 3.60978 10.8293 -6.99981
326 3 5.41467 5.41467 10.8293 -6.55091
327 2 5.41467 3.60978 12.6342 -6.99274
328 2 3.60978 5.41467 12.6342 -7.0966
265 1 9.02445 3.60978 9.02445 -8.22121
266 3 7.21956 5.41467 9.02445 -6.4001
329 1 7.21956 3.60978 10.8293 -8.22518
330 1 9.02445 5.41467 10.8293 -8.06013
331 1 9.02445 3.60978 12.6342 -8.08326
332 1 7.21956 5.41467 12.6342 -8.18526
267 1 12.6342 3.60978 9.02445 -8.31547
268 3 10.8293 5.41467 9.02445 -6.26928
333 1 10.8293 3.60978 10.8293 -8.26318
334 3 12.6342 5.41467 10.8293 -6.32516
335 3 12.6342 3.60978 12.6342 -6.43531
336 2 10.8293 5.41467 12.6342 -6.91109
269 1 16.244 3.60978 9.02445 -8.2652
270 3 14.4391 5.41467 9.02445 -6.44731
337 2 14.4391 3.60978 10.8293 -6.89836
338 2 16.244 5.41467 10.8293 -6.94042
339 1 16.244 3.60978 12.6342 -8.15987
340 3 14.4391 5.41467 12.6342 -6.3401
271 3 1.80489 7.21956 9.02445 -6.43524
272 3 0 9.02445 9.02445 -6.47154
341 1 0 7.21956 10.8293 -8.39894
342 3 1.80489 9.02445 10.8293 -6.49239
343 1 1.80489 7.21956 12.6342 -8.24624
344 3 0 9.02445 12.6342 -6.34165
273 2 5.41467 7.21956 9.02445 -7.05318
274 1 3.60978 9.02445 9.02445 -8.41736
345 2 3.60978 7.21956 10.8293 -7.05206
346 3 5.41467 9.02445 10.8293 -6.56829
347 2 5.41467 7.21956 12.6342 -7.10643
348 2 3.60978 9.02445 12.6342 -6.98982
275 2 9.02445 7.21956 9.02445 -7.01545
276 1 7.21956 9.02445 9.02445 -8.17179
349 2 7.21956 7.21956 10.8293 -6.96771
350 3 9.02445 9.02445 10.8293 -6.5105
351 3 9.02445 7.21956 12.6342 -6.36815
352 3 7.21956 9.02445 12.6342 -6.51949
277 3 12.6342 7.21956 9.02445 -6.31036
278 1 10.8293 9.02445 9.02445 -8.22736
353 1 10.8293 7.21956 10.8293 -8.44631
354 3 12.6342 9.02445 10.8293 -6.40078
355 3 12.6342 7.21956 12.6342 -6.26051
356 3 10.8293 9.02445 12.6342 -6.46876
279 3 16.244 7.21956 9.02445 -6.40362
280 1 14.4391 9.02445 9.02445 -8.40888
357 1 14.4391 7.21956 10.8293 -8.42721
358 2 16.244 9.02445 10.8293 -6.93511
359 3 16.244 7.21956 12.6342 -6.3267
360 1 14.4391 9.02445 12.6342 -8.11834
281 3 1.80489 10.8293 9.02445 -6.45088
282 1 0 12.6342 9.02445 -8.20037
361 2 0 10.8293 10.8293 -6.9653
362 2 1.80489 12.6342 10.8293 -7.07509
363 1 1.80489 10.8293 12.6342 -8.43344
364 2 0 12.6342 12.6342 -7.03288
283 2 5.41467 10.8293 9.02445 -7.02492
284 1 3.60978 12.6342 9.02445 -8.11155
365 2 3.60978 10.8293 10.8293 -7.01784
366 2 5.41467 12.6342 10.8293 -7.08635
367 1 5.41467 10.8293 12.6342 -8.25007
368 3 3.60978 12.6342 12.6342 -6.46313
285 2 9.02445 10.8293 9.02445 -7.06877
286 2 7.21956 12.6342 9.02445 -7.09882
369 1 7.21956 10.8293 10.8293 -8.25492
370 2 9.02445 12.6342 10.8293 -7.10453
371 2 9.02445 10.8293 12.6342 -7.03921
372 2 7.21956 12.6342 12.6342 -7.08031
287 2 12.6342 10.8293 9.02445 -6.97119
288 3 10.8293 12.6342 9.02445 -6.48382
373 2 10.8293 10.8293 10.8293 -7.02445
374 1 12.6342 12.6342 10.8293 -8.35049
375 2 12.6342 10.8293 12.6342 -6.99099
376 3 10.8293 12.6342 12.6342 -6.56092
289 3 16.244 10.8293 9.02445 -6.40321
290 2 14.4391 12.6342 9.02445 -6.88781
377 3 14.4391 10.8293 10.8293 -6.44052
378 3 16.244 12.6342 10.8293 -6.3887
379 1 16.244 10.8293 12.6342 -8.19085
380 3 14.4391 12.6342 12.6342 -6.39497
291 2 1.80489 14.4391 9.02445 -7.19493
292 3 0 16.244 9.02445 -6.70816
381 2 0 14.4391 10.8293 -7.06078
382 2 1.80489 16.244 10.8293 -7.11419
383 2 1.80489 14.4391 12.6342 -6.98556
384 3 0 16.244 12.6342 -6.48112
293 2 5.41467 14.4391 9.02445 -7.1522
294 2 3.60978 16.244 9.02445 -7.17156
385 1 3.60978 14.4391 10.8293 -8.25832
386 1 5.41467 16.244 10.8293 -8.2067
387 2 5.41467 14.4391 12.6342 -7.00535
388 3 3.60978 16.244 12.6342 -6.46337
295 2 9.02445 14.4391 9.02445 -7.12009
296 1 7.21956 16.244 9.02445 -8.09896
389 2 7.21956 14.4391 10.8293 -7.1202
390 2 9.02445 16.244 10.8293 -7.0596
391 3 9.02445 14.4391 12.6342 -6.51983
392 1 7.21956 16.244 12.6342 -8.22083
297 1 12.6342 14.4391 9.02445 -8.07845
298 2 10.8293 16.244 9.02445 -7.07357
393 1 10.8293 14.4391 10.8293 -8.23413
394 3 12.6342 16.244 10.8293 -6.3185
395 3 12.6342 14.4391 12.6342 -6.29872
396 1 10.8293 16.244 12.6342 -8.3065
299 3 16.244 14.4391 9.02445 -6.40068
300 1 14.4391 16.244 9.02445 -8.18422
397 3 14.4391 14.4391 10.8293 -6.29067
398 1 16.244 16.244 10.8293 -8.17758
399 1 16.244 14.4391 12.6342 -8.11572
400 1 14.4391 16.244 12.6342 -8.28518
401 3 0 0 14.4391 -6.62066
402 2 1.80489 1.80489 14.4391 -6.96597
403 3 1.80489 0 16.244 -6.62608
404 2 0 1.80489 16.244 -7.02961
405 3 3.60978 0 14.4391 -6.53222
406 3 5.41467 1.80489 14.4391 -6.34101
407 2 5.41467 0 16.244 -7.02367
408 1 3.60978 1.80489 16.244 -8.20323
409 1 7.21956 0 14.4391 -8.16677
410 2 9.02445 1.80489 14.4391 -7.08888
411 1 9.02445 0 16.244 -7.95448
412 2 7.21956 1.80489 16.244 -7.08696
413 1 10.8293 0 14.4391 -8.11368
414 1 12.6342 1.80489 14.4391 -8.1483
415 1 12.6342 0 16.244 -8.19048
416 1 10.8293 1.80489 16.244 -7.92587
417 2 14.4391 0 14.4391 -7.05524
418 2 16.244 1.80489 14.4391 -7.07156
419 1 16.244 0 16.244 -8.12001
420 2 14.4391 1.80489 16.244 -7.09685
421 3 0 3.60978 14.4391 -6.56778
422 1 1.80489 5.41467 14.4391 -8.35249
423 3 1.80489 3.60978 16.244 -6.41298
424 3 0 5.41467 16.244 -6.40364
425 1 3.60978 3.60978 14.4391 -8.22606
426 2 5.41467 5.41467 14.4391 -7.09453
427 1 5.41467 3.60978 16.244 -8.04747
428 3 3.60978 5.41467 16.244 -6.34594
429 1 7.21956 3.60978 14.4391 -8.03653
430 3 9.02445 5.41467 14.4391 -6.32175
431 1 9.02445 3.60978 16.244 -8.18227
432 2 7.21956 5.41467 16.244 -7.04489
433 3 10.8293 3.60978 14.4391 -6.36908
434 1 12.6342 5.41467 14.4391 -8.33577
435 2 12.6342 3.60978 16.244 -6.97875
436 3 10.8293 5.41467 16.244 -6.22617
437 3 14.4391 3.60978 14.4391 -6.38044
438 1 16.244 5.41467 14.4391 -8.14238
439 3 16.244 3.60978 16.244 -6.4424
440 2 14.4391 5.41467 16.244 -7.02048
441 3 0 7.21956 14.4391 -6.38849
442 3 1.80489 9.02445 14.4391 -6.42417
443 2 1.80489 7.21956 16.244 -7.02191
444 1 0 9.02445 16.244 -8.25409
445 2 3.60978 7.21956 14.4391 -7.04511
446 1 5.41467 9.02445 14.4391 -8.18176
447 1 5.41467 7.21956 16.244 -8.12595
448 1 3.60978 9.02445 16.244 -8.20118
449 2 7.21956 7.21956 14.4391 -7.03464
450 1 9.02445 9.02445 14.4391 -8.30602
451 1 9.02445 7.21956 16.244 -8.2652
452 2 7.21956 9.02445 16.244 -6.95673
453 1 10.8293 7.21956 14.4391 -8.16093
454 1 12.6342 9.02445 14.4391 -8.16942
455 1 12.6342 7.21956 16.244 -8.17785
456 2 10.8293 9.02445 16.244 -7.07118
457 1 14.4391 7.21956 14.4391 -8.02672
458 2 16.244 9.02445 14.4391 -7.01511
459 1 16.244 7.21956 16.244 -8.08296
460 3 14.4391 9.02445 16.244 -6.36341
461 1 0 10.8293 14.4391 -8.30074
462 3 1.80489 12.6342 14.4391 -6.43539
463 3 1.80489 10.8293 16.244 -6.52599
464 3 0 12.6342 16.244 -6.47921
465 3 3.60978 10.8293 14.4391 -6.43308
466 1 5.41467 12.6342 14.4391 -8.16387
467 2 5.41467 10.8293 16.244 -6.91264
468 2 3.60978 12.6342 16.244 -6.96349
469 3 7.21956 10.8293 14.4391 -6.4385
470 3 9.02445 12.6342 14.4391 -6.60101
471 3 9.02445 10.8293 16.244 -6.51461
472 1 7.21956 12.6342 16.244 -8.29935
473 2 10.8293 10.8293 14.4391 -7.0592
474 3 12.6342 12.6342 14.4391 -6.50489
475 2 12.6342 10.8293 16.244 -7.10689
476 2 10.8293 12.6342 16.244 -7.04616
477 2 14.4391 10.8293 14.4391 -6.92695
478 3 16.244 12.6342 14.4391 -6.2694
479 3 16.244 10.8293 16.244 -6.32172
480 1 14.4391 12.6342 16.244 -8.22738
481 1 0 14.4391 14.4391 -8.45927
482 3 1.80489 16.244 14.4391 -6.37382
483 3 1.80489 14.4391 16.244 -6.40852
484 3 0 16.244 16.244 -6.33716
485 1 3.60978 14.4391 14.4391 -8.31867
486 1 5.41467 16.244 14.4391 -8.35882
487 1 5.41467 14.4391 16.244 -8.06256
488 3 3.60978 16.244 16.244 -6.2461
489 3 7.21956 14.4391 14.4391 -6.43639
490 2 9.02445 16.244 14.4391 -6.97103
491 2 9.02445 14.4391 16.244 -6.97039
492 3 7.21956 16.244 16.244 -6.39683
493 1 10.8293 14.4391 14.4391 -8.32932
494 3 12.6342 16.244 14.4391 -6.30385
495 1 12.6342 14.4391 16.244 -8.24542
496 2 10.8293 16.244 16.244 -7.02066
497 1 14.4391 14.4391 14.4391 -8.28934
498 3 16.244 16.244 14.4391 -6.26778
499 3 16.244 14.4391 16.244 -6.43486
500 3 14.4391 16.244 16.244 -6.41296
501 2 0 0 18.0489 -7.17558
502 3 1.80489 1.80489 18.0489 -6.46965
503 2 1.80489 0 19.8538 -7.0655
504 2 0 1.80489 19.8538 -7.09048
601 2 0 0 21.6587 -7.17099
602 2 1.80489 1.80489 21.6587 -6.98145
505 1 3.60978 0 18.0489 -8.19574
506 2 5.41467 1.80489 18.0489 -7.08965
507 2 5.41467 0 19.8538 -7.09776
508 3 3.60978 1.80489 19.8538 -6.57107
605 3 3.60978 0 21.6587 -6.51145
606 2 5.41467 1.80489 21.6587 -7.08284
509 1 7.21956 0 18.0489 -8.03168
510 1 9.02445 1.80489 18.0489 -7.89175
511 2 9.02445 0 19.8538 -7.08517
512 2 7.21956 1.80489 19.8538 -7.13648
609 1 7.21956 0 21.6587 -8.20902
610 3 9.02445 1.80489 21.6587 -6.42855
513 1 10.8293 0 18.0489 -7.89107
514 3 12.6342 1.80489 18.0489 -6.48666
515 1 12.6342 0 19.8538 -8.19171
516 2 10.8293 1.80489 19.8538 -7.00985
613 3 10.8293 0 21.6587 -6.40862
614 2 12.6342 1.80489 21.6587 -7.05278
517 2 14.4391 0 18.0489 -7.04922
518 2 16.244 1.80489 18.0489 -7.10178
519 2 16.244 0 19.8538 -7.01326
520 2 14.4391 1.80489 19.8538 -7.16005
617 1 14.4391 0 21.6587 -7.90491
618 1 16.244 1.80489 21.6587 -8.23218
521 1 0 3.60978 18.0489 -8.26964
522 2 1.80489 5.41467 18.0489 -7.01518
523 1 1.80489 3.60978 19.8538 -8.2055
524 1 0 5.41467 19.8538 -8.22594
621 3 0 3.60978 21.6587 -6.48034
622 2 1.80489 5.41467 21.6587 -7.03644
525 1 3.60978 3.60978 18.0489 -8.09417
526 1 5.41467 5.41467 18.0489 -8.0319
527 2 5.41467 3.60978 19.8538 -7.11774
528 2 3.60978 5.41467 19.8538 -7.09441
625 3 3.60978 3.60978 21.6587 -6.6293
626 2 5.41467 5.41467 21.6587 -7.0534
529 2 7.21956 3.60978 18.0489 -7.04884
530 3 9.02445 5.41467 18.0489 -6.384
531 1 9.02445 3.60978 19.8538 -8.18037
532 2 7.21956 5.41467 19.8538 -7.10026
629 2 7.21956 3.60978 21.6587 -7.09558
630 1 9.02445 5.41467 21.6587 -8.23152
533 1 10.8293 3.60978 18.0489 -7.99026
534 1 12.6342 5.41467 18.0489 -8.15609
535 2 12.6342 3.60978 19.8538 -7.06418
536 1 10.8293 5.41467 19.8538 -8.0865
633 3 10.8293 3.60978 21.6587 -6.43384
634 2 12.6342 5.41467 21.6587 -7.01638
537 2 14.4391 3.60978 18.0489 -7.17009
538 1 16.244 5.41467 18.0489 -8.24799
539 2 16.244 3.60978 19.8538 -7.0081
540 3 14.4391 5.41467 19.8538 -6.44204
637 3 14.4391 3.60978 21.6587 -6.56881
638 1 16.244 5.41467 21.6587 -8.23938
541 2 0 7.21956 18.0489 -7.07449
542 2 1.80489 9.02445 18.0489 -7.13877
543 2 1.80489 7.21956 19.8538 -7.11596
544 2 0 9.02445 19.8538 -7.195
641 2 0 7.21956 21.6587 -7.0805
642 3 1.80489 9.02445 21.6587 -6.58263
545 1 3.60978 7.21956 18.0489 -8.10127
546 1 5.41467 9.02445 18.0489 -8.09063
547 1 5.41467 7.21956 19.8538 -8.04755
548 3 3.60978 9.02445 19.8538 -6.45633
645 1 3.60978 7.21956 21.6587 -8.21209
646 1 5.41467 9.02445 21.6587 -7.93678
549 3 7.21956 7.21956 18.0489 -6.36851
550 1 9.02445 9.02445 18.0489 -8.29802
551 2 9.02445 7.21956 19.8538 -6.963
552 2 7.21956 9.02445 19.8538 -7.03828
649 2 7.21956 7.21956 21.6587 -7.07988
650 2 9.02445 9.02445 21.6587 -7.0337
553 3 10.8293 7.21956 18.0489 -6.31677
554 2 12.6342 9.02445 18.0489 -7.0398
555 1 12.6342 7.21956 19.8538 -8.18572
556 1 10.8293 9.02445 19.8538 -8.20603
653 3 10.8293 7.21956 21.6587 -6.54352
654 2 12.6342 9.02445 21.6587 -7.12053
557 3 14.4391 7.21956 18.0489 -6.24428
558 3 16.244 9.02445 18.0489 -6.21184
559 1 16.244 7.21956 19.8538 -8.19909
560 1 14.4391 9.02445 19.8538 -7.98252
657 2 14.4391 7.21956 21.6587 -7.07747
658 1 16.244 9.02445 21.6587 -8.01748
561 2 0 10.8293 18.0489 -7.11891
562 3 1.80489 12.6342 18.0489 -6.6444
563 2 1.80489 10.8293 19.8538 -7.1687
564 2 0 12.6342 19.8538 -7.1296
661 3 0 10.8293 21.6587 -6.69718
662 2 1.80489 12.6342 21.6587 -7.09229
565 2 3.60978 10.8293 18.0489 -7.07894
566 1 5.41467 12.6342 18.0489 -7.99329
567 1 5.41467 10.8293 19.8538 -8.00116
568 1 3.60978 12.6342 19.8538 -8.23153
665 2 3.60978 10.8293 21.6587 -6.99933
666 3 5.41467 12.6342 21.6587 -6.28364
569 3 7.21956 10.8293 18.0489 -6.29229
570 3 9.02445 12.6342 18.0489 -6.39011
571 3 9.02445 10.8293 19.8538 -6.34979
572 1 7.21956 12.6342 19.8538 -8.14343
669 1 7.21956 10.8293 21.6587 -8.12827
670 3 9.02445 12.6342 21.6587 -6.18436
573 2 10.8293 10.8293 18.0489 -7.0884
574 2 12.6342 12.6342 18.0489 -7.14436
575 2 12.6342 10.8293 19.8538 -7.04614
576 1 10.8293 12.6342 19.8538 -8.35109
673 1 10.8293 10.8293 21.6587 -8.22854
674 3 12.6342 12.6342 21.6587 -6.37874
577 1 14.4391 10.8293 18.0489 -8.2168
578 2 16.244 12.6342 18.0489 -7.04965
579 1 16.244 10.8293 19.8538 -8.01109
580 2 14.4391 12.6342 19.8538 -7.00269
677 1 14.4391 10.8293 21.6587 -8.11415
678 3 16.244 12.6342 21.6587 -6.36294
581 3 0 14.4391 18.0489 -6.54604
582 1 1.80489 16.244 18.0489 -8.38848
583 2 1.80489 14.4391 19.8538 -7.0296
584 2 0 16.244 19.8538 -6.99063
681 3 0 14.4391 21.6587 -6.59876
682 1 1.80489 16.244 21.6587 -8.21746
585 3 3.60978 14.4391 18.0489 -6.308
586 1 5.41467 16.244 18.0489 -8.0335
587 1 5.41467 14.4391 19.8538 -8.00347
588 1 3.60978 16.244 19.8538 -8.00794
685 2 3.60978 14.4391 21.6587 -7.11249
686 1 5.41467 16.244 21.6587 -8.04366
589 1 7.21956 14.4391 18.0489 -7.96948
590 2 9.02445 16.244 18.0489 -7.05517
591 1 9.02445 14.4391 19.8538 -8.21982
592 2 7.21956 16.244 19.8538 -6.97501
689 3 7.21956 14.4391 21.6587 -6.19027
690 3 9.02445 16.244 21.6587 -6.28335
593 3 10.8293 14.4391 18.0489 -6.54873
594 2 12.6342 16.244 18.0489 -7.0506
595 2 12.6342 14.4391 19.8538 -7.05051
596 1 10.8293 16.244 19.8538 -8.43843
693 3 10.8293 14.4391 21.6587 -6.32149
694 2 12.6342 16.244 21.6587 -7.06239
597 2 14.4391 14.4391 18.0489 -7.04945
598 1 16.244 16.244 18.0489 -8.42112
599 3 16.244 14.4391 19.8538 -6.55494
600 3 14.4391 16.244 19.8538 -6.73876
697 3 14.4391 14.4391 21.6587 -6.63464
698 2 16.244 16.244 21.6587 -7.04986
603 1 1.80489 0 23.4636 -8.34609
604 2 0 1.80489 23.4636 -6.90927
701 3 0 0 25.2684 -6.36994
702 1 1.80489 1.80489 25.2684 -8.19626
607 3 5.41467 0 23.4636 -6.4074
608 1 3.60978 1.80489 23.4636 -8.33732
703 2 3.60978 0 25.2684 -6.98301
704 2 5.41467 1.80489 25.2684 -6.96204
611 2 9.02445 0 23.4636 -7.04676
612 1 7.21956 1.80489 23.4636 -8.16611
705 1 7.21956 0 25.2684 -8.16136
706 2 9.02445 1.80489 25.2684 -7.03567
615 2 12.6342 0 23.4636 -7.12538
616 1 10.8293 1.80489 23.4636 -8.16433
707 1 10.8293 0 25.2684 -8.12241
708 1 12.6342 1.80489 25.2684 -8.03542
619 2 16.244 0 23.4636 -7.06689
620 1 14.4391 1.80489 23.4636 -8.08079
709 1 14.4391 0 25.2684 -8.19842
710 2 16.244 1.80489 25.2684 -7.01344
623 3 1.80489 3.60978 23.4636 -6.57455
624 3 0 5.41467 23.4636 -6.56441
711 3 0 3.60978 25.2684 -6.37266
712 3 1.80489 5.41467 25.2684 -6.59336
627 3 5.41467 3.60978 23.4636 -6.64004
628 3 3.60978 5.41467 23.4636 -6.62247
713 2 3.60978 3.60978 25.2684 -7.00686
714 3 5.41467 5.41467 25.2684 -6.65385
631 1 9.02445 3.60978 23.4636 -8.02843
632 3 7.21956 5.41467 23.4636 -6.51565
715 2 7.21956 3.60978 25.2684 -7.06156
716 1 9.02445 5.41467 25.2684 -8.13032
635 2 12.6342 3.60978 23.4636 -7.0513
636 3 10.8293 5.41467 23.4636 -6.39178
717 1 10.8293 3.60978 25.2684 -8.0063
718 1 12.6342 5.41467 25.2684 -8.09387
639 2 16.244 3.60978 23.4636 -7.00676
640 3 14.4391 5.41467 23.4636 -6.48936
719 2 14.4391 3.60978 25.2684 -6.97912
720 3 16.244 5.41467 25.2684 -6.35941
643 3 1.80489 7.21956 23.4636 -6.54854
644 1 0 9.02445 23.4636 -8.34911
721 3 0 7.21956 25.2684 -6.50041
722 2 1.80489 9.02445 25.2684 -6.99836
647 1 5.41467 7.21956 23.4636 -8.18739
648 1 3.60978 9.02445 23.4636 -8.0597
723 2 3.60978 7.21956 25.2684 -6.96437
724 2 5.41467 9.02445 25.2684 -7.09212
651 3 9.02445 7.21956 23.4636 -6.53269
652 2 7.21956 9.02445 23.4636 -7.057
725 2 7.21956 7.21956 25.2684 -6.97609
726 3 9.02445 9.02445 25.2684 -6.44054
655 2 12.6342 7.21956 23.4636 -7.07784
656 2 10.8293 9.02445 23.4636 -7.01037
727 1 10.8293 7.21956 25.2684 -8.14902
728 2 12.6342 9.02445 25.2684 -7.09423
659 1 16.244 7.21956 23.4636 -8.14566
660 2 14.4391 9.02445 23.4636 -7.13113
729 1 14.4391 7.21956 25.2684 -8.13149
730 2 16.244 9.02445 25.2684 -6.98993
663 2 1.80489 10.8293 23.4636 -7.06497
664 3 0 12.6342 23.4636 -6.46372
731 1 0 10.8293 25.2684 -7.98805
732 1 1.80489 12.6342 25.2684 -8.177
667 1 5.41467 10.8293 23.4636 -7.96408
668 3 3.60978 12.6342 23.4636 -6.44605
733 1 3.60978 10.8293 25.2684 -7.97614
734 1 5.41467 12.6342 25.2684 -7.99142
671 3 9.02445 10.8293 23.4636 -6.38169
672 1 7.21956 12.6342 23.4636 -8.16214
735 1 7.21956 10.8293 25.2684 -8.17172
736 3 9.02445 12.6342 25.2684 -6.38353
675 3 12.6342 10.8293 23.4636 -6.48172
676 1 10.8293 12.6342 23.4636 -8.44216
737 3 10.8293 10.8293 25.2684 -6.50007
738 3 12.6342 12.6342 25.2684 -6.41148
679 1 16.244 10.8293 23.4636 -8.0665
680 1 14.4391 12.6342 23.4636 -8.22183
739 2 14.4391 10.8293 25.2684 -7.01632
740 1 16.244 12.6342 25.2684 -7.98875
683 3 1.80489 14.4391 23.4636 -6.42104
684 3 0 16.244 23.4636 -6.39613
741 1 0 14.4391 25.2684 -8.29208
742 3 1.80489 16.244 25.2684 -6.3762
687 2 5.41467 14.4391 23.4636 -6.99871
688 2 3.60978 16.244 23.4636 -7.0361
743 1 3.60978 14.4391 25.2684 -8.34732
744 2 5.41467 16.244 25.2684 -7.1031
691 1 9.02445 14.4391 23.4636 -8.23204
692 1 7.21956 16.244 23.4636 -8.24403
745 2 7.21956 14.4391 25.2684 -7.06311
746 3 9.02445 16.244 25.2684 -6.3341
695 3 12.6342 14.4391 23.4636 -6.43977
696 1 10.8293 16.244 23.4636 -8.49262
747 2 10.8293 14.4391 25.2684 -6.90085
748 2 12.6342 16.244 25.2684 -7.00034
699 2 16.244 14.4391 23.4636 -7.02261
700 3 14.4391 16.244 23.4636 -6.686
749 1 14.4391 14.4391 25.2684 -8.32225
750 2 16.244 16.244 25.2684 -7.00621
751 2 1.80489 0 27.0733 -7.04066
752 1 0 1.80489 27.0733 -8.266
801 2 0 0 28.8782 -7.05732
802 2 1.80489 1.80489 28.8782 -6.97649
803 1 1.80489 0 30.6831 -8.00724
804 2 0 1.80489 30.6831 -7.03788
753 3 5.41467 0 27.0733 -6.33549
754 1 3.60978 1.80489 27.0733 -8.15329
805 1 3.60978 0 28.8782 -8.16046
806 1 5.41467 1.80489 28.8782 -8.09488
807 3 5.41467 0 30.6831 -6.39835
808 3 3.60978 1.80489 30.6831 -6.30048
755 3 9.02445 0 27.0733 -6.3941
756 1 7.21956 1.80489 27.0733 -8.16985
809 1 7.21956 0 28.8782 -8.39498
810 2 9.02445 1.80489 28.8782 -7.11374
811 2 9.02445 0 30.6831 -7.064
812 3 7.21956 1.80489 30.6831 -6.59974
757 3 12.6342 0 27.0733 -6.33619
758 2 10.8293 1.80489 27.0733 -7.09668
813 3 10.8293 0 28.8782 -6.52137
814 2 12.6342 1.80489 28.8782 -6.91588
815 1 12.6342 0 30.6831 -8.17076
816 2 10.8293 1.80489 30.6831 -7.05432
759 3 16.244 0 27.0733 -6.29866
760 3 14.4391 1.80489 27.0733 -6.30044
817 3 14.4391 0 28.8782 -6.22586
818 1 16.244 1.80489 28.8782 -8.13285
819 1 16.244 0 30.6831 -8.05083
820 3 14.4391 1.80489 30.6831 -6.20749
761 3 1.80489 3.60978 27.0733 -6.44065
762 3 0 5.41467 27.0733 -6.45581
821 1 0 3.60978 28.8782 -8.28606
822 2 1.80489 5.41467 28.8782 -6.92384
823 3 1.80489 3.60978 30.6831 -6.35827
824 1 0 5.41467 30.6831 -8.17815
763 2 5.41467 3.60978 27.0733 -7.16139
764 2 3.60978 5.41467 27.0733 -6.97055
825 1 3.60978 3.60978 28.8782 -8.28008
826 3 5.41467 5.41467 28.8782 -6.53024
827 2 5.41467 3.60978 30.6831 -7.0739
828 1 3.60978 5.41467 30.6831 -8.34583
765 2 9.02445 3.60978 27.0733 -7.13353
766 2 7.21956 5.41467 27.0733 -7.08256
829 2 7.21956 3.60978 28.8782 -7.05863
830 2 9.02445 5.41467 28.8782 -7.04496
831 3 9.02445 3.60978 30.6831 -6.59314
832 1 7.21956 5.41467 30.6831 -8.53702
767 1 12.6342 3.60978 27.0733 -8.1788
768 3 10.8293 5.41467 27.0733 -6.38801
833 2 10.8293 3.60978 28.8782 -7.05594
834 3 12.6342 5.41467 28.8782 -6.36868
835 3 12.6342 3.60978 30.6831 -6.45707
836 1 10.8293 5.41467 30.6831 -8.4596
769 1 16.244 3.60978 27.0733 -8.22356
770 3 14.4391 5.41467 27.0733 -6.16319
837 1 14.4391 3.60978 28.8782 -8.20307