ITEM: TIMESTEP
0
ITEM: NUMBER OF ATOMS
4000
ITEM: BOX BOUNDS pp pp pp
0.0000000000000000e+00 3.5966380000000001e+01
0.0000000000000000e+00 3.5966380000000001e+01
0.0000000000000000e+00 3.5966380000000001e+01
ITEM: ATOMS id type x y z c_peratom
1 3 0 0 0 -6.59598
2 3 1.79832 1.79832 0 -6.52948
3 2 1.79832 0 1.79832 -7.0501
4 1 0 1.79832 1.79832 -8.41249
101 3 0 0 3.59664 -6.35246
102 1 1.79832 1.79832 3.59664 -8.28852
5 3 3.59664 0 0 -6.71912
6 1 5.39496 1.79832 0 -8.29229
7 3 5.39496 0 1.79832 -6.56927
8 2 3.59664 1.79832 1.79832 -6.99795
105 2 3.59664 0 3.59664 -6.99024
106 1 5.39496 1.79832 3.59664 -8.28259
9 3 7.19328 0 0 -6.58727
10 1 8.9916 1.79832 0 -8.08982
11 1 8.9916 0 1.79832 -8.2397
12 2 7.19328 1.79832 1.79832 -6.93001
109 3 7.19328 0 3.59664 -6.30139
110 3 8.9916 1.79832 3.59664 -6.35116
13 1 10.7899 0 0 -8.00163
14 3 12.5882 1.79832 0 -6.41789
15 1 12.5882 0 1.79832 -8.2549
16 1 10.7899 1.79832 1.79832 -8.35692
113 3 10.7899 0 3.59664 -6.32617
114 3 12.5882 1.79832 3.59664 -6.39771
17 2 14.3866 0 0 -7.02493
18 3 16.1849 1.79832 0 -6.48014
19 2 16.1849 0 1.79832 -7.03149
20 3 14.3866 1.79832 1.79832 -6.46838
117 2 14.3866 0 3.59664 -7.03703
118 2 16.1849 1.79832 3.59664 -6.97958
21 2 0 3.59664 0 -6.94245
22 3 1.79832 5.39496 0 -6.52904
23 1 1.79832 3.59664 1.79832 -8.35835
24 3 0 5.39496 1.79832 -6.52685
121 3 0 3.59664 3.59664 -6.35223
122 2 1.79832 5.39496 3.59664 -6.96129
25 1 3.59664 3.59664 0 -8.28023
26 2 5.39496 5.39496 0 -6.97832
27 2 5.39496 3.59664 1.79832 -7.04739
28 2 3.59664 5.39496 1.79832 -7.04144
125 3 3.59664 3.59664 3.59664 -6.4501
126 1 5.39496 5.39496 3.59664 -8.46198
29 1 7.19328 3.59664 0 -8.0058
30 1 8.9916 5.39496 0 -8.06096
31 3 8.9916 3.59664 1.79832 -6.23158
32 1 7.19328 5.39496 1.79832 -8.09489
129 1 7.19328 3.59664 3.59664 -8.12714
130 1 8.9916 5.39496 3.59664 -8.19881
33 3 10.7899 3.59664 0 -6.27208
34 2 12.5882 5.39496 0 -6.97751
35 3 12.5882 3.59664 1.79832 -6.42985
36 1 10.7899 5.39496 1.79832 -8.42371
133 2 10.7899 3.59664 3.59664 -7.00111
134 2 12.5882 5.39496 3.59664 -6.98425
37 2 14.3866 3.59664 0 -7.01248
38 1 16.1849 5.39496 0 -8.2602
39 1 16.1849 3.59664 1.79832 -8.21655
40 1 14.3866 5.39496 1.79832 -8.25033
137 1 14.3866 3.59664 3.59664 -8.20715
138 1 16.1849 5.39496 3.59664 -8.02223
41 2 0 7.19328 0 -7.06583
42 2 1.79832 8.9916 0 -7.06081
43 2 1.79832 7.19328 1.79832 -7.0698
44 2 0 8.9916 1.79832 -6.98835
141 1 0 7.19328 3.59664 -8.10517
142 1 1.79832 8.9916 3.59664 -8.35374
45 1 3.59664 7.19328 0 -8.5209
46 3 5.39496 8.9916 0 -6.38112
47 3 5.39496 7.19328 1.79832 -6.32801
48 1 3.59664 8.9916 1.79832 -8.25636
145 2 3.59664 7.19328 3.59664 -6.93997
146 1 5.39496 8.9916 3.59664 -8.41874
49 1 7.19328 7.19328 0 -8.25188
50 2 8.9916 8.9916 0 -6.98869
51 3 8.9916 7.19328 1.79832 -6.4015
52 3 7.19328 8.9916 1.79832 -6.40135
149 3 7.19328 7.19328 3.59664 -6.35996
150 3 8.9916 8.9916 3.59664 -6.53517
53 2 10.7899 7.19328 0 -7.03324
54 2 12.5882 8.9916 0 -7.05109
55 3 12.5882 7.19328 1.79832 -6.51639
56 3 10.7899 8.9916 1.79832 -6.68439
153 3 10.7899 7.19328 3.59664 -6.47584
154 3 12.5882 8.9916 3.59664 -6.4867
57 2 14.3866 7.19328 0 -7.0284
58 1 16.1849 8.9916 0 -8.49937
59 2 16.1849 7.19328 1.79832 -6.92198
60 1 14.3866 8.9916 1.79832 -8.46557
157 3 14.3866 7.19328 3.59664 -6.31559
158 3 16.1849 8.9916 3.59664 -6.34375
61 2 0 10.7899 0 -7.12584
62 2 1.79832 12.5882 0 -7.01745
63 3 1.79832 10.7899 1.79832 -6.57363
64 1 0 12.5882 1.79832 -8.61373
161 3 0 10.7899 3.59664 -6.31446
162 2 1.79832 12.5882 3.59664 -7.02871
65 3 3.59664 10.7899 0 -6.58617
66 3 5.39496 12.5882 0 -6.53785
67 2 5.39496 10.7899 1.79832 -7.02091
68 2 3.59664 12.5882 1.79832 -7.03419
165 2 3.59664 10.7899 3.59664 -7.08393
166 2 5.39496 12.5882 3.59664 -7.04849
69 1 7.19328 10.7899 0 -8.50916
70 2 8.9916 12.5882 0 -7.01532
71 3 8.9916 10.7899 1.79832 -6.58275
72 3 7.19328 12.5882 1.79832 -6.52654
169 1 7.19328 10.7899 3.59664 -8.52149
170 3 8.9916 12.5882 3.59664 -6.44727
73 2 10.7899 10.7899 0 -7.09419
74 2 12.5882 12.5882 0 -7.01707
75 3 12.5882 10.7899 1.79832 -6.69879
76 3 10.7899 12.5882 1.79832 -6.62146
173 2 10.7899 10.7899 3.59664 -6.97519
174 2 12.5882 12.5882 3.59664 -7.02203
77 2 14.3866 10.7899 0 -7.06831
78 2 16.1849 12.5882 0 -7.02416
79 3 16.1849 10.7899 1.79832 -6.39216
80 3 14.3866 12.5882 1.79832 -6.5743
177 2 14.3866 10.7899 3.59664 -6.97038
178 1 16.1849 12.5882 3.59664 -8.14175
81 3 0 14.3866 0 -6.50742
82 2 1.79832 16.1849 0 -6.92055
83 3 1.79832 14.3866 1.79832 -6.56967
84 1 0 16.1849 1.79832 -8.44912
181 2 0 14.3866 3.59664 -7.0178
182 2 1.79832 16.1849 3.59664 -6.97178
85 1 3.59664 14.3866 0 -8.35482
86 3 5.39496 16.1849 0 -6.50679
87 3 5.39496 14.3866 1.79832 -6.57911
88 3 3.59664 16.1849 1.79832 -6.5126
185 3 3.59664 14.3866 3.59664 -6.6267
186 1 5.39496 16.1849 3.59664 -8.44388
89 2 7.19328 14.3866 0 -6.95485
90 3 8.9916 16.1849 0 -6.45062
91 1 8.9916 14.3866 1.79832 -8.44946
92 3 7.19328 16.1849 1.79832 -6.44436
189 3 7.19328 14.3866 3.59664 -6.45272
190 2 8.9916 16.1849 3.59664 -6.98486
93 1 10.7899 14.3866 0 -8.20043
94 1 12.5882 16.1849 0 -8.25693
95 2 12.5882 14.3866 1.79832 -7.03109
96 1 10.7899 16.1849 1.79832 -8.18701
193 3 10.7899 14.3866 3.59664 -6.46921
194 3 12.5882 16.1849 3.59664 -6.5299
97 1 14.3866 14.3866 0 -8.26048
98 1 16.1849 16.1849 0 -8.16656
99 1 16.1849 14.3866 1.79832 -8.03865
100 2 14.3866 16.1849 1.79832 -7.00013
197 3 14.3866 14.3866 3.59664 -6.52035
198 2 16.1849 16.1849 3.59664 -6.9999
103 2 1.79832 0 5.39496 -6.95124
104 1 0 1.79832 5.39496 -8.34061
201 3 0 0 7.19328 -6.27538
202 1 1.79832 1.79832 7.19328 -8.2314
107 1 5.39496 0 5.39496 -8.36477
108 3 3.59664 1.79832 5.39496 -6.41008
203 2 3.59664 0 7.19328 -6.97601
204 3 5.39496 1.79832 7.19328 -6.44367
111 1 8.9916 0 5.39496 -8.23815
112 1 7.19328 1.79832 5.39496 -8.02283
205 2 7.19328 0 7.19328 -7.00472
206 1 8.9916 1.79832 7.19328 -8.14216
115 1 12.5882 0 5.39496 -8.48589
116 2 10.7899 1.79832 5.39496 -7.00065
207 3 10.7899 0 7.19328 -6.44503
208 2 12.5882 1.79832 7.19328 -7.10974
119 2 16.1849 0 5.39496 -7.02083
120 3 14.3866 1.79832 5.39496 -6.47474
209 2 14.3866 0 7.19328 -7.09432
210 1 16.1849 1.79832 7.19328 -8.49415
123 2 1.79832 3.59664 5.39496 -6.9496
124 1 0 5.39496 5.39496 -8.38007
211 3 0 3.59664 7.19328 -6.33935
212 3 1.79832 5.39496 7.19328 -6.43739
127 2 5.39496 3.59664 5.39496 -6.93724
128 3 3.59664 5.39496 5.39496 -6.53079
213 1 3.59664 3.59664 7.19328 -8.39265
214 3 5.39496 5.39496 7.19328 -6.47961
131 2 8.9916 3.59664 5.39496 -7.02122
132 3 7.19328 5.39496 5.39496 -6.41742
215 1 7.19328 3.59664 7.19328 -8.28608
216 2 8.9916 5.39496 7.19328 -6.9945
135 1 12.5882 3.59664 5.39496 -8.40816
136 2 10.7899 5.39496 5.39496 -7.04742
217 2 10.7899 3.59664 7.19328 -7.14562
218 3 12.5882 5.39496 7.19328 -6.65475
139 1 16.1849 3.59664 5.39496 -8.32542
140 2 14.3866 5.39496 5.39496 -6.98822
219 2 14.3866 3.59664 7.19328 -7.06972
220 2 16.1849 5.39496 7.19328 -7.05023
143 3 1.79832 7.19328 5.39496 -6.39226
144 1 0 8.9916 5.39496 -8.07201
221 3 0 7.19328 7.19328 -6.30431
222 1 1.79832 8.9916 7.19328 -8.60356
147 3 5.39496 7.19328 5.39496 -6.49511
148 3 3.59664 8.9916 5.39496 -6.48211
223 3 3.59664 7.19328 7.19328 -6.50143
224 2 5.39496 8.9916 7.19328 -6.97538
151 1 8.9916 7.19328 5.39496 -8.48469
152 2 7.19328 8.9916 5.39496 -6.95515
225 3 7.19328 7.19328 7.19328 -6.56012
226 3 8.9916 8.9916 7.19328 -6.47981
155 1 12.5882 7.19328 5.39496 -8.47066
156 2 10.7899 8.9916 5.39496 -6.91863
227 2 10.7899 7.19328 7.19328 -7.04944
228 2 12.5882 8.9916 7.19328 -6.97711
159 1 16.1849 7.19328 5.39496 -8.3132
160 1 14.3866 8.9916 5.39496 -8.32203
229 3 14.3866 7.19328 7.19328 -6.54078
230 2 16.1849 8.9916 7.19328 -7.02188
163 3 1.79832 10.7899 5.39496 -6.39793
164 1 0 12.5882 5.39496 -8.31671
231 2 0 10.7899 7.19328 -7.06417
232 1 1.79832 12.5882 7.19328 -8.29541
167 2 5.39496 10.7899 5.39496 -7.07726
168 2 3.59664 12.5882 5.39496 -7.07346
233 3 3.59664 10.7899 7.19328 -6.45582
234 2 5.39496 12.5882 7.19328 -6.92911
171 3 8.9916 10.7899 5.39496 -6.46839
172 2 7.19328 12.5882 5.39496 -6.9842
235 1 7.19328 10.7899 7.19328 -8.21032
236 1 8.9916 12.5882 7.19328 -8.02764
175 1 12.5882 10.7899 5.39496 -8.22983
176 1 10.7899 12.5882 5.39496 -8.24386
237 3 10.7899 10.7899 7.19328 -6.36379
238 1 12.5882 12.5882 7.19328 -8.1625
179 2 16.1849 10.7899 5.39496 -7.00579
180 1 14.3866 12.5882 5.39496 -8.20546
239 3 14.3866 10.7899 7.19328 -6.28878
240 1 16.1849 12.5882 7.19328 -8.09705
183 2 1.79832 14.3866 5.39496 -7.03072
184 3 0 16.1849 5.39496 -6.49038
241 2 0 14.3866 7.19328 -7.07655
242 1 1.79832 16.1849 7.19328 -8.61926
187 1 5.39496 14.3866 5.39496 -8.39678
188 3 3.59664 16.1849 5.39496 -6.33486
243 3 3.59664 14.3866 7.19328 -6.29501
244 1 5.39496 16.1849 7.19328 -8.27398
191 1 8.9916 14.3866 5.39496 -8.34242
192 2 7.19328 16.1849 5.39496 -7.06359
245 3 7.19328 14.3866 7.19328 -6.25552
246 2 8.9916 16.1849 7.19328 -7.08417
195 2 12.5882 14.3866 5.39496 -7.04736
196 2 10.7899 16.1849 5.39496 -7.02297
247 1 10.7899 14.3866 7.19328 -7.9417
248 2 12.5882 16.1849 7.19328 -7.09623
199 3 16.1849 14.3866 5.39496 -6.34867
200 2 14.3866 16.1849 5.39496 -7.00505
249 3 14.3866 14.3866 7.19328 -6.40187
250 3 16.1849 16.1849 7.19328 -6.4081
251 2 1.79832 0 8.9916 -6.98459
252 1 0 1.79832 8.9916 -8.26044
301 3 0 0 10.7899 -6.36291
302 1 1.79832 1.79832 10.7899 -8.2898
303 2 1.79832 0 12.5882 -7.04426
304 1 0 1.79832 12.5882 -8.28904
253 1 5.39496 0 8.9916 -8.45421
254 2 3.59664 1.79832 8.9916 -7.02571
305 3 3.59664 0 10.7899 -6.576
306 2 5.39496 1.79832 10.7899 -7.07044
307 2 5.39496 0 12.5882 -7.05436
308 1 3.59664 1.79832 12.5882 -8.25482
255 1 8.9916 0 8.9916 -8.16961
256 2 7.19328 1.79832 8.9916 -7.02195
309 2 7.19328 0 10.7899 -7.07579
310 1 8.9916 1.79832 10.7899 -8.4174
311 3 8.9916 0 12.5882 -6.52573
312 1 7.19328 1.79832 12.5882 -8.45033
257 2 12.5882 0 8.9916 -7.09312
258 2 10.7899 1.79832 8.9916 -7.09653
313 3 10.7899 0 10.7899 -6.45808
314 2 12.5882 1.79832 10.7899 -7.15338
315 2 12.5882 0 12.5882 -6.99449
316 3 10.7899 1.79832 12.5882 -6.68516
259 2 16.1849 0 8.9916 -7.06434
260 3 14.3866 1.79832 8.9916 -6.7554
317 2 14.3866 0 10.7899 -7.07507
318 3 16.1849 1.79832 10.7899 -6.66357
319 2 16.1849 0 12.5882 -7.02828
320 3 14.3866 1.79832 12.5882 -6.701
261 3 1.79832 3.59664 8.9916 -6.33073
262 2 0 5.39496 8.9916 -6.94889
321 2 0 3.59664 10.7899 -7.00009
322 1 1.79832 5.39496 10.7899 -8.36232
323 3 1.79832 3.59664 12.5882 -6.25495
324 3 0 5.39496 12.5882 -6.4675
263 2 5.39496 3.59664 8.9916 -7.064
264 1 3.59664 5.39496 8.9916 -8.26738
325 2 3.59664 3.59664 10.7899 -7.03047
326 1 5.39496 5.39496 10.7899 -8.12321
327 2 5.39496 3.59664 12.5882 -7.05746
328 1 3.59664 5.39496 12.5882 -8.03167
265 3 8.9916 3.59664 8.9916 -6.52563
266 1 7.19328 5.39496 8.9916 -8.38111
329 3 7.19328 3.59664 10.7899 -6.40641
330 2 8.9916 5.39496 10.7899 -6.94168
331 3 8.9916 3.59664 12.5882 -6.5513
332 1 7.19328 5.39496 12.5882 -8.3519
267 2 12.5882 3.59664 8.9916 -7.1894
268 3 10.7899 5.39496 8.9916 -6.70564
333 3 10.7899 3.59664 10.7899 -6.70598
334 2 12.5882 5.39496 10.7899 -7.07165
335 2 12.5882 3.59664 12.5882 -7.09546
336 2 10.7899 5.39496 12.5882 -7.10537
269 2 16.1849 3.59664 8.9916 -7.00664
270 3 14.3866 5.39496 8.9916 -6.71436
337 2 14.3866 3.59664 10.7899 -7.07534
338 3 16.1849 5.39496 10.7899 -6.60332
339 1 16.1849 3.59664 12.5882 -8.45841
340 3 14.3866 5.39496 12.5882 -6.61851
271 3 1.79832 7.19328 8.9916 -6.36233
272 2 0 8.9916 8.9916 -6.95307
341 3 0 7.19328 10.7899 -6.3605
342 1 1.79832 8.9916 10.7899 -8.39686
343 2 1.79832 7.19328 12.5882 -6.99392
344 2 0 8.9916 12.5882 -7.03072
273 2 5.39496 7.19328 8.9916 -6.98084
274 3 3.59664 8.9916 8.9916 -6.46212
345 1 3.59664 7.19328 10.7899 -8.17116
346 2 5.39496 8.9916 10.7899 -6.96247
347 2 5.39496 7.19328 12.5882 -7.07259
348 3 3.59664 8.9916 12.5882 -6.46394
275 3 8.9916 7.19328 8.9916 -6.5793
276 3 7.19328 8.9916 8.9916 -6.52702
349 3 7.19328 7.19328 10.7899 -6.46758
350 3 8.9916 8.9916 10.7899 -6.46334
351 2 8.9916 7.19328 12.5882 -7.02223
352 1 7.19328 8.9916 12.5882 -8.29142
277 2 12.5882 7.19328 8.9916 -7.02862
278 3 10.7899 8.9916 8.9916 -6.50091
353 1 10.7899 7.19328 10.7899 -8.48455
354 1 12.5882 8.9916 10.7899 -8.22512
355 2 12.5882 7.19328 12.5882 -7.03835
356 3 10.7899 8.9916 12.5882 -6.45367
279 2 16.1849 7.19328 8.9916 -7.08161
280 1 14.3866 8.9916 8.9916 -8.29997
357 1 14.3866 7.19328 10.7899 -8.25751
358 1 16.1849 8.9916 10.7899 -8.22307
359 2 16.1849 7.19328 12.5882 -7.06468
360 2 14.3866 8.9916 12.5882 -7.01831
281 3 1.79832 10.7899 8.9916 -6.3565
282 1 0 12.5882 8.9916 -8.15173
361 1 0 10.7899 10.7899 -8.12869
362 2 1.79832 12.5882 10.7899 -6.98227
363 2 1.79832 10.7899 12.5882 -7.06135
364 2 0 12.5882 12.5882 -7.02455
283 1 5.39496 10.7899 8.9916 -8.23133
284 1 3.59664 12.5882 8.9916 -8.24684
365 2 3.59664 10.7899 10.7899 -6.99885
366 1 5.39496 12.5882 10.7899 -8.36328
367 3 5.39496 10.7899 12.5882 -6.4614
368 2 3.59664 12.5882 12.5882 -7.09064
285 1 8.9916 10.7899 8.9916 -8.33895
286 1 7.19328 12.5882 8.9916 -8.13069
369 2 7.19328 10.7899 10.7899 -7.00991
370 2 8.9916 12.5882 10.7899 -7.00377
371 1 8.9916 10.7899 12.5882 -8.28205
372 2 7.19328 12.5882 12.5882 -7.07008
287 3 12.5882 10.7899 8.9916 -6.31911
288 2 10.7899 12.5882 8.9916 -6.99633
373 2 10.7899 10.7899 10.7899 -6.9122
374 1 12.5882 12.5882 10.7899 -8.17769
375 1 12.5882 10.7899 12.5882 -8.34834
376 3 10.7899 12.5882 12.5882 -6.26965
289 2 16.1849 10.7899 8.9916 -7.04483
290 1 14.3866 12.5882 8.9916 -8.20904
377 3 14.3866 10.7899 10.7899 -6.28105
378 1 16.1849 12.5882 10.7899 -8.27546
379 3 16.1849 10.7899 12.5882 -6.4309
380 3 14.3866 12.5882 12.5882 -6.40863
291 1 1.79832 14.3866 8.9916 -8.2966
292 3 0 16.1849 8.9916 -6.37653
381 3 0 14.3866 10.7899 -6.42224
382 3 1.79832 16.1849 10.7899 -6.36585
383 1 1.79832 14.3866 12.5882 -8.4914
384 3 0 16.1849 12.5882 -6.23807
293 3 5.39496 14.3866 8.9916 -6.23607
294 3 3.59664 16.1849 8.9916 -6.22556
385 3 3.59664 14.3866 10.7899 -6.36187
386 1 5.39496 16.1849 10.7899 -8.30006
387 2 5.39496 14.3866 12.5882 -7.02588
388 3 3.59664 16.1849 12.5882 -6.39829
295 1 8.9916 14.3866 8.9916 -8.01421
296 1 7.19328 16.1849 8.9916 -8.16228
389 3 7.19328 14.3866 10.7899 -6.41438
390 3 8.9916 16.1849 10.7899 -6.3891
391 2 8.9916 14.3866 12.5882 -7.04366
392 2 7.19328 16.1849 12.5882 -7.13784
297 2 12.5882 14.3866 8.9916 -7.02887
298 1 10.7899 16.1849 8.9916 -8.03749
393 1 10.7899 14.3866 10.7899 -8.16384
394 3 12.5882 16.1849 10.7899 -6.24522
395 1 12.5882 14.3866 12.5882 -8.23484
396 2 10.7899 16.1849 12.5882 -7.00109
299 2 16.1849 14.3866 8.9916 -7.02897
300 1 14.3866 16.1849 8.9916 -8.30082
397 2 14.3866 14.3866 10.7899 -7.02529
398 2 16.1849 16.1849 10.7899 -7.11299
399 2 16.1849 14.3866 12.5882 -6.9807
400 1 14.3866 16.1849 12.5882 -8.34361
401 2 0 0 14.3866 -6.94788
402 1 1.79832 1.79832 14.3866 -8.03945
403 2 1.79832 0 16.1849 -7.0318
404 1 0 1.79832 16.1849 -8.13155
405 1 3.59664 0 14.3866 -8.307
406 3 5.39496 1.79832 14.3866 -6.37438
407 3 5.39496 0 16.1849 -6.48149
408 1 3.59664 1.79832 16.1849 -8.02679
409 2 7.19328 0 14.3866 -7.01334
410 3 8.9916 1.79832 14.3866 -6.59762
411 1 8.9916 0 16.1849 -8.43135
412 1 7.19328 1.79832 16.1849 -8.31014
413 2 10.7899 0 14.3866 -7.00777
414 3 12.5882 1.79832 14.3866 -6.69356
415 1 12.5882 0 16.1849 -8.44196
416 3 10.7899 1.79832 16.1849 -6.64233
417 3 14.3866 0 14.3866 -6.59466
418 3 16.1849 1.79832 14.3866 -6.54308
419 2 16.1849 0 16.1849 -6.97846
420 3 14.3866 1.79832 16.1849 -6.52405
421 3 0 3.59664 14.3866 -6.28797
422 1 1.79832 5.39496 14.3866 -8.27571
423 1 1.79832 3.59664 16.1849 -8.07753
424 3 0 5.39496 16.1849 -6.24037
425 2 3.59664 3.59664 14.3866 -7.05787
426 1 5.39496 5.39496 14.3866 -8.08242
427 1 5.39496 3.59664 16.1849 -8.14132
428 3 3.59664 5.39496 16.1849 -6.37212
429 2 7.19328 3.59664 14.3866 -7.00699
430 3 8.9916 5.39496 14.3866 -6.67284
431 2 8.9916 3.59664 16.1849 -7.07671
432 1 7.19328 5.39496 16.1849 -8.22575
433 2 10.7899 3.59664 14.3866 -7.09443
434 1 12.5882 5.39496 14.3866 -8.52333
435 2 12.5882 3.59664 16.1849 -7.04023
436 3 10.7899 5.39496 16.1849 -6.7374
437 2 14.3866 3.59664 14.3866 -6.97785
438 2 16.1849 5.39496 14.3866 -7.02486
439 1 16.1849 3.59664 16.1849 -8.3692
440 3 14.3866 5.39496 16.1849 -6.51278
441 2 0 7.19328 14.3866 -6.93744
442 3 1.79832 8.9916 14.3866 -6.59228
443 1 1.79832 7.19328 16.1849 -8.28123
444 3 0 8.9916 16.1849 -6.48708
445 2 3.59664 7.19328 14.3866 -6.99535
446 1 5.39496 8.9916 14.3866 -8.16115
447 2 5.39496 7.19328 16.1849 -7.07081
448 3 3.59664 8.9916 16.1849 -6.45776
449 2 7.19328 7.19328 14.3866 -7.06227
450 3 8.9916 8.9916 14.3866 -6.48315
451 2 8.9916 7.19328 16.1849 -7.06291
452 1 7.19328 8.9916 16.1849 -8.2714
453 2 10.7899 7.19328 14.3866 -7.09286
454 2 12.5882 8.9916 14.3866 -7.01525
455 2 12.5882 7.19328 16.1849 -6.97176
456 3 10.7899 8.9916 16.1849 -6.48086
457 3 14.3866 7.19328 14.3866 -6.60359
458 2 16.1849 8.9916 14.3866 -6.98572
459 1 16.1849 7.19328 16.1849 -8.24871
460 3 14.3866 8.9916 16.1849 -6.48915
461 3 0 10.7899 14.3866 -6.68375
462 2 1.79832 12.5882 14.3866 -7.02565
463 3 1.79832 10.7899 16.1849 -6.51876
464 2 0 12.5882 16.1849 -7.01365
465 1 3.59664 10.7899 14.3866 -8.38083
466 1 5.39496 12.5882 14.3866 -8.37528
467 2 5.39496 10.7899 16.1849 -7.09564
468 2 3.59664 12.5882 16.1849 -7.05941
469 2 7.19328 10.7899 14.3866 -7.03575
470 1 8.9916 12.5882 14.3866 -8.09107
471 1 8.9916 10.7899 16.1849 -8.22436
472 2 7.19328 12.5882 16.1849 -7.0756
473 1 10.7899 10.7899 14.3866 -8.28969
474 3 12.5882 12.5882 14.3866 -6.37649
475 2 12.5882 10.7899 16.1849 -6.89874
476 3 10.7899 12.5882 16.1849 -6.33979
477 3 14.3866 10.7899 14.3866 -6.52543
478 3 16.1849 12.5882 14.3866 -6.50794
479 1 16.1849 10.7899 16.1849 -8.44712
480 3 14.3866 12.5882 16.1849 -6.57908
481 3 0 14.3866 14.3866 -6.40965
482 1 1.79832 16.1849 14.3866 -8.27075
483 1 1.79832 14.3866 16.1849 -8.11231
484 2 0 16.1849 16.1849 -7.04647
485 2 3.59664 14.3866 14.3866 -7.0392
486 1 5.39496 16.1849 14.3866 -8.38496
487 3 5.39496 14.3866 16.1849 -6.56647
488 2 3.59664 16.1849 16.1849 -6.98247
489 2 7.19328 14.3866 14.3866 -7.07857
490 2 8.9916 16.1849 14.3866 -7.04247
491 1 8.9916 14.3866 16.1849 -8.22666
492 3 7.19328 16.1849 16.1849 -6.48084
493 1 10.7899 14.3866 14.3866 -8.32087
494 2 12.5882 16.1849 14.3866 -7.02869
495 3 12.5882 14.3866 16.1849 -6.46296
496 3 10.7899 16.1849 16.1849 -6.34232
497 3 14.3866 14.3866 14.3866 -6.48434
498 3 16.1849 16.1849 14.3866 -6.47036
499 3 16.1849 14.3866 16.1849 -6.51897
500 1 14.3866 16.1849 16.1849 -8.54224
501 1 0 0 17.9832 -8.05242
502 1 1.79832 1.79832 17.9832 -8.15597
503 1 1.79832 0 19.7815 -8.0549
504 2 0 1.79832 19.7815 -7.02322
601 1 0 0 21.5798 -8.07805
602 1 1.79832 1.79832 21.5798 -8.32326
505 2 3.59664 0 17.9832 -6.96072
506 2 5.39496 1.79832 17.9832 -7.04476
507 3 5.39496 0 19.7815 -6.57283
508 3 3.59664 1.79832 19.7815 -6.53135
605 2 3.59664 0 21.5798 -7.07083
606 3 5.39496 1.79832 21.5798 -6.6283
509 2 7.19328 0 17.9832 -7.0022
510 3 8.9916 1.79832 17.9832 -6.61356
511 2 8.9916 0 19.7815 -6.99068
512 1 7.19328 1.79832 19.7815 -8.47042
609 2 7.19328 0 21.5798 -7.04033
610 2 8.9916 1.79832 21.5798 -7.02551
513 2 10.7899 0 17.9832 -6.90521
514 3 12.5882 1.79832 17.9832 -6.49846
515 1 12.5882 0 19.7815 -8.24972
516 3 10.7899 1.79832 19.7815 -6.5036
613 1 10.7899 0 21.5798 -8.29698
614 3 12.5882 1.79832 21.5798 -6.33118
517 1 14.3866 0 17.9832 -8.26589
518 2 16.1849 1.79832 17.9832 -7.04343
519 2 16.1849 0 19.7815 -7.00713
520 2 14.3866 1.79832 19.7815 -7.01265
617 1 14.3866 0 21.5798 -8.26278
618 3 16.1849 1.79832 21.5798 -6.34635
521 3 0 3.59664 17.9832 -6.18581
522 1 1.79832 5.39496 17.9832 -8.1652
523 3 1.79832 3.59664 19.7815 -6.3213
524 2 0 5.39496 19.7815 -7.00392
621 3 0 3.59664 21.5798 -6.5031
622 1 1.79832 5.39496 21.5798 -8.26615
525 2 3.59664 3.59664 17.9832 -7.06525
526 2 5.39496 5.39496 17.9832 -7.08989
527 2 5.39496 3.59664 19.7815 -7.02882
528 1 3.59664 5.39496 19.7815 -8.15647
625 3 3.59664 3.59664 21.5798 -6.55619
626 3 5.39496 5.39496 21.5798 -6.59037
529 2 7.19328 3.59664 17.9832 -7.13144
530 2 8.9916 5.39496 17.9832 -7.21308
531 2 8.9916 3.59664 19.7815 -7.12476
532 2 7.19328 5.39496 19.7815 -7.11417
629 3 7.19328 3.59664 21.5798 -6.65396
630 2 8.9916 5.39496 21.5798 -7.07693
533 2 10.7899 3.59664 17.9832 -7.1058
534 2 12.5882 5.39496 17.9832 -6.99204
535 1 12.5882 3.59664 19.7815 -8.40572
536 2 10.7899 5.39496 19.7815 -7.07784
633 1 10.7899 3.59664 21.5798 -8.40656
634 1 12.5882 5.39496 21.5798 -8.33694
537 2 14.3866 3.59664 17.9832 -6.967
538 3 16.1849 5.39496 17.9832 -6.3089
539 3 16.1849 3.59664 19.7815 -6.46204
540 3 14.3866 5.39496 19.7815 -6.44541
637 2 14.3866 3.59664 21.5798 -6.9403
638 1 16.1849 5.39496 21.5798 -8.51571
541 1 0 7.19328 17.9832 -8.24318
542 1 1.79832 8.9916 17.9832 -8.18191
543 1 1.79832 7.19328 19.7815 -8.01947
544 3 0 8.9916 19.7815 -6.46498
641 2 0 7.19328 21.5798 -7.0992
642 2 1.79832 8.9916 21.5798 -6.95862
545 2 3.59664 7.19328 17.9832 -7.07585
546 3 5.39496 8.9916 17.9832 -6.45483
547 1 5.39496 7.19328 19.7815 -8.22826
548 1 3.59664 8.9916 19.7815 -7.98728
645 1 3.59664 7.19328 21.5798 -8.1653
646 2 5.39496 8.9916 21.5798 -6.99884
549 2 7.19328 7.19328 17.9832 -7.07769
550 3 8.9916 8.9916 17.9832 -6.4143
551 2 8.9916 7.19328 19.7815 -7.07018
552 1 7.19328 8.9916 19.7815 -8.22323
649 3 7.19328 7.19328 21.5798 -6.59628
650 1 8.9916 8.9916 21.5798 -8.28837
553 1 10.7899 7.19328 17.9832 -8.37769
554 1 12.5882 8.9916 17.9832 -8.32589
555 3 12.5882 7.19328 19.7815 -6.36567
556 1 10.7899 8.9916 19.7815 -8.345
653 3 10.7899 7.19328 21.5798 -6.43856
654 3 12.5882 8.9916 21.5798 -6.38981
557 1 14.3866 7.19328 17.9832 -8.34615
558 2 16.1849 8.9916 17.9832 -7.00852
559 3 16.1849 7.19328 19.7815 -6.42085
560 1 14.3866 8.9916 19.7815 -8.35422
657 2 14.3866 7.19328 21.5798 -6.90954
658 3 16.1849 8.9916 21.5798 -6.53667
561 3 0 10.7899 17.9832 -6.47915
562 1 1.79832 12.5882 17.9832 -8.15609
563 1 1.79832 10.7899 19.7815 -8.19813
564 1 0 12.5882 19.7815 -8.40682
661 3 0 10.7899 21.5798 -6.41694
662 3 1.79832 12.5882 21.5798 -6.25917
565 2 3.59664 10.7899 17.9832 -7.06766
566 2 5.39496 12.5882 17.9832 -7.04005
567 1 5.39496 10.7899 19.7815 -8.2819
568 1 3.59664 12.5882 19.7815 -8.2179
665 3 3.59664 10.7899 21.5798 -6.19475
666 3 5.39496 12.5882 21.5798 -6.29102
569 2 7.19328 10.7899 17.9832 -7.02576
570 1 8.9916 12.5882 17.9832 -8.2427
571 3 8.9916 10.7899 19.7815 -6.31076
572 3 7.19328 12.5882 19.7815 -6.42506
669 2 7.19328 10.7899 21.5798 -6.94796
670 1 8.9916 12.5882 21.5798 -8.34893
573 3 10.7899 10.7899 17.9832 -6.34014
574 2 12.5882 12.5882 17.9832 -6.94667
575 3 12.5882 10.7899 19.7815 -6.29387
576 1 10.7899 12.5882 19.7815 -8.1898
673 2 10.7899 10.7899 21.5798 -6.97519
674 2 12.5882 12.5882 21.5798 -7.05348
577 3 14.3866 10.7899 17.9832 -6.48803
578 3 16.1849 12.5882 17.9832 -6.52389
579 2 16.1849 10.7899 19.7815 -6.99892
580 1 14.3866 12.5882 19.7815 -8.35502
677 1 14.3866 10.7899 21.5798 -8.21882
678 2 16.1849 12.5882 21.5798 -7.13626
581 2 0 14.3866 17.9832 -7.01088
582 1 1.79832 16.1849 17.9832 -8.2079
583 2 1.79832 14.3866 19.7815 -7.0113
584 3 0 16.1849 19.7815 -6.52974
681 3 0 14.3866 21.5798 -6.45365
682 2 1.79832 16.1849 21.5798 -7.04864
585 1 3.59664 14.3866 17.9832 -8.12845
586 2 5.39496 16.1849 17.9832 -6.96381
587 3 5.39496 14.3866 19.7815 -6.39253
588 1 3.59664 16.1849 19.7815 -8.33976
685 2 3.59664 14.3866 21.5798 -6.9491
686 2 5.39496 16.1849 21.5798 -6.99926
589 3 7.19328 14.3866 17.9832 -6.47414
590 3 8.9916 16.1849 17.9832 -6.42162
591 2 8.9916 14.3866 19.7815 -7.0098
592 1 7.19328 16.1849 19.7815 -8.32119
689 1 7.19328 14.3866 21.5798 -8.24458
690 1 8.9916 16.1849 21.5798 -8.10705
593 1 10.7899 14.3866 17.9832 -8.2751
594 2 12.5882 16.1849 17.9832 -6.95175
595 2 12.5882 14.3866 19.7815 -7.079
596 2 10.7899 16.1849 19.7815 -6.99162
693 1 10.7899 14.3866 21.5798 -8.10443
694 1 12.5882 16.1849 21.5798 -8.07121
597 3 14.3866 14.3866 17.9832 -6.50814
598 3 16.1849 16.1849 17.9832 -6.4503
599 2 16.1849 14.3866 19.7815 -7.03088
600 1 14.3866 16.1849 19.7815 -8.41872
697 1 14.3866 14.3866 21.5798 -8.04397
698 2 16.1849 16.1849 21.5798 -7.03272
603 2 1.79832 0 23.3781 -7.13278
604 2 0 1.79832 23.3781 -7.19818
701 2 0 0 25.1765 -7.29323
702 3 1.79832 1.79832 25.1765 -6.87415
607 2 5.39496 0 23.3781 -7.04846
608 2 3.59664 1.79832 23.3781 -7.08399
703 3 3.59664 0 25.1765 -6.70003
704 2 5.39496 1.79832 25.1765 -7.02776
611 1 8.9916 0 23.3781 -8.21753
612 1 7.19328 1.79832 23.3781 -8.4813
705 3 7.19328 0 25.1765 -6.43219
706 2 8.9916 1.79832 25.1765 -6.9399
615 3 12.5882 0 23.3781 -6.37671
616 3 10.7899 1.79832 23.3781 -6.39209
707 3 10.7899 0 25.1765 -6.44852
708 1 12.5882 1.79832 25.1765 -8.27573
619 2 16.1849 0 23.3781 -6.95675
620 1 14.3866 1.79832 23.3781 -8.18764
709 1 14.3866 0 25.1765 -8.25493
710 3 16.1849 1.79832 25.1765 -6.21142
623 2 1.79832 3.59664 23.3781 -7.15951
624 2 0 5.39496 23.3781 -7.1971
711 2 0 3.59664 25.1765 -7.28427
712 2 1.79832 5.39496 25.1765 -7.14901
627 3 5.39496 3.59664 23.3781 -6.64193
628 2 3.59664 5.39496 23.3781 -7.07388
713 2 3.59664 3.59664 25.1765 -7.10047
714 3 5.39496 5.39496 25.1765 -6.63018
631 3 8.9916 3.59664 23.3781 -6.54057
632 3 7.19328 5.39496 23.3781 -6.72476
715 3 7.19328 3.59664 25.1765 -6.5056
716 2 8.9916 5.39496 25.1765 -7.00805
635 2 12.5882 3.59664 23.3781 -6.93589
636 3 10.7899 5.39496 23.3781 -6.52902
717 1 10.7899 3.59664 25.1765 -8.47822
718 2 12.5882 5.39496 25.1765 -6.95031
639 1 16.1849 3.59664 23.3781 -8.20921
640 3 14.3866 5.39496 23.3781 -6.42205
719 2 14.3866 3.59664 25.1765 -6.93607
720 1 16.1849 5.39496 25.1765 -8.54012
643 2 1.79832 7.19328 23.3781 -7.07897
644 3 0 8.9916 23.3781 -6.60652
721 2 0 7.19328 25.1765 -7.15016
722 1 1.79832 8.9916 25.1765 -8.48803
647 2 5.39496 7.19328 23.3781 -7.04211
648 3 3.59664 8.9916 23.3781 -6.47898
723 2 3.59664 7.19328 25.1765 -7.07031
724 3 5.39496 8.9916 25.1765 -6.6101
651 2 8.9916 7.19328 23.3781 -6.9905
652 3 7.19328 8.9916 23.3781 -6.57264
725 2 7.19328 7.19328 25.1765 -7.05868
726 3 8.9916 8.9916 25.1765 -6.44112
655 1 12.5882 7.19328 23.3781 -8.41612
656 1 10.7899 8.9916 23.3781 -8.37758
727 3 10.7899 7.19328 25.1765 -6.38904
728 3 12.5882 8.9916 25.1765 -6.32347
659 3 16.1849 7.19328 23.3781 -6.6145
660 2 14.3866 8.9916 23.3781 -6.91741
729 2 14.3866 7.19328 25.1765 -6.98333
730 3 16.1849 8.9916 25.1765 -6.61414
663 1 1.79832 10.7899 23.3781 -8.34527
664 2 0 12.5882 23.3781 -6.91191
731 2 0 10.7899 25.1765 -7.03181
732 1 1.79832 12.5882 25.1765 -8.18768
667 1 5.39496 10.7899 23.3781 -8.44641
668 1 3.59664 12.5882 23.3781 -8.13438
733 3 3.59664 10.7899 25.1765 -6.4535
734 2 5.39496 12.5882 25.1765 -6.97553
671 2 8.9916 10.7899 23.3781 -6.95845
672 3 7.19328 12.5882 23.3781 -6.39976
735 1 7.19328 10.7899 25.1765 -8.37325
736 2 8.9916 12.5882 25.1765 -6.948
675 2 12.5882 10.7899 23.3781 -7.02368
676 3 10.7899 12.5882 23.3781 -6.5394
737 3 10.7899 10.7899 25.1765 -6.45377
738 2 12.5882 12.5882 25.1765 -6.99698
679 1 16.1849 10.7899 23.3781 -8.37302
680 2 14.3866 12.5882 23.3781 -7.05846
739 3 14.3866 10.7899 25.1765 -6.48842
740 3 16.1849 12.5882 25.1765 -6.53962
683 1 1.79832 14.3866 23.3781 -8.44741
684 3 0 16.1849 23.3781 -6.44643
741 3 0 14.3866 25.1765 -6.32599
742 3 1.79832 16.1849 25.1765 -6.3638
687 1 5.39496 14.3866 23.3781 -8.34644
688 3 3.59664 16.1849 23.3781 -6.41008
743 1 3.59664 14.3866 25.1765 -8.08148
744 3 5.39496 16.1849 25.1765 -6.35024
691 3 8.9916 14.3866 23.3781 -6.34133
692 3 7.19328 16.1849 23.3781 -6.39065
745 3 7.19328 14.3866 25.1765 -6.5496
746 2 8.9916 16.1849 25.1765 -6.9055
695 2 12.5882 14.3866 23.3781 -6.99694
696 1 10.7899 16.1849 23.3781 -8.12977
747 1 10.7899 14.3866 25.1765 -8.46547
748 3 12.5882 16.1849 25.1765 -6.33138
699 1 16.1849 14.3866 23.3781 -8.46159
700 3 14.3866 16.1849 23.3781 -6.30443
749 3 14.3866 14.3866 25.1765 -6.57828
750 2 16.1849 16.1849 25.1765 -6.96005
751 2 1.79832 0 26.9748 -7.18193
752 2 0 1.79832 26.9748 -7.22032
801 2 0 0 28.7731 -7.11298
802 3 1.79832 1.79832 28.7731 -6.69967
803 2 1.79832 0 30.5714 -7.02415
804 2 0 1.79832 30.5714 -7.02745
753 2 5.39496 0 26.9748 -7.09413
754 3 3.59664 1.79832 26.9748 -6.76102
805 2 3.59664 0 28.7731 -7.12027
806 2 5.39496 1.79832 28.7731 -6.99605
807 2 5.39496 0 30.5714 -7.05786
808 1 3.59664 1.79832 30.5714 -8.34626
755 1 8.9916 0 26.9748 -8.24965
756 1 7.19328 1.79832 26.9748 -8.49058
809 2 7.19328 0 28.7731 -7.09959
810 3 8.9916 1.79832 28.7731 -6.5614
811 2 8.9916 0 30.5714 -7.07986
812 1 7.19328 1.79832 30.5714 -8.32201
757 3 12.5882 0 26.9748 -6.29848
758 2 10.7899 1.79832 26.9748 -6.96142
813 2 10.7899 0 28.7731 -7.08744
814 1 12.5882 1.79832 28.7731 -8.16688
815 1 12.5882 0 30.5714 -7.86492
816 2 10.7899 1.79832 30.5714 -7.05524
759 3 16.1849 0 26.9748 -6.20757
760 1 14.3866 1.79832 26.9748 -8.147
817 1 14.3866 0 28.7731 -8.01181
818 1 16.1849 1.79832 28.7731 -8.01106
819 2 16.1849 0 30.5714 -7.06095
820 1 14.3866 1.79832 30.5714 -8.03983
761 3 1.79832 3.59664 26.9748 -6.71998
762 3 0 5.39496 26.9748 -6.69968
821 2 0 3.59664 28.7731 -7.05052
822 2 1.79832 5.39496 28.7731 -6.93908
823 1 1.79832 3.59664 30.5714 -8.52474
824 3 0 5.39496 30.5714 -6.5488
763 3 5.39496 3.59664 26.9748 -6.46149
764 1 3.59664 5.39496 26.9748 -8.39611
825 3 3.59664 3.59664 28.7731 -6.42101
826 1 5.39496 5.39496 28.7731 -8.29778
827 1 5.39496 3.59664 30.5714 -8.12352
828 3 3.59664 5.39496 30.5714 -6.34095
765 3 8.9916 3.59664 26.9748 -6.54439
766 1 7.19328 5.39496 26.9748 -8.41806
829 3 7.19328 3.59664 28.7731 -6.40903
830 2 8.9916 5.39496 28.7731 -6.94278
831 2 8.9916 3.59664 30.5714 -7.0204
832 3 7.19328 5.39496 30.5714 -6.38604
767 3 12.5882 3.59664 26.9748 -6.37554
768 2 10.7899 5.39496 26.9748 -6.98175
833 2 10.7899 3.59664 28.7731 -7.04847
834 1 12.5882 5.39496 28.7731 -8.31309
835 3 12.5882 3.59664 30.5714 -6.27847
836 1 10.7899 5.39496 30.5714 -8.42701
769 3 16.1849 3.59664 26.9748 -6.29055
770 3 14.3866 5.39496 26.9748 -6.42286
837 1 14.3866 3.59664 28.7731 -8.23348