ITEM: TIMESTEP
0
ITEM: NUMBER OF ATOMS
4000
ITEM: BOX BOUNDS pp pp pp
0.0000000000000000e+00 3.5790759999999999e+01
0.0000000000000000e+00 3.5790759999999999e+01
0.0000000000000000e+00 3.5790759999999999e+01
ITEM: ATOMS id type x y z c_peratom
1 3 0 0 0 -6.32608
2 2 1.78954 1.78954 0 -6.97885
3 2 1.78954 0 1.78954 -6.97209
4 1 0 1.78954 1.78954 -8.39474
101 1 0 0 3.57908 -8.45615
102 2 1.78954 1.78954 3.57908 -7.04813
5 1 3.57908 0 0 -8.24768
6 1 5.36861 1.78954 0 -8.10224
7 1 5.36861 0 1.78954 -8.14454
8 3 3.57908 1.78954 1.78954 -6.46003
105 2 3.57908 0 3.57908 -7.02645
106 3 5.36861 1.78954 3.57908 -6.61683
9 1 7.15815 0 0 -8.06138
10 2 8.94769 1.78954 0 -7.00399
11 1 8.94769 0 1.78954 -8.30767
12 2 7.15815 1.78954 1.78954 -7.03131
109 2 7.15815 0 3.57908 -6.9999
110 2 8.94769 1.78954 3.57908 -7.06088
13 2 10.7372 0 0 -6.99011
14 1 12.5268 1.78954 0 -8.62665
15 3 12.5268 0 1.78954 -6.38321
16 3 10.7372 1.78954 1.78954 -6.50026
113 2 10.7372 0 3.57908 -6.97093
114 1 12.5268 1.78954 3.57908 -8.61154
17 2 14.3163 0 0 -6.94209
18 2 16.1058 1.78954 0 -7.01744
19 2 16.1058 0 1.78954 -7.03246
20 1 14.3163 1.78954 1.78954 -8.24904
117 3 14.3163 0 3.57908 -6.29223
118 1 16.1058 1.78954 3.57908 -8.24515
21 2 0 3.57908 0 -6.9675
22 1 1.78954 5.36861 0 -8.09602
23 2 1.78954 3.57908 1.78954 -7.05665
24 1 0 5.36861 1.78954 -8.12338
121 3 0 3.57908 3.57908 -6.39695
122 1 1.78954 5.36861 3.57908 -8.31952
25 1 3.57908 3.57908 0 -8.28505
26 1 5.36861 5.36861 0 -8.10466
27 3 5.36861 3.57908 1.78954 -6.30524
28 3 3.57908 5.36861 1.78954 -6.20114
125 2 3.57908 3.57908 3.57908 -7.03316
126 1 5.36861 5.36861 3.57908 -8.27743
29 2 7.15815 3.57908 0 -6.99942
30 3 8.94769 5.36861 0 -6.28672
31 1 8.94769 3.57908 1.78954 -8.30388
32 1 7.15815 5.36861 1.78954 -8.1263
129 1 7.15815 3.57908 3.57908 -8.38603
130 2 8.94769 5.36861 3.57908 -6.88882
33 2 10.7372 3.57908 0 -7.047
34 2 12.5268 5.36861 0 -7.02844
35 2 12.5268 3.57908 1.78954 -6.99411
36 1 10.7372 5.36861 1.78954 -8.21403
133 3 10.7372 3.57908 3.57908 -6.45199
134 1 12.5268 5.36861 3.57908 -8.27814
37 2 14.3163 3.57908 0 -7.06881
38 3 16.1058 5.36861 0 -6.35022
39 2 16.1058 3.57908 1.78954 -7.05537
40 1 14.3163 5.36861 1.78954 -8.30084
137 2 14.3163 3.57908 3.57908 -7.06316
138 2 16.1058 5.36861 3.57908 -7.05133
41 1 0 7.15815 0 -8.1535
42 1 1.78954 8.94769 0 -8.37283
43 2 1.78954 7.15815 1.78954 -7.0069
44 2 0 8.94769 1.78954 -6.95456
141 3 0 7.15815 3.57908 -6.31751
142 2 1.78954 8.94769 3.57908 -6.91497
45 1 3.57908 7.15815 0 -8.19367
46 1 5.36861 8.94769 0 -8.52139
47 2 5.36861 7.15815 1.78954 -6.94276
48 3 3.57908 8.94769 1.78954 -6.23311
145 1 3.57908 7.15815 3.57908 -8.29608
146 1 5.36861 8.94769 3.57908 -8.31524
49 2 7.15815 7.15815 0 -6.97971
50 3 8.94769 8.94769 0 -6.53787
51 1 8.94769 7.15815 1.78954 -8.50794
52 2 7.15815 8.94769 1.78954 -6.92552
149 3 7.15815 7.15815 3.57908 -6.28334
150 3 8.94769 8.94769 3.57908 -6.35715
53 2 10.7372 7.15815 0 -7.01025
54 2 12.5268 8.94769 0 -6.97105
55 1 12.5268 7.15815 1.78954 -8.28621
56 2 10.7372 8.94769 1.78954 -6.9096
153 3 10.7372 7.15815 3.57908 -6.2693
154 3 12.5268 8.94769 3.57908 -6.38343
57 3 14.3163 7.15815 0 -6.27124
58 3 16.1058 8.94769 0 -6.20652
59 1 16.1058 7.15815 1.78954 -8.16946
60 1 14.3163 8.94769 1.78954 -8.41786
157 2 14.3163 7.15815 3.57908 -7.01478
158 2 16.1058 8.94769 3.57908 -6.99862
61 3 0 10.7372 0 -6.27717
62 1 1.78954 12.5268 0 -8.41902
63 3 1.78954 10.7372 1.78954 -6.36895
64 2 0 12.5268 1.78954 -7.04763
161 2 0 10.7372 3.57908 -7.05263
162 1 1.78954 12.5268 3.57908 -8.18731
65 3 3.57908 10.7372 0 -6.34889
66 2 5.36861 12.5268 0 -6.86185
67 3 5.36861 10.7372 1.78954 -6.40821
68 2 3.57908 12.5268 1.78954 -6.96445
165 1 3.57908 10.7372 3.57908 -8.3316
166 3 5.36861 12.5268 3.57908 -6.35971
69 3 7.15815 10.7372 0 -6.47186
70 1 8.94769 12.5268 0 -8.50324
71 3 8.94769 10.7372 1.78954 -6.4265
72 3 7.15815 12.5268 1.78954 -6.48935
169 1 7.15815 10.7372 3.57908 -8.52531
170 2 8.94769 12.5268 3.57908 -6.98876
73 1 10.7372 10.7372 0 -8.41463
74 1 12.5268 12.5268 0 -8.41052
75 3 12.5268 10.7372 1.78954 -6.48202
76 2 10.7372 12.5268 1.78954 -6.9428
173 1 10.7372 10.7372 3.57908 -8.67114
174 2 12.5268 12.5268 3.57908 -6.96431
77 3 14.3163 10.7372 0 -6.27457
78 1 16.1058 12.5268 0 -8.26251
79 1 16.1058 10.7372 1.78954 -8.30292
80 2 14.3163 12.5268 1.78954 -7.02058
177 2 14.3163 10.7372 3.57908 -6.98091
178 1 16.1058 12.5268 3.57908 -8.29642
81 1 0 14.3163 0 -8.16935
82 1 1.78954 16.1058 0 -8.25614
83 2 1.78954 14.3163 1.78954 -6.92111
84 2 0 16.1058 1.78954 -6.97547
181 2 0 14.3163 3.57908 -7.00764
182 1 1.78954 16.1058 3.57908 -8.1267
85 3 3.57908 14.3163 0 -6.36659
86 3 5.36861 16.1058 0 -6.57937
87 1 5.36861 14.3163 1.78954 -8.51139
88 3 3.57908 16.1058 1.78954 -6.22254
185 1 3.57908 14.3163 3.57908 -8.12318
186 1 5.36861 16.1058 3.57908 -8.13541
89 2 7.15815 14.3163 0 -6.98641
90 1 8.94769 16.1058 0 -8.20319
91 2 8.94769 14.3163 1.78954 -7.09246
92 2 7.15815 16.1058 1.78954 -7.07231
189 2 7.15815 14.3163 3.57908 -7.0179
190 3 8.94769 16.1058 3.57908 -6.55692
93 1 10.7372 14.3163 0 -8.09536
94 1 12.5268 16.1058 0 -8.36405
95 3 12.5268 14.3163 1.78954 -6.36426
96 1 10.7372 16.1058 1.78954 -8.24529
193 1 10.7372 14.3163 3.57908 -8.32839
194 1 12.5268 16.1058 3.57908 -8.36928
97 2 14.3163 14.3163 0 -6.98145
98 3 16.1058 16.1058 0 -6.45495
99 1 16.1058 14.3163 1.78954 -8.33866
100 2 14.3163 16.1058 1.78954 -6.97529
197 2 14.3163 14.3163 3.57908 -7.0399
198 1 16.1058 16.1058 3.57908 -8.11434
103 3 1.78954 0 5.36861 -6.53699
104 2 0 1.78954 5.36861 -7.02887
201 2 0 0 7.15815 -6.9646
202 1 1.78954 1.78954 7.15815 -8.38977
107 3 5.36861 0 5.36861 -6.57686
108 2 3.57908 1.78954 5.36861 -7.1361
203 3 3.57908 0 7.15815 -6.41316
204 2 5.36861 1.78954 7.15815 -7.11569
111 3 8.94769 0 5.36861 -6.50808
112 2 7.15815 1.78954 5.36861 -7.13054
205 3 7.15815 0 7.15815 -6.50851
206 2 8.94769 1.78954 7.15815 -7.07567
115 3 12.5268 0 5.36861 -6.46273
116 2 10.7372 1.78954 5.36861 -7.05582
207 1 10.7372 0 7.15815 -8.4735
208 2 12.5268 1.78954 7.15815 -7.0189
119 2 16.1058 0 5.36861 -7.05645
120 3 14.3163 1.78954 5.36861 -6.47557
209 2 14.3163 0 7.15815 -6.99633
210 2 16.1058 1.78954 7.15815 -7.07724
123 1 1.78954 3.57908 5.36861 -8.40318
124 2 0 5.36861 5.36861 -6.94054
211 3 0 3.57908 7.15815 -6.45403
212 3 1.78954 5.36861 7.15815 -6.42867
127 2 5.36861 3.57908 5.36861 -7.11413
128 2 3.57908 5.36861 5.36861 -7.01681
213 2 3.57908 3.57908 7.15815 -7.12675
214 2 5.36861 5.36861 7.15815 -6.97406
131 3 8.94769 3.57908 5.36861 -6.59877
132 3 7.15815 5.36861 5.36861 -6.36289
215 2 7.15815 3.57908 7.15815 -7.0963
216 1 8.94769 5.36861 7.15815 -8.37274
135 2 12.5268 3.57908 5.36861 -7.00084
136 3 10.7372 5.36861 5.36861 -6.3491
217 3 10.7372 3.57908 7.15815 -6.53423
218 2 12.5268 5.36861 7.15815 -6.94846
139 1 16.1058 3.57908 5.36861 -8.22611
140 2 14.3163 5.36861 5.36861 -7.06284
219 1 14.3163 3.57908 7.15815 -8.23792
220 3 16.1058 5.36861 7.15815 -6.32228
143 3 1.78954 7.15815 5.36861 -6.37618
144 1 0 8.94769 5.36861 -8.16703
221 1 0 7.15815 7.15815 -8.22089
222 2 1.78954 8.94769 7.15815 -6.90603
147 1 5.36861 7.15815 5.36861 -8.52319
148 3 3.57908 8.94769 5.36861 -6.35416
223 3 3.57908 7.15815 7.15815 -6.44606
224 3 5.36861 8.94769 7.15815 -6.38782
151 1 8.94769 7.15815 5.36861 -8.65349
152 3 7.15815 8.94769 5.36861 -6.28808
225 3 7.15815 7.15815 7.15815 -6.31589
226 3 8.94769 8.94769 7.15815 -6.23296
155 1 12.5268 7.15815 5.36861 -8.4984
156 3 10.7372 8.94769 5.36861 -6.24601
227 1 10.7372 7.15815 7.15815 -8.30259
228 3 12.5268 8.94769 7.15815 -6.32049
159 1 16.1058 7.15815 5.36861 -8.52455
160 3 14.3163 8.94769 5.36861 -6.45824
229 2 14.3163 7.15815 7.15815 -6.90089
230 3 16.1058 8.94769 7.15815 -6.41834
163 1 1.78954 10.7372 5.36861 -8.12719
164 1 0 12.5268 5.36861 -8.28654
231 1 0 10.7372 7.15815 -8.12916
232 3 1.78954 12.5268 7.15815 -6.20002
167 2 5.36861 10.7372 5.36861 -6.89445
168 1 3.57908 12.5268 5.36861 -8.38734
233 3 3.57908 10.7372 7.15815 -6.33852
234 2 5.36861 12.5268 7.15815 -6.94315
171 3 8.94769 10.7372 5.36861 -6.25508
172 1 7.15815 12.5268 5.36861 -8.38557
235 1 7.15815 10.7372 7.15815 -8.70699
236 3 8.94769 12.5268 7.15815 -6.38003
175 3 12.5268 10.7372 5.36861 -6.40609
176 1 10.7372 12.5268 5.36861 -8.45509
237 1 10.7372 10.7372 7.15815 -8.74391
238 3 12.5268 12.5268 7.15815 -6.41591
179 3 16.1058 10.7372 5.36861 -6.48563
180 3 14.3163 12.5268 5.36861 -6.46569
239 1 14.3163 10.7372 7.15815 -8.81831
240 2 16.1058 12.5268 7.15815 -6.94592
183 3 1.78954 14.3163 5.36861 -6.29696
184 1 0 16.1058 5.36861 -8.37126
241 3 0 14.3163 7.15815 -6.40096
242 2 1.78954 16.1058 7.15815 -7.0436
187 2 5.36861 14.3163 5.36861 -6.98014
188 2 3.57908 16.1058 5.36861 -6.99421
243 3 3.57908 14.3163 7.15815 -6.38749
244 3 5.36861 16.1058 7.15815 -6.27759
191 2 8.94769 14.3163 5.36861 -7.03253
192 3 7.15815 16.1058 5.36861 -6.46893
245 2 7.15815 14.3163 7.15815 -6.96038
246 2 8.94769 16.1058 7.15815 -7.01974
195 3 12.5268 14.3163 5.36861 -6.44376
196 2 10.7372 16.1058 5.36861 -6.92553
247 3 10.7372 14.3163 7.15815 -6.50547
248 2 12.5268 16.1058 7.15815 -6.90998
199 1 16.1058 14.3163 5.36861 -8.22711
200 1 14.3163 16.1058 5.36861 -8.21209
249 3 14.3163 14.3163 7.15815 -6.3667
250 3 16.1058 16.1058 7.15815 -6.27465
251 1 1.78954 0 8.94769 -8.26337
252 2 0 1.78954 8.94769 -7.0588
301 1 0 0 10.7372 -8.39666
302 2 1.78954 1.78954 10.7372 -7.06227
303 2 1.78954 0 12.5268 -6.98236
304 2 0 1.78954 12.5268 -7.00402
253 1 5.36861 0 8.94769 -8.16452
254 2 3.57908 1.78954 8.94769 -7.07411
305 2 3.57908 0 10.7372 -7.00258
306 1 5.36861 1.78954 10.7372 -8.40353
307 3 5.36861 0 12.5268 -6.29104
308 3 3.57908 1.78954 12.5268 -6.42886
255 2 8.94769 0 8.94769 -7.03287
256 2 7.15815 1.78954 8.94769 -7.0631
309 1 7.15815 0 10.7372 -8.11306
310 2 8.94769 1.78954 10.7372 -7.00782
311 2 8.94769 0 12.5268 -7.00986
312 1 7.15815 1.78954 12.5268 -8.37717
257 3 12.5268 0 8.94769 -6.56026
258 2 10.7372 1.78954 8.94769 -7.02034
313 1 10.7372 0 10.7372 -8.41848
314 2 12.5268 1.78954 10.7372 -6.97306
315 3 12.5268 0 12.5268 -6.50117
316 1 10.7372 1.78954 12.5268 -8.26407
259 3 16.1058 0 8.94769 -6.55372
260 1 14.3163 1.78954 8.94769 -8.35714
317 2 14.3163 0 10.7372 -7.02769
318 2 16.1058 1.78954 10.7372 -7.00127
319 1 16.1058 0 12.5268 -8.66256
320 3 14.3163 1.78954 12.5268 -6.43337
261 2 1.78954 3.57908 8.94769 -6.99715
262 1 0 5.36861 8.94769 -8.37283
321 1 0 3.57908 10.7372 -8.4236
322 3 1.78954 5.36861 10.7372 -6.25519
323 1 1.78954 3.57908 12.5268 -8.3147
324 2 0 5.36861 12.5268 -6.95094
263 3 5.36861 3.57908 8.94769 -6.58571
264 1 3.57908 5.36861 8.94769 -8.79228
325 2 3.57908 3.57908 10.7372 -6.98015
326 3 5.36861 5.36861 10.7372 -6.29547
327 3 5.36861 3.57908 12.5268 -6.36515
328 1 3.57908 5.36861 12.5268 -8.2751
265 1 8.94769 3.57908 8.94769 -8.39188
266 1 7.15815 5.36861 8.94769 -8.43471
329 2 7.15815 3.57908 10.7372 -6.96962
330 2 8.94769 5.36861 10.7372 -6.90815
331 3 8.94769 3.57908 12.5268 -6.2765
332 1 7.15815 5.36861 12.5268 -8.476
267 1 12.5268 3.57908 8.94769 -8.50015
268 3 10.7372 5.36861 8.94769 -6.31626
333 3 10.7372 3.57908 10.7372 -6.43814
334 3 12.5268 5.36861 10.7372 -6.45873
335 2 12.5268 3.57908 12.5268 -6.98659
336 1 10.7372 5.36861 12.5268 -8.44896
269 1 16.1058 3.57908 8.94769 -8.22966
270 2 14.3163 5.36861 8.94769 -6.95557
337 3 14.3163 3.57908 10.7372 -6.4603
338 2 16.1058 5.36861 10.7372 -7.00292
339 1 16.1058 3.57908 12.5268 -8.56688
340 3 14.3163 5.36861 12.5268 -6.50888
271 3 1.78954 7.15815 8.94769 -6.21214
272 1 0 8.94769 8.94769 -8.20174
341 1 0 7.15815 10.7372 -8.15405
342 3 1.78954 8.94769 10.7372 -6.16642
343 1 1.78954 7.15815 12.5268 -8.37984
344 1 0 8.94769 12.5268 -8.29319
273 3 5.36861 7.15815 8.94769 -6.42476
274 1 3.57908 8.94769 8.94769 -8.83966
345 3 3.57908 7.15815 10.7372 -6.28095
346 2 5.36861 8.94769 10.7372 -6.8244
347 1 5.36861 7.15815 12.5268 -8.54719
348 3 3.57908 8.94769 12.5268 -6.31483
275 1 8.94769 7.15815 8.94769 -8.48864
276 3 7.15815 8.94769 8.94769 -6.47324
349 3 7.15815 7.15815 10.7372 -6.37551
350 3 8.94769 8.94769 10.7372 -6.59169
351 3 8.94769 7.15815 12.5268 -6.54962
352 3 7.15815 8.94769 12.5268 -6.51391
277 1 12.5268 7.15815 8.94769 -8.50626
278 3 10.7372 8.94769 8.94769 -6.37245
353 2 10.7372 7.15815 10.7372 -6.96515
354 1 12.5268 8.94769 10.7372 -8.40248
355 2 12.5268 7.15815 12.5268 -7.0309
356 2 10.7372 8.94769 12.5268 -7.09411
279 1 16.1058 7.15815 8.94769 -8.50984
280 2 14.3163 8.94769 8.94769 -6.99668
357 3 14.3163 7.15815 10.7372 -6.49733
358 1 16.1058 8.94769 10.7372 -8.27165
359 2 16.1058 7.15815 12.5268 -6.94235
360 3 14.3163 8.94769 12.5268 -6.39657
281 3 1.78954 10.7372 8.94769 -6.17041
282 1 0 12.5268 8.94769 -8.32359
361 1 0 10.7372 10.7372 -8.19381
362 1 1.78954 12.5268 10.7372 -8.34165
363 1 1.78954 10.7372 12.5268 -8.46241
364 2 0 12.5268 12.5268 -6.89012
283 3 5.36861 10.7372 8.94769 -6.45468
284 1 3.57908 12.5268 8.94769 -8.5394
365 3 3.57908 10.7372 10.7372 -6.30613
366 3 5.36861 12.5268 10.7372 -6.30747
367 1 5.36861 10.7372 12.5268 -8.79016
368 3 3.57908 12.5268 12.5268 -6.37131
285 3 8.94769 10.7372 8.94769 -6.46822
286 3 7.15815 12.5268 8.94769 -6.40476
369 3 7.15815 10.7372 10.7372 -6.47819
370 1 8.94769 12.5268 10.7372 -8.49525
371 2 8.94769 10.7372 12.5268 -6.95536
372 3 7.15815 12.5268 12.5268 -6.25305
287 2 12.5268 10.7372 8.94769 -6.92543
288 2 10.7372 12.5268 8.94769 -6.96156
373 2 10.7372 10.7372 10.7372 -7.00797
374 2 12.5268 12.5268 10.7372 -6.97536
375 3 12.5268 10.7372 12.5268 -6.54311
376 2 10.7372 12.5268 12.5268 -7.00856
289 3 16.1058 10.7372 8.94769 -6.35128
290 3 14.3163 12.5268 8.94769 -6.34835
377 1 14.3163 10.7372 10.7372 -8.48677
378 2 16.1058 12.5268 10.7372 -6.9787
379 2 16.1058 10.7372 12.5268 -6.94455
380 3 14.3163 12.5268 12.5268 -6.31419
291 2 1.78954 14.3163 8.94769 -6.92939
292 3 0 16.1058 8.94769 -6.55476
381 3 0 14.3163 10.7372 -6.4676
382 2 1.78954 16.1058 10.7372 -7.02794
383 3 1.78954 14.3163 12.5268 -6.61116
384 2 0 16.1058 12.5268 -6.94472
293 1 5.36861 14.3163 8.94769 -8.45631
294 1 3.57908 16.1058 8.94769 -8.22264
385 2 3.57908 14.3163 10.7372 -6.94081
386 3 5.36861 16.1058 10.7372 -6.2369
387 1 5.36861 14.3163 12.5268 -8.75172
388 3 3.57908 16.1058 12.5268 -6.55614
295 1 8.94769 14.3163 8.94769 -8.41462
296 1 7.15815 16.1058 8.94769 -8.11467
389 3 7.15815 14.3163 10.7372 -6.1597
390 1 8.94769 16.1058 10.7372 -8.29583
391 1 8.94769 14.3163 12.5268 -8.26498
392 1 7.15815 16.1058 12.5268 -8.28966
297 1 12.5268 14.3163 8.94769 -8.51305
298 2 10.7372 16.1058 8.94769 -7.00638
393 3 10.7372 14.3163 10.7372 -6.23517
394 1 12.5268 16.1058 10.7372 -8.41904
395 1 12.5268 14.3163 12.5268 -8.31383
396 3 10.7372 16.1058 12.5268 -6.24028
299 1 16.1058 14.3163 8.94769 -8.4593
300 3 14.3163 16.1058 8.94769 -6.26562
397 1 14.3163 14.3163 10.7372 -8.13779
398 1 16.1058 16.1058 10.7372 -8.42503
399 1 16.1058 14.3163 12.5268 -8.192
400 1 14.3163 16.1058 12.5268 -8.04531
401 1 0 0 14.3163 -8.34478
402 3 1.78954 1.78954 14.3163 -6.26938
403 1 1.78954 0 16.1058 -8.45149
404 3 0 1.78954 16.1058 -6.31364
405 1 3.57908 0 14.3163 -8.55596
406 2 5.36861 1.78954 14.3163 -6.87401
407 3 5.36861 0 16.1058 -6.47364
408 3 3.57908 1.78954 16.1058 -6.2594
409 3 7.15815 0 14.3163 -6.4142
410 1 8.94769 1.78954 14.3163 -8.36166
411 2 8.94769 0 16.1058 -6.89499
412 1 7.15815 1.78954 16.1058 -8.48237
413 3 10.7372 0 14.3163 -6.43581
414 1 12.5268 1.78954 14.3163 -8.30339
415 1 12.5268 0 16.1058 -8.33647
416 3 10.7372 1.78954 16.1058 -6.34683
417 3 14.3163 0 14.3163 -6.30807
418 3 16.1058 1.78954 14.3163 -6.20923
419 1 16.1058 0 16.1058 -8.22219
420 1 14.3163 1.78954 16.1058 -7.99191
421 2 0 3.57908 14.3163 -6.97035
422 2 1.78954 5.36861 14.3163 -7.09157
423 1 1.78954 3.57908 16.1058 -8.43008
424 2 0 5.36861 16.1058 -7.01675
425 1 3.57908 3.57908 14.3163 -8.28546
426 2 5.36861 5.36861 14.3163 -6.9823
427 1 5.36861 3.57908 16.1058 -8.2779
428 1 3.57908 5.36861 16.1058 -8.29925
429 2 7.15815 3.57908 14.3163 -6.92088
430 1 8.94769 5.36861 14.3163 -8.41695
431 3 8.94769 3.57908 16.1058 -6.35547
432 3 7.15815 5.36861 16.1058 -6.50064
433 1 10.7372 3.57908 14.3163 -8.13291
434 2 12.5268 5.36861 14.3163 -6.94348
435 3 12.5268 3.57908 16.1058 -6.20582
436 1 10.7372 5.36861 16.1058 -8.51219
437 1 14.3163 3.57908 14.3163 -8.13863
438 2 16.1058 5.36861 14.3163 -7.05195
439 1 16.1058 3.57908 16.1058 -8.15626
440 1 14.3163 5.36861 16.1058 -8.20799
441 2 0 7.15815 14.3163 -6.99125
442 3 1.78954 8.94769 14.3163 -6.37663
443 3 1.78954 7.15815 16.1058 -6.50512
444 3 0 8.94769 16.1058 -6.46223
445 2 3.57908 7.15815 14.3163 -6.9523
446 3 5.36861 8.94769 14.3163 -6.3807
447 2 5.36861 7.15815 16.1058 -6.96921
448 1 3.57908 8.94769 16.1058 -8.48351
449 3 7.15815 7.15815 14.3163 -6.49945
450 2 8.94769 8.94769 14.3163 -6.97895
451 2 8.94769 7.15815 16.1058 -6.98651
452 3 7.15815 8.94769 16.1058 -6.44039
453 2 10.7372 7.15815 14.3163 -7.00397
454 2 12.5268 8.94769 14.3163 -6.98715
455 3 12.5268 7.15815 16.1058 -6.35486
456 1 10.7372 8.94769 16.1058 -8.6548
457 1 14.3163 7.15815 14.3163 -8.46472
458 3 16.1058 8.94769 14.3163 -6.34016
459 1 16.1058 7.15815 16.1058 -8.36353
460 2 14.3163 8.94769 16.1058 -6.8859
461 3 0 10.7372 14.3163 -6.47258
462 2 1.78954 12.5268 14.3163 -6.8715
463 3 1.78954 10.7372 16.1058 -6.41802
464 2 0 12.5268 16.1058 -6.95927
465 3 3.57908 10.7372 14.3163 -6.34937
466 3 5.36861 12.5268 14.3163 -6.29013
467 2 5.36861 10.7372 16.1058 -6.93332
468 1 3.57908 12.5268 16.1058 -8.5315
469 1 7.15815 10.7372 14.3163 -8.37581
470 1 8.94769 12.5268 14.3163 -8.28827
471 3 8.94769 10.7372 16.1058 -6.30676
472 1 7.15815 12.5268 16.1058 -8.29472
473 3 10.7372 10.7372 14.3163 -6.49863
474 3 12.5268 12.5268 14.3163 -6.39083
475 3 12.5268 10.7372 16.1058 -6.30372
476 1 10.7372 12.5268 16.1058 -8.75065
477 1 14.3163 10.7372 14.3163 -8.5562
478 3 16.1058 12.5268 14.3163 -6.25319
479 1 16.1058 10.7372 16.1058 -8.36241
480 1 14.3163 12.5268 16.1058 -8.49683
481 3 0 14.3163 14.3163 -6.40929
482 3 1.78954 16.1058 14.3163 -6.55268
483 1 1.78954 14.3163 16.1058 -8.56653
484 3 0 16.1058 16.1058 -6.38763
485 3 3.57908 14.3163 14.3163 -6.4267
486 3 5.36861 16.1058 14.3163 -6.43388
487 3 5.36861 14.3163 16.1058 -6.4317
488 3 3.57908 16.1058 16.1058 -6.4215
489 3 7.15815 14.3163 14.3163 -6.23478
490 1 8.94769 16.1058 14.3163 -8.49036
491 3 8.94769 14.3163 16.1058 -6.3483
492 3 7.15815 16.1058 16.1058 -6.43032
493 2 10.7372 14.3163 14.3163 -6.91949
494 1 12.5268 16.1058 14.3163 -8.33675
495 3 12.5268 14.3163 16.1058 -6.33983
496 3 10.7372 16.1058 16.1058 -6.36418
497 2 14.3163 14.3163 14.3163 -6.94918
498 1 16.1058 16.1058 14.3163 -8.36855
499 3 16.1058 14.3163 16.1058 -6.30383
500 1 14.3163 16.1058 16.1058 -8.30706
501 1 0 0 17.8954 -8.28415
502 3 1.78954 1.78954 17.8954 -6.28402
503 2 1.78954 0 19.6849 -6.95385
504 3 0 1.78954 19.6849 -6.36236
601 1 0 0 21.4745 -8.40852
602 3 1.78954 1.78954 21.4745 -6.47869
505 2 3.57908 0 17.8954 -6.9517
506 3 5.36861 1.78954 17.8954 -6.3777
507 1 5.36861 0 19.6849 -8.57105
508 2 3.57908 1.78954 19.6849 -6.95765
605 3 3.57908 0 21.4745 -6.6424
606 2 5.36861 1.78954 21.4745 -7.06844
509 3 7.15815 0 17.8954 -6.44842
510 2 8.94769 1.78954 17.8954 -6.92565
511 1 8.94769 0 19.6849 -8.49103
512 2 7.15815 1.78954 19.6849 -6.89782
609 3 7.15815 0 21.4745 -6.49877
610 3 8.94769 1.78954 21.4745 -6.47979
513 1 10.7372 0 17.8954 -8.41973
514 2 12.5268 1.78954 17.8954 -6.95939
515 2 12.5268 0 19.6849 -6.96615
516 3 10.7372 1.78954 19.6849 -6.45863
613 2 10.7372 0 21.4745 -6.95768
614 1 12.5268 1.78954 21.4745 -8.47511
517 1 14.3163 0 17.8954 -8.30997
518 1 16.1058 1.78954 17.8954 -8.19399
519 3 16.1058 0 19.6849 -6.42076
520 2 14.3163 1.78954 19.6849 -6.9548
617 1 14.3163 0 21.4745 -8.49125
618 2 16.1058 1.78954 21.4745 -6.9752
521 3 0 3.57908 17.8954 -6.36661
522 2 1.78954 5.36861 17.8954 -7.02857
523 1 1.78954 3.57908 19.6849 -8.46223
524 1 0 5.36861 19.6849 -8.26806
621 3 0 3.57908 21.4745 -6.42161
622 2 1.78954 5.36861 21.4745 -6.95532
525 1 3.57908 3.57908 17.8954 -8.24814
526 3 5.36861 5.36861 17.8954 -6.37582
527 3 5.36861 3.57908 19.6849 -6.52558
528 1 3.57908 5.36861 19.6849 -8.42376
625 3 3.57908 3.57908 21.4745 -6.56873
626 2 5.36861 5.36861 21.4745 -7.0245
529 3 7.15815 3.57908 17.8954 -6.47122
530 2 8.94769 5.36861 17.8954 -6.94649
531 1 8.94769 3.57908 19.6849 -8.53676
532 2 7.15815 5.36861 19.6849 -6.93884
629 1 7.15815 3.57908 21.4745 -8.50594
630 3 8.94769 5.36861 21.4745 -6.58351
533 3 10.7372 3.57908 17.8954 -6.48247
534 3 12.5268 5.36861 17.8954 -6.27097
535 2 12.5268 3.57908 19.6849 -6.91549
536 1 10.7372 5.36861 19.6849 -8.6732
633 3 10.7372 3.57908 21.4745 -6.44061
634 3 12.5268 5.36861 21.4745 -6.38769
537 1 14.3163 3.57908 17.8954 -8.18033
538 2 16.1058 5.36861 17.8954 -7.02995
539 3 16.1058 3.57908 19.6849 -6.51405
540 1 14.3163 5.36861 19.6849 -8.57552
637 3 14.3163 3.57908 21.4745 -6.38016
638 3 16.1058 5.36861 21.4745 -6.37069
541 2 0 7.15815 17.8954 -7.0153
542 1 1.78954 8.94769 17.8954 -8.20843
543 1 1.78954 7.15815 19.6849 -8.19688
544 1 0 8.94769 19.6849 -8.29388
641 3 0 7.15815 21.4745 -6.09125
642 3 1.78954 8.94769 21.4745 -6.18003
545 2 3.57908 7.15815 17.8954 -6.9769
546 1 5.36861 8.94769 17.8954 -8.27216
547 3 5.36861 7.15815 19.6849 -6.57718
548 2 3.57908 8.94769 19.6849 -6.96897
645 2 3.57908 7.15815 21.4745 -7.06824
646 2 5.36861 8.94769 21.4745 -7.1238
549 1 7.15815 7.15815 17.8954 -8.50273
550 3 8.94769 8.94769 17.8954 -6.53609
551 2 8.94769 7.15815 19.6849 -7.05319
552 2 7.15815 8.94769 19.6849 -7.11502
649 3 7.15815 7.15815 21.4745 -6.78418
650 2 8.94769 8.94769 21.4745 -7.16775
553 3 10.7372 7.15815 17.8954 -6.42895
554 1 12.5268 8.94769 17.8954 -8.30632
555 3 12.5268 7.15815 19.6849 -6.37456
556 2 10.7372 8.94769 19.6849 -6.97934
653 2 10.7372 7.15815 21.4745 -7.0641
654 3 12.5268 8.94769 21.4745 -6.37378
557 2 14.3163 7.15815 17.8954 -6.90292
558 3 16.1058 8.94769 17.8954 -6.31584
559 1 16.1058 7.15815 19.6849 -8.43801
560 1 14.3163 8.94769 19.6849 -8.42866
657 3 14.3163 7.15815 21.4745 -6.21017
658 3 16.1058 8.94769 21.4745 -6.35648
561 1 0 10.7372 17.8954 -8.36178
562 2 1.78954 12.5268 17.8954 -6.93435
563 1 1.78954 10.7372 19.6849 -8.23123
564 1 0 12.5268 19.6849 -8.47091
661 3 0 10.7372 21.4745 -6.10761
662 2 1.78954 12.5268 21.4745 -6.86508
565 3 3.57908 10.7372 17.8954 -6.26864
566 1 5.36861 12.5268 17.8954 -8.18855
567 2 5.36861 10.7372 19.6849 -7.08211
568 1 3.57908 12.5268 19.6849 -8.34854
665 3 3.57908 10.7372 21.4745 -6.49554
666 2 5.36861 12.5268 21.4745 -6.98315
569 1 7.15815 10.7372 17.8954 -8.34177
570 3 8.94769 12.5268 17.8954 -6.44612
571 2 8.94769 10.7372 19.6849 -7.06609
572 2 7.15815 12.5268 19.6849 -7.02364
669 2 7.15815 10.7372 21.4745 -7.12726
670 3 8.94769 12.5268 21.4745 -6.5814
573 3 10.7372 10.7372 17.8954 -6.43615
574 3 12.5268 12.5268 17.8954 -6.41967
575 1 12.5268 10.7372 19.6849 -8.33171
576 2 10.7372 12.5268 19.6849 -7.01219
673 1 10.7372 10.7372 21.4745 -8.30189
674 2 12.5268 12.5268 21.4745 -7.04259
577 1 14.3163 10.7372 17.8954 -8.27183
578 2 16.1058 12.5268 17.8954 -6.89946
579 3 16.1058 10.7372 19.6849 -6.42859
580 3 14.3163 12.5268 19.6849 -6.559
677 3 14.3163 10.7372 21.4745 -6.33529
678 2 16.1058 12.5268 21.4745 -6.95598
581 2 0 14.3163 17.8954 -6.90376
582 3 1.78954 16.1058 17.8954 -6.38009
583 3 1.78954 14.3163 19.6849 -6.37676
584 1 0 16.1058 19.6849 -8.58058
681 3 0 14.3163 21.4745 -6.22896
682 1 1.78954 16.1058 21.4745 -8.38822
585 2 3.57908 14.3163 17.8954 -6.96032
586 2 5.36861 16.1058 17.8954 -6.96889
587 3 5.36861 14.3163 19.6849 -6.49953
588 2 3.57908 16.1058 19.6849 -6.95756
685 1 3.57908 14.3163 21.4745 -8.5307
686 3 5.36861 16.1058 21.4745 -6.44715
589 1 7.15815 14.3163 17.8954 -8.54011
590 2 8.94769 16.1058 17.8954 -6.96271
591 3 8.94769 14.3163 19.6849 -6.66286
592 2 7.15815 16.1058 19.6849 -7.03262
689 2 7.15815 14.3163 21.4745 -6.98566
690 2 8.94769 16.1058 21.4745 -7.05135
593 3 10.7372 14.3163 17.8954 -6.51551
594 1 12.5268 16.1058 17.8954 -8.3212
595 2 12.5268 14.3163 19.6849 -6.99819
596 3 10.7372 16.1058 19.6849 -6.54596
693 2 10.7372 14.3163 21.4745 -7.06907
694 2 12.5268 16.1058 21.4745 -6.93173
597 2 14.3163 14.3163 17.8954 -6.89587
598 3 16.1058 16.1058 17.8954 -6.41254
599 3 16.1058 14.3163 19.6849 -6.4773
600 1 14.3163 16.1058 19.6849 -8.34384
697 3 14.3163 14.3163 21.4745 -6.48319
698 2 16.1058 16.1058 21.4745 -6.8947
603 3 1.78954 0 23.264 -6.50683
604 3 0 1.78954 23.264 -6.42751
701 1 0 0 25.0535 -8.61112
702 3 1.78954 1.78954 25.0535 -6.59227
607 2 5.36861 0 23.264 -7.01261
608 2 3.57908 1.78954 23.264 -7.07518
703 2 3.57908 0 25.0535 -6.93522
704 3 5.36861 1.78954 25.0535 -6.62686
611 3 8.94769 0 23.264 -6.441
612 3 7.15815 1.78954 23.264 -6.47158
705 1 7.15815 0 25.0535 -8.39777
706 1 8.94769 1.78954 25.0535 -8.44996
615 3 12.5268 0 23.264 -6.38987
616 3 10.7372 1.78954 23.264 -6.40514
707 2 10.7372 0 25.0535 -6.90539
708 1 12.5268 1.78954 25.0535 -8.44323
619 3 16.1058 0 23.264 -6.43535
620 2 14.3163 1.78954 23.264 -6.94863
709 1 14.3163 0 25.0535 -8.31276
710 1 16.1058 1.78954 25.0535 -8.44093
623 1 1.78954 3.57908 23.264 -8.59274
624 1 0 5.36861 23.264 -8.32406
711 3 0 3.57908 25.0535 -6.59531
712 2 1.78954 5.36861 25.0535 -7.007
627 2 5.36861 3.57908 23.264 -7.05379
628 2 3.57908 5.36861 23.264 -7.02718
713 2 3.57908 3.57908 25.0535 -7.09505
714 1 5.36861 5.36861 25.0535 -8.57663
631 2 8.94769 3.57908 23.264 -6.93547
632 3 7.15815 5.36861 23.264 -6.58493
715 1 7.15815 3.57908 25.0535 -8.40513
716 2 8.94769 5.36861 25.0535 -6.96432
635 1 12.5268 3.57908 23.264 -8.46409
636 2 10.7372 5.36861 23.264 -6.98401
717 3 10.7372 3.57908 25.0535 -6.55196
718 3 12.5268 5.36861 25.0535 -6.43508
639 1 16.1058 3.57908 23.264 -8.36322
640 1 14.3163 5.36861 23.264 -8.46084
719 3 14.3163 3.57908 25.0535 -6.2649
720 1 16.1058 5.36861 25.0535 -8.30529
643 1 1.78954 7.15815 23.264 -8.43255
644 1 0 8.94769 23.264 -8.12217
721 1 0 7.15815 25.0535 -8.1687
722 3 1.78954 8.94769 25.0535 -6.23847
647 3 5.36861 7.15815 23.264 -6.67535
648 3 3.57908 8.94769 23.264 -6.5188
723 3 3.57908 7.15815 25.0535 -6.60979
724 2 5.36861 8.94769 25.0535 -6.99136
651 3 8.94769 7.15815 23.264 -6.6767
652 3 7.15815 8.94769 23.264 -6.74873
725 3 7.15815 7.15815 25.0535 -6.63719
726 3 8.94769 8.94769 25.0535 -6.4722
655 2 12.5268 7.15815 23.264 -6.89039
656 2 10.7372 8.94769 23.264 -6.95982
727 1 10.7372 7.15815 25.0535 -8.66792
728 3 12.5268 8.94769 25.0535 -6.27482
659 1 16.1058 7.15815 23.264 -8.43683
660 1 14.3163 8.94769 23.264 -8.54263
729 3 14.3163 7.15815 25.0535 -6.2583
730 3 16.1058 8.94769 25.0535 -6.32186
663 1 1.78954 10.7372 23.264 -8.36054
664 1 0 12.5268 23.264 -8.24578
731 1 0 10.7372 25.0535 -8.00973
732 3 1.78954 12.5268 25.0535 -6.37093
667 3 5.36861 10.7372 23.264 -6.64644
668 3 3.57908 12.5268 23.264 -6.4676
733 1 3.57908 10.7372 25.0535 -8.40917
734 2 5.36861 12.5268 25.0535 -6.95648
671 2 8.94769 10.7372 23.264 -7.00659
672 1 7.15815 12.5268 23.264 -8.61876
735 3 7.15815 10.7372 25.0535 -6.56025
736 2 8.94769 12.5268 25.0535 -7.0165
675 1 12.5268 10.7372 23.264 -8.36977
676 1 10.7372 12.5268 23.264 -8.30537
737 1 10.7372 10.7372 25.0535 -8.25792
738 3 12.5268 12.5268 25.0535 -6.11986
679 1 16.1058 10.7372 23.264 -8.45665
680 2 14.3163 12.5268 23.264 -6.89593
739 3 14.3163 10.7372 25.0535 -6.1201
740 1 16.1058 12.5268 25.0535 -8.0836
683 3 1.78954 14.3163 23.264 -6.39367
684 2 0 16.1058 23.264 -6.8744
741 2 0 14.3163 25.0535 -6.95677
742 1 1.78954 16.1058 25.0535 -8.46683
687 3 5.36861 14.3163 23.264 -6.50383
688 3 3.57908 16.1058 23.264 -6.34827
743 3 3.57908 14.3163 25.0535 -6.48857
744 3 5.36861 16.1058 25.0535 -6.3327
691 3 8.94769 14.3163 23.264 -6.42419
692 1 7.15815 16.1058 23.264 -8.31083
745 2 7.15815 14.3163 25.0535 -6.96691
746 1 8.94769 16.1058 25.0535 -8.25037
695 1 12.5268 14.3163 23.264 -8.33307
696 1 10.7372 16.1058 23.264 -8.21913
747 2 10.7372 14.3163 25.0535 -6.95629
748 3 12.5268 16.1058 25.0535 -6.2416
699 1 16.1058 14.3163 23.264 -8.32695
700 3 14.3163 16.1058 23.264 -6.24807
749 1 14.3163 14.3163 25.0535 -8.06593
750 1 16.1058 16.1058 25.0535 -8.27813
751 3 1.78954 0 26.8431 -6.51317
752 3 0 1.78954 26.8431 -6.62847
801 2 0 0 28.6326 -6.99789
802 1 1.78954 1.78954 28.6326 -8.7078
803 3 1.78954 0 30.4221 -6.41544
804 3 0 1.78954 30.4221 -6.49946
753 3 5.36861 0 26.8431 -6.40837
754 2 3.57908 1.78954 26.8431 -7.01125
805 3 3.57908 0 28.6326 -6.41795
806 1 5.36861 1.78954 28.6326 -8.45153
807 2 5.36861 0 30.4221 -6.91853
808 2 3.57908 1.78954 30.4221 -6.87968
755 2 8.94769 0 26.8431 -7.05676
756 2 7.15815 1.78954 26.8431 -6.99658
809 1 7.15815 0 28.6326 -8.16781
810 2 8.94769 1.78954 28.6326 -6.97672
811 1 8.94769 0 30.4221 -8.32223
812 1 7.15815 1.78954 30.4221 -8.2122
757 3 12.5268 0 26.8431 -6.38993
758 2 10.7372 1.78954 26.8431 -7.00413
813 3 10.7372 0 28.6326 -6.39059
814 1 12.5268 1.78954 28.6326 -8.44654
815 3 12.5268 0 30.4221 -6.46709
816 3 10.7372 1.78954 30.4221 -6.49099
759 1 16.1058 0 26.8431 -8.19053
760 2 14.3163 1.78954 26.8431 -6.98626
817 2 14.3163 0 28.6326 -6.98054
818 2 16.1058 1.78954 28.6326 -7.07818
819 2 16.1058 0 30.4221 -7.0669
820 2 14.3163 1.78954 30.4221 -6.9754
761 3 1.78954 3.57908 26.8431 -6.60658
762 3 0 5.36861 26.8431 -6.54372
821 2 0 3.57908 28.6326 -7.04629
822 1 1.78954 5.36861 28.6326 -8.55066
823 2 1.78954 3.57908 30.4221 -7.04072
824 2 0 5.36861 30.4221 -7.00587
763 2 5.36861 3.57908 26.8431 -7.02134
764 2 3.57908 5.36861 26.8431 -7.03969
825 3 3.57908 3.57908 28.6326 -6.40811
826 1 5.36861 5.36861 28.6326 -8.52516
827 3 5.36861 3.57908 30.4221 -6.31713
828 1 3.57908 5.36861 30.4221 -8.37825
765 2 8.94769 3.57908 26.8431 -7.03608
766 3 7.15815 5.36861 26.8431 -6.58063
829 3 7.15815 3.57908 28.6326 -6.5728
830 3 8.94769 5.36861 28.6326 -6.55014
831 2 8.94769 3.57908 30.4221 -6.99218
832 2 7.15815 5.36861 30.4221 -6.92485
767 2 12.5268 3.57908 26.8431 -7.00484
768 3 10.7372 5.36861 26.8431 -6.46354
833 1 10.7372 3.57908 28.6326 -8.27898
834 1 12.5268 5.36861 28.6326 -8.11948
835 2 12.5268 3.57908 30.4221 -7.07364