ITEM: TIMESTEP
0
ITEM: NUMBER OF ATOMS
4000
ITEM: BOX BOUNDS pp pp pp
0.0000000000000000e+00 3.5734059999999999e+01
0.0000000000000000e+00 3.5734059999999999e+01
0.0000000000000000e+00 3.5734059999999999e+01
ITEM: ATOMS id type x y z c_peratom
1 2 0 0 0 -6.97339
2 3 1.7867 1.7867 0 -6.55497
3 2 1.7867 0 1.7867 -6.95376
4 3 0 1.7867 1.7867 -6.51315
101 1 0 0 3.57341 -8.42555
102 2 1.7867 1.7867 3.57341 -7.04092
5 1 3.57341 0 0 -8.74759
6 3 5.36011 1.7867 0 -6.41656
7 3 5.36011 0 1.7867 -6.46855
8 2 3.57341 1.7867 1.7867 -7.02206
105 1 3.57341 0 3.57341 -8.45002
106 2 5.36011 1.7867 3.57341 -7.01909
9 3 7.14681 0 0 -6.53046
10 1 8.93351 1.7867 0 -8.09322
11 1 8.93351 0 1.7867 -8.43114
12 2 7.14681 1.7867 1.7867 -6.93384
13 2 10.7202 0 0 -6.94332
16 3 10.7202 1.7867 1.7867 -6.34235
109 1 7.14681 0 3.57341 -8.31027
110 3 8.93351 1.7867 3.57341 -6.22281
113 3 10.7202 0 3.57341 -6.29727
14 1 12.5069 1.7867 0 -8.3883
15 2 12.5069 0 1.7867 -6.98649
114 3 12.5069 1.7867 3.57341 -6.3229
17 1 14.2936 0 0 -8.0857
18 2 16.0803 1.7867 0 -6.90883
19 1 16.0803 0 1.7867 -8.19517
20 2 14.2936 1.7867 1.7867 -7.01607
117 1 14.2936 0 3.57341 -8.13326
118 2 16.0803 1.7867 3.57341 -7.05884
21 2 0 3.57341 0 -7.05101
22 2 1.7867 5.36011 0 -7.09652
23 1 1.7867 3.57341 1.7867 -8.39362
24 1 0 5.36011 1.7867 -8.33049
121 2 0 3.57341 3.57341 -7.04629
122 2 1.7867 5.36011 3.57341 -7.03476
25 2 3.57341 3.57341 0 -6.97579
26 3 5.36011 5.36011 0 -6.19847
27 1 5.36011 3.57341 1.7867 -8.26372
28 1 3.57341 5.36011 1.7867 -8.21552
125 2 3.57341 3.57341 3.57341 -7.04084
126 3 5.36011 5.36011 3.57341 -6.17807
29 1 7.14681 3.57341 0 -8.17771
30 3 8.93351 5.36011 0 -6.23072
31 2 8.93351 3.57341 1.7867 -6.86006
32 1 7.14681 5.36011 1.7867 -8.18535
33 1 10.7202 3.57341 0 -8.40361
36 3 10.7202 5.36011 1.7867 -6.24456
129 1 7.14681 3.57341 3.57341 -8.32975
130 3 8.93351 5.36011 3.57341 -6.16404
133 1 10.7202 3.57341 3.57341 -8.54444
34 2 12.5069 5.36011 0 -6.98912
35 3 12.5069 3.57341 1.7867 -6.40062
134 3 12.5069 5.36011 3.57341 -6.30687
37 3 14.2936 3.57341 0 -6.49592
38 3 16.0803 5.36011 0 -6.42575
39 2 16.0803 3.57341 1.7867 -7.01849
40 1 14.2936 5.36011 1.7867 -8.50236
137 3 14.2936 3.57341 3.57341 -6.45047
138 2 16.0803 5.36011 3.57341 -7.02238
41 2 0 7.14681 0 -7.16273
42 2 1.7867 8.93351 0 -7.0461
43 1 1.7867 7.14681 1.7867 -8.29479
44 1 0 8.93351 1.7867 -8.50363
61 2 0 10.7202 0 -7.05793
63 3 1.7867 10.7202 1.7867 -6.35777
141 2 0 7.14681 3.57341 -6.97525
142 3 1.7867 8.93351 3.57341 -6.314
161 3 0 10.7202 3.57341 -6.36686
45 2 3.57341 7.14681 0 -6.98106
46 1 5.36011 8.93351 0 -8.24549
47 1 5.36011 7.14681 1.7867 -8.07467
48 3 3.57341 8.93351 1.7867 -6.26008
65 1 3.57341 10.7202 0 -8.32426
67 1 5.36011 10.7202 1.7867 -8.09278
145 2 3.57341 7.14681 3.57341 -6.9431
146 1 5.36011 8.93351 3.57341 -8.18559
165 1 3.57341 10.7202 3.57341 -8.40199
49 1 7.14681 7.14681 0 -8.43487
50 2 8.93351 8.93351 0 -6.97484
51 2 8.93351 7.14681 1.7867 -6.8971
52 2 7.14681 8.93351 1.7867 -7.03646
53 1 10.7202 7.14681 0 -8.38941
56 3 10.7202 8.93351 1.7867 -6.29097
69 2 7.14681 10.7202 0 -7.02668
71 1 8.93351 10.7202 1.7867 -8.59361
73 3 10.7202 10.7202 0 -6.48239
149 1 7.14681 7.14681 3.57341 -8.10449
150 1 8.93351 8.93351 3.57341 -8.18099
153 1 10.7202 7.14681 3.57341 -8.29923
169 3 7.14681 10.7202 3.57341 -6.19409
173 3 10.7202 10.7202 3.57341 -6.27566
54 2 12.5069 8.93351 0 -6.94949
55 1 12.5069 7.14681 1.7867 -8.19947
75 3 12.5069 10.7202 1.7867 -6.39693
154 1 12.5069 8.93351 3.57341 -8.38736
57 1 14.2936 7.14681 0 -8.18189
58 1 16.0803 8.93351 0 -8.48336
59 2 16.0803 7.14681 1.7867 -6.94947
60 3 14.2936 8.93351 1.7867 -6.26466
77 1 14.2936 10.7202 0 -8.31892
79 3 16.0803 10.7202 1.7867 -6.2452
157 2 14.2936 7.14681 3.57341 -7.00851
158 1 16.0803 8.93351 3.57341 -8.36723
177 2 14.2936 10.7202 3.57341 -6.90529
62 2 1.7867 12.5069 0 -6.92397
64 1 0 12.5069 1.7867 -8.46397
162 1 1.7867 12.5069 3.57341 -8.28497
66 1 5.36011 12.5069 0 -8.45754
68 3 3.57341 12.5069 1.7867 -6.14922
166 1 5.36011 12.5069 3.57341 -8.27539
70 3 8.93351 12.5069 0 -6.46948
72 2 7.14681 12.5069 1.7867 -7.01397
76 3 10.7202 12.5069 1.7867 -6.48966
170 2 8.93351 12.5069 3.57341 -6.91692
74 2 12.5069 12.5069 0 -6.92864
174 1 12.5069 12.5069 3.57341 -8.62341
78 1 16.0803 12.5069 0 -8.38062
80 1 14.2936 12.5069 1.7867 -8.46703
178 3 16.0803 12.5069 3.57341 -6.35465
81 3 0 14.2936 0 -6.36057
82 3 1.7867 16.0803 0 -6.30151
83 1 1.7867 14.2936 1.7867 -8.41368
84 2 0 16.0803 1.7867 -6.9667
181 1 0 14.2936 3.57341 -8.25087
182 3 1.7867 16.0803 3.57341 -6.37845
85 3 3.57341 14.2936 0 -6.3525
86 1 5.36011 16.0803 0 -8.49027
87 3 5.36011 14.2936 1.7867 -6.33287
88 2 3.57341 16.0803 1.7867 -6.93135
185 1 3.57341 14.2936 3.57341 -8.28066
186 1 5.36011 16.0803 3.57341 -8.36586
89 2 7.14681 14.2936 0 -7.07316
90 2 8.93351 16.0803 0 -7.04466
91 1 8.93351 14.2936 1.7867 -8.61956
92 2 7.14681 16.0803 1.7867 -7.06972
93 2 10.7202 14.2936 0 -7.00628
96 3 10.7202 16.0803 1.7867 -6.53821
189 2 7.14681 14.2936 3.57341 -7.04303
190 2 8.93351 16.0803 3.57341 -7.02355
193 3 10.7202 14.2936 3.57341 -6.50549
94 1 12.5069 16.0803 0 -8.30032
95 3 12.5069 14.2936 1.7867 -6.39965
194 3 12.5069 16.0803 3.57341 -6.51124
97 2 14.2936 14.2936 0 -6.9148
98 1 16.0803 16.0803 0 -8.37905
99 3 16.0803 14.2936 1.7867 -6.18355
100 1 14.2936 16.0803 1.7867 -8.38385
197 3 14.2936 14.2936 3.57341 -6.31446
198 1 16.0803 16.0803 3.57341 -8.46584
103 1 1.7867 0 5.36011 -8.41106
104 3 0 1.7867 5.36011 -6.5767
201 3 0 0 7.14681 -6.59086
202 2 1.7867 1.7867 7.14681 -7.11225
107 1 5.36011 0 5.36011 -8.34438
108 2 3.57341 1.7867 5.36011 -7.08282
203 2 3.57341 0 7.14681 -7.04521
204 2 5.36011 1.7867 7.14681 -6.99879
111 1 8.93351 0 5.36011 -8.18039
112 3 7.14681 1.7867 5.36011 -6.29119
116 1 10.7202 1.7867 5.36011 -8.16997
205 2 7.14681 0 7.14681 -6.95285
206 1 8.93351 1.7867 7.14681 -8.3839
207 2 10.7202 0 7.14681 -7.08715
115 1 12.5069 0 5.36011 -8.10619
208 1 12.5069 1.7867 7.14681 -8.06977
119 1 16.0803 0 5.36011 -7.93874
120 1 14.2936 1.7867 5.36011 -8.22109
209 2 14.2936 0 7.14681 -7.02458
210 2 16.0803 1.7867 7.14681 -7.00011
123 3 1.7867 3.57341 5.36011 -6.59892
124 1 0 5.36011 5.36011 -8.38833
211 2 0 3.57341 7.14681 -7.04689
212 1 1.7867 5.36011 7.14681 -8.36208
127 1 5.36011 3.57341 5.36011 -8.31911
128 1 3.57341 5.36011 5.36011 -8.33837
213 2 3.57341 3.57341 7.14681 -7.03961
214 2 5.36011 5.36011 7.14681 -6.96177
131 2 8.93351 3.57341 5.36011 -6.8696
132 1 7.14681 5.36011 5.36011 -8.39486
136 1 10.7202 5.36011 5.36011 -8.39594
215 3 7.14681 3.57341 7.14681 -6.45553
216 3 8.93351 5.36011 7.14681 -6.47042
217 3 10.7202 3.57341 7.14681 -6.33739
135 2 12.5069 3.57341 5.36011 -6.94652
218 1 12.5069 5.36011 7.14681 -8.29129
139 3 16.0803 3.57341 5.36011 -6.374
140 1 14.2936 5.36011 5.36011 -8.4434
219 1 14.2936 3.57341 7.14681 -8.18897
220 2 16.0803 5.36011 7.14681 -7.04377
143 1 1.7867 7.14681 5.36011 -8.26002
144 1 0 8.93351 5.36011 -8.33206
163 3 1.7867 10.7202 5.36011 -6.32462
221 1 0 7.14681 7.14681 -8.29413
222 2 1.7867 8.93351 7.14681 -6.93689
231 1 0 10.7202 7.14681 -8.46611
147 2 5.36011 7.14681 5.36011 -6.94535
148 3 3.57341 8.93351 5.36011 -6.30249
167 3 5.36011 10.7202 5.36011 -6.17644
223 3 3.57341 7.14681 7.14681 -6.35559
224 1 5.36011 8.93351 7.14681 -8.26018
233 1 3.57341 10.7202 7.14681 -8.48318
151 3 8.93351 7.14681 5.36011 -6.29663
152 1 7.14681 8.93351 5.36011 -8.12509
156 2 10.7202 8.93351 5.36011 -7.01411
171 1 8.93351 10.7202 5.36011 -8.16989
225 2 7.14681 7.14681 7.14681 -6.97383
226 2 8.93351 8.93351 7.14681 -7.00393
227 2 10.7202 7.14681 7.14681 -7.04626
235 1 7.14681 10.7202 7.14681 -7.98038
237 2 10.7202 10.7202 7.14681 -6.99929
155 2 12.5069 7.14681 5.36011 -7.028
175 1 12.5069 10.7202 5.36011 -8.33653
228 1 12.5069 8.93351 7.14681 -8.55261
159 2 16.0803 7.14681 5.36011 -7.09775
160 2 14.2936 8.93351 5.36011 -7.01763
179 1 16.0803 10.7202 5.36011 -8.4777
229 2 14.2936 7.14681 7.14681 -7.10719
230 3 16.0803 8.93351 7.14681 -6.52166
239 3 14.2936 10.7202 7.14681 -6.3528
164 2 0 12.5069 5.36011 -6.95861
232 2 1.7867 12.5069 7.14681 -6.92832
168 2 3.57341 12.5069 5.36011 -6.97818
234 2 5.36011 12.5069 7.14681 -6.91486
172 1 7.14681 12.5069 5.36011 -8.26238
176 2 10.7202 12.5069 5.36011 -6.97115
236 1 8.93351 12.5069 7.14681 -8.23335
238 2 12.5069 12.5069 7.14681 -6.89688
180 3 14.2936 12.5069 5.36011 -6.36211
240 3 16.0803 12.5069 7.14681 -6.2827
183 2 1.7867 14.2936 5.36011 -6.99984
184 2 0 16.0803 5.36011 -6.99759
241 1 0 14.2936 7.14681 -8.64133
242 2 1.7867 16.0803 7.14681 -6.94972
187 2 5.36011 14.2936 5.36011 -7.04308
188 3 3.57341 16.0803 5.36011 -6.28043
243 1 3.57341 14.2936 7.14681 -8.4743
244 1 5.36011 16.0803 7.14681 -8.47939
191 2 8.93351 14.2936 5.36011 -7.04607
192 3 7.14681 16.0803 5.36011 -6.4699
196 1 10.7202 16.0803 5.36011 -8.52709
245 2 7.14681 14.2936 7.14681 -7.02347
246 2 8.93351 16.0803 7.14681 -7.02906
247 2 10.7202 14.2936 7.14681 -6.97007
195 3 12.5069 14.2936 5.36011 -6.46913
248 3 12.5069 16.0803 7.14681 -6.4016
199 3 16.0803 14.2936 5.36011 -6.27075
200 3 14.2936 16.0803 5.36011 -6.44533
249 1 14.2936 14.2936 7.14681 -8.57893
250 1 16.0803 16.0803 7.14681 -8.42253
251 2 1.7867 0 8.93351 -7.01473
252 2 0 1.7867 8.93351 -7.00884
301 1 0 0 10.7202 -8.68353
302 3 1.7867 1.7867 10.7202 -6.44957
303 2 1.7867 0 12.5069 -6.98372
304 3 0 1.7867 12.5069 -6.48143
253 1 5.36011 0 8.93351 -8.35193
254 1 3.57341 1.7867 8.93351 -8.60106
305 2 3.57341 0 10.7202 -6.98343
306 3 5.36011 1.7867 10.7202 -6.3674
307 2 5.36011 0 12.5069 -7.01029
308 1 3.57341 1.7867 12.5069 -8.47677
255 1 8.93351 0 8.93351 -8.4242
256 3 7.14681 1.7867 8.93351 -6.44381
258 2 10.7202 1.7867 8.93351 -6.97246
309 2 7.14681 0 10.7202 -7.00245
310 3 8.93351 1.7867 10.7202 -6.55839
311 3 8.93351 0 12.5069 -6.52279
312 3 7.14681 1.7867 12.5069 -6.40859
313 3 10.7202 0 10.7202 -6.44041
316 2 10.7202 1.7867 12.5069 -6.97413
257 1 12.5069 0 8.93351 -8.29839
314 1 12.5069 1.7867 10.7202 -8.32591
315 2 12.5069 0 12.5069 -6.96695
259 1 16.0803 0 8.93351 -8.07601
260 1 14.2936 1.7867 8.93351 -8.0491
317 3 14.2936 0 10.7202 -6.18951
318 1 16.0803 1.7867 10.7202 -8.37679
319 2 16.0803 0 12.5069 -6.99365
320 2 14.2936 1.7867 12.5069 -6.97882
261 3 1.7867 3.57341 8.93351 -6.55166
262 2 0 5.36011 8.93351 -6.98995
321 1 0 3.57341 10.7202 -8.64631
322 3 1.7867 5.36011 10.7202 -6.53581
323 3 1.7867 3.57341 12.5069 -6.46318
324 2 0 5.36011 12.5069 -6.98082
263 3 5.36011 3.57341 8.93351 -6.55467
264 2 3.57341 5.36011 8.93351 -6.9626
325 3 3.57341 3.57341 10.7202 -6.39675
326 2 5.36011 5.36011 10.7202 -6.87289
327 1 5.36011 3.57341 12.5069 -8.20103
328 1 3.57341 5.36011 12.5069 -8.68061
265 3 8.93351 3.57341 8.93351 -6.47413
266 3 7.14681 5.36011 8.93351 -6.42591
268 2 10.7202 5.36011 8.93351 -7.01372
329 1 7.14681 3.57341 10.7202 -8.5794
330 1 8.93351 5.36011 10.7202 -8.47972
331 3 8.93351 3.57341 12.5069 -6.36421
332 2 7.14681 5.36011 12.5069 -6.89216
333 2 10.7202 3.57341 10.7202 -7.0024
336 3 10.7202 5.36011 12.5069 -6.42868
267 2 12.5069 3.57341 8.93351 -7.03934
334 2 12.5069 5.36011 10.7202 -7.06818
335 1 12.5069 3.57341 12.5069 -8.35114
269 3 16.0803 3.57341 8.93351 -6.36712
270 3 14.2936 5.36011 8.93351 -6.64911
337 2 14.2936 3.57341 10.7202 -6.97858
338 3 16.0803 5.36011 10.7202 -6.48381
339 3 16.0803 3.57341 12.5069 -6.39484
340 1 14.2936 5.36011 12.5069 -8.4541
271 2 1.7867 7.14681 8.93351 -6.96686
272 2 0 8.93351 8.93351 -6.95964
281 2 1.7867 10.7202 8.93351 -6.92877
341 3 0 7.14681 10.7202 -6.5365
342 1 1.7867 8.93351 10.7202 -8.7131
343 3 1.7867 7.14681 12.5069 -6.43634
344 3 0 8.93351 12.5069 -6.40626
361 3 0 10.7202 10.7202 -6.24912
363 3 1.7867 10.7202 12.5069 -6.33663
273 1 5.36011 7.14681 8.93351 -8.38984
274 3 3.57341 8.93351 8.93351 -6.28651
283 1 5.36011 10.7202 8.93351 -8.20414
345 3 3.57341 7.14681 10.7202 -6.38835
346 1 5.36011 8.93351 10.7202 -8.37423
347 3 5.36011 7.14681 12.5069 -6.29121
348 1 3.57341 8.93351 12.5069 -8.4978
365 3 3.57341 10.7202 10.7202 -6.22672
367 2 5.36011 10.7202 12.5069 -6.90418
275 1 8.93351 7.14681 8.93351 -8.44491
276 2 7.14681 8.93351 8.93351 -7.0252
278 3 10.7202 8.93351 8.93351 -6.4833
285 1 8.93351 10.7202 8.93351 -8.19039
349 1 7.14681 7.14681 10.7202 -8.28936
350 2 8.93351 8.93351 10.7202 -6.93654
351 3 8.93351 7.14681 12.5069 -6.38363
352 3 7.14681 8.93351 12.5069 -6.45821
353 3 10.7202 7.14681 10.7202 -6.61305
356 2 10.7202 8.93351 12.5069 -7.0567
369 3 7.14681 10.7202 10.7202 -6.32199
371 2 8.93351 10.7202 12.5069 -6.95035
373 1 10.7202 10.7202 10.7202 -8.31945
277 2 12.5069 7.14681 8.93351 -7.10294
287 3 12.5069 10.7202 8.93351 -6.47563
354 2 12.5069 8.93351 10.7202 -7.07567
355 2 12.5069 7.14681 12.5069 -7.04239
375 1 12.5069 10.7202 12.5069 -8.27229
279 2 16.0803 7.14681 8.93351 -7.11654
280 3 14.2936 8.93351 8.93351 -6.62991
289 1 16.0803 10.7202 8.93351 -8.50128
357 2 14.2936 7.14681 10.7202 -7.1029
358 2 16.0803 8.93351 10.7202 -7.09108
359 2 16.0803 7.14681 12.5069 -6.91928
360 1 14.2936 8.93351 12.5069 -8.17036
377 2 14.2936 10.7202 10.7202 -6.93933
379 1 16.0803 10.7202 12.5069 -8.1628
282 3 0 12.5069 8.93351 -6.39968
362 1 1.7867 12.5069 10.7202 -8.67155
364 1 0 12.5069 12.5069 -8.26911
284 3 3.57341 12.5069 8.93351 -6.34342
366 1 5.36011 12.5069 10.7202 -8.48643
368 1 3.57341 12.5069 12.5069 -8.40572
286 2 7.14681 12.5069 8.93351 -6.97736
288 1 10.7202 12.5069 8.93351 -8.40849
370 1 8.93351 12.5069 10.7202 -8.40079
372 3 7.14681 12.5069 12.5069 -6.24762
376 3 10.7202 12.5069 12.5069 -6.18747
374 3 12.5069 12.5069 10.7202 -6.2974
290 1 14.2936 12.5069 8.93351 -8.47509
378 2 16.0803 12.5069 10.7202 -6.94582
380 3 14.2936 12.5069 12.5069 -6.16377
291 3 1.7867 14.2936 8.93351 -6.40699
292 2 0 16.0803 8.93351 -6.96571
381 3 0 14.2936 10.7202 -6.36571
382 3 1.7867 16.0803 10.7202 -6.47218
383 3 1.7867 14.2936 12.5069 -6.39057
384 3 0 16.0803 12.5069 -6.3967
293 3 5.36011 14.2936 8.93351 -6.34672
294 1 3.57341 16.0803 8.93351 -8.45655
385 3 3.57341 14.2936 10.7202 -6.3466
386 2 5.36011 16.0803 10.7202 -6.90755
387 3 5.36011 14.2936 12.5069 -6.3147
388 3 3.57341 16.0803 12.5069 -6.36386
295 3 8.93351 14.2936 8.93351 -6.37775
296 2 7.14681 16.0803 8.93351 -6.99261
298 1 10.7202 16.0803 8.93351 -8.42756
389 1 7.14681 14.2936 10.7202 -8.48486
390 3 8.93351 16.0803 10.7202 -6.38994
391 3 8.93351 14.2936 12.5069 -6.25754
392 2 7.14681 16.0803 12.5069 -6.97438
393 3 10.7202 14.2936 10.7202 -6.25923
396 2 10.7202 16.0803 12.5069 -6.95326
297 3 12.5069 14.2936 8.93351 -6.2951
394 1 12.5069 16.0803 10.7202 -8.24742
395 1 12.5069 14.2936 12.5069 -8.29647
299 2 16.0803 14.2936 8.93351 -6.91105
300 3 14.2936 16.0803 8.93351 -6.23894
397 3 14.2936 14.2936 10.7202 -6.29004
398 1 16.0803 16.0803 10.7202 -8.45986
399 1 16.0803 14.2936 12.5069 -8.20796
400 2 14.2936 16.0803 12.5069 -6.9526
401 1 0 0 14.2936 -8.53621
402 3 1.7867 1.7867 14.2936 -6.51734
403 3 1.7867 0 16.0803 -6.41627
404 3 0 1.7867 16.0803 -6.5432
405 1 3.57341 0 14.2936 -8.19348
406 1 5.36011 1.7867 14.2936 -8.33008
407 1 5.36011 0 16.0803 -8.17569
408 2 3.57341 1.7867 16.0803 -7.00374
409 2 7.14681 0 14.2936 -6.93597
410 1 8.93351 1.7867 14.2936 -8.65921
411 3 8.93351 0 16.0803 -6.38981
412 3 7.14681 1.7867 16.0803 -6.35792
413 1 10.7202 0 14.2936 -8.34602
416 2 10.7202 1.7867 16.0803 -6.92224
414 1 12.5069 1.7867 14.2936 -8.40907
415 2 12.5069 0 16.0803 -7.04279
417 2 14.2936 0 14.2936 -7.0192
418 2 16.0803 1.7867 14.2936 -6.9804
419 1 16.0803 0 16.0803 -8.37845
420 2 14.2936 1.7867 16.0803 -6.96837
421 2 0 3.57341 14.2936 -7.08137
422 2 1.7867 5.36011 14.2936 -6.9876
423 3 1.7867 3.57341 16.0803 -6.5731
424 2 0 5.36011 16.0803 -7.07415
425 3 3.57341 3.57341 14.2936 -6.36733
426 1 5.36011 5.36011 14.2936 -8.34141
427 2 5.36011 3.57341 16.0803 -6.89947
428 1 3.57341 5.36011 16.0803 -8.60566
429 3 7.14681 3.57341 14.2936 -6.27431
430 1 8.93351 5.36011 14.2936 -8.47183
431 2 8.93351 3.57341 16.0803 -6.90407
432 3 7.14681 5.36011 16.0803 -6.34904
433 3 10.7202 3.57341 14.2936 -6.34007
436 1 10.7202 5.36011 16.0803 -8.26553
434 3 12.5069 5.36011 14.2936 -6.29157
435 3 12.5069 3.57341 16.0803 -6.35177
437 3 14.2936 3.57341 14.2936 -6.37461
438 3 16.0803 5.36011 14.2936 -6.23065
439 1 16.0803 3.57341 16.0803 -8.51305
440 1 14.2936 5.36011 16.0803 -8.62632
441 1 0 7.14681 14.2936 -8.51708
442 2 1.7867 8.93351 14.2936 -6.97615
443 2 1.7867 7.14681 16.0803 -7.03014
444 3 0 8.93351 16.0803 -6.42324
461 2 0 10.7202 14.2936 -6.94691
463 1 1.7867 10.7202 16.0803 -8.32676
445 3 3.57341 7.14681 14.2936 -6.33517
446 2 5.36011 8.93351 14.2936 -6.91536
447 2 5.36011 7.14681 16.0803 -6.95815
448 1 3.57341 8.93351 16.0803 -8.23568
465 2 3.57341 10.7202 14.2936 -7.04194
467 1 5.36011 10.7202 16.0803 -8.45564
449 1 7.14681 7.14681 14.2936 -8.46144
450 2 8.93351 8.93351 14.2936 -7.01299
451 2 8.93351 7.14681 16.0803 -7.02685
452 3 7.14681 8.93351 16.0803 -6.36553
453 1 10.7202 7.14681 14.2936 -8.32426
456 1 10.7202 8.93351 16.0803 -8.15594
469 3 7.14681 10.7202 14.2936 -6.39676
471 1 8.93351 10.7202 16.0803 -8.48065
473 2 10.7202 10.7202 14.2936 -6.94091
454 2 12.5069 8.93351 14.2936 -7.07603
455 2 12.5069 7.14681 16.0803 -6.9629
475 2 12.5069 10.7202 16.0803 -6.94521
457 1 14.2936 7.14681 14.2936 -8.30674
458 3 16.0803 8.93351 14.2936 -6.14212
459 3 16.0803 7.14681 16.0803 -6.36181
460 1 14.2936 8.93351 16.0803 -8.53804
477 1 14.2936 10.7202 14.2936 -8.03873
479 3 16.0803 10.7202 16.0803 -6.14776
462 2 1.7867 12.5069 14.2936 -6.97174
464 3 0 12.5069 16.0803 -6.42867
466 1 5.36011 12.5069 14.2936 -8.56464
468 2 3.57341 12.5069 16.0803 -6.95837
470 1 8.93351 12.5069 14.2936 -8.51027
472 3 7.14681 12.5069 16.0803 -6.31097
476 3 10.7202 12.5069 16.0803 -6.21519
474 1 12.5069 12.5069 14.2936 -8.14919
478 1 16.0803 12.5069 14.2936 -7.95971
480 1 14.2936 12.5069 16.0803 -8.46842
481 2 0 14.2936 14.2936 -7.02095
482 1 1.7867 16.0803 14.2936 -8.35924
483 1 1.7867 14.2936 16.0803 -8.40848
484 2 0 16.0803 16.0803 -6.99657
485 2 3.57341 14.2936 14.2936 -6.94015
486 1 5.36011 16.0803 14.2936 -8.54252
487 3 5.36011 14.2936 16.0803 -6.51318
488 1 3.57341 16.0803 16.0803 -8.38523
489 3 7.14681 14.2936 14.2936 -6.28023
490 1 8.93351 16.0803 14.2936 -8.45324
491 1 8.93351 14.2936 16.0803 -8.33853
492 2 7.14681 16.0803 16.0803 -6.95622
493 1 10.7202 14.2936 14.2936 -8.16378
496 2 10.7202 16.0803 16.0803 -6.92418
494 1 12.5069 16.0803 14.2936 -8.36736
495 3 12.5069 14.2936 16.0803 -6.17591
497 1 14.2936 14.2936 14.2936 -7.93955
498 1 16.0803 16.0803 14.2936 -8.34644
499 3 16.0803 14.2936 16.0803 -6.15789
500 1 14.2936 16.0803 16.0803 -8.58564
501 2 0 0 17.867 -7.01663
502 2 1.7867 1.7867 17.867 -7.03217
503 1 1.7867 0 19.6537 -8.17159
504 1 0 1.7867 19.6537 -8.19135
601 2 0 0 21.4404 -7.08397
602 2 1.7867 1.7867 21.4404 -7.041
505 2 3.57341 0 17.867 -7.09677
506 1 5.36011 1.7867 17.867 -8.39598
507 1 5.36011 0 19.6537 -8.31373
508 1 3.57341 1.7867 19.6537 -8.28963
605 3 3.57341 0 21.4404 -6.31905
606 2 5.36011 1.7867 21.4404 -6.90971
509 2 7.14681 0 17.867 -6.86527
510 3 8.93351 1.7867 17.867 -6.37856
511 1 8.93351 0 19.6537 -8.47449
512 3 7.14681 1.7867 19.6537 -6.28982
513 1 10.7202 0 17.867 -8.43591
516 3 10.7202 1.7867 19.6537 -6.13912
609 3 7.14681 0 21.4404 -6.33127
610 3 8.93351 1.7867 21.4404 -6.24482
613 1 10.7202 0 21.4404 -8.28008
514 3 12.5069 1.7867 17.867 -6.38838
515 3 12.5069 0 19.6537 -6.22911
614 1 12.5069 1.7867 21.4404 -8.44644
517 1 14.2936 0 17.867 -8.32125
518 2 16.0803 1.7867 17.867 -6.91905
519 2 16.0803 0 19.6537 -6.96266
520 3 14.2936 1.7867 19.6537 -6.43467
617 3 14.2936 0 21.4404 -6.34769
618 3 16.0803 1.7867 21.4404 -6.57718
521 1 0 3.57341 17.867 -8.52977
522 3 1.7867 5.36011 17.867 -6.4923
523 2 1.7867 3.57341 19.6537 -6.99553
524 3 0 5.36011 19.6537 -6.57642
621 3 0 3.57341 21.4404 -6.40637
622 2 1.7867 5.36011 21.4404 -7.00178
525 2 3.57341 3.57341 17.867 -6.97878
526 3 5.36011 5.36011 17.867 -6.49449
527 3 5.36011 3.57341 19.6537 -6.44716
528 1 3.57341 5.36011 19.6537 -8.67329
625 2 3.57341 3.57341 21.4404 -6.97081
626 3 5.36011 5.36011 21.4404 -6.31837
529 3 7.14681 3.57341 17.867 -6.39539
530 1 8.93351 5.36011 17.867 -8.15395
531 1 8.93351 3.57341 19.6537 -8.32721
532 2 7.14681 5.36011 19.6537 -6.82788
533 1 10.7202 3.57341 17.867 -8.4429
536 1 10.7202 5.36011 19.6537 -8.38488
629 1 7.14681 3.57341 21.4404 -8.62126
630 3 8.93351 5.36011 21.4404 -6.24742
633 1 10.7202 3.57341 21.4404 -8.57933
534 3 12.5069 5.36011 17.867 -6.28864
535 3 12.5069 3.57341 19.6537 -6.36653
634 3 12.5069 5.36011 21.4404 -6.43595
537 3 14.2936 3.57341 17.867 -6.51549
538 2 16.0803 5.36011 17.867 -6.95027
539 1 16.0803 3.57341 19.6537 -8.77244
540 2 14.2936 5.36011 19.6537 -6.95174
637 3 14.2936 3.57341 21.4404 -6.50349
638 2 16.0803 5.36011 21.4404 -6.98032
541 1 0 7.14681 17.867 -8.44621
542 1 1.7867 8.93351 17.867 -8.08196
543 2 1.7867 7.14681 19.6537 -7.01965
544 1 0 8.93351 19.6537 -8.21275
561 1 0 10.7202 17.867 -8.24385
563 2 1.7867 10.7202 19.6537 -7.04908
641 3 0 7.14681 21.4404 -6.36336
642 1 1.7867 8.93351 21.4404 -8.18168
661 1 0 10.7202 21.4404 -8.29098
545 2 3.57341 7.14681 17.867 -6.95477
546 1 5.36011 8.93351 17.867 -8.34487
547 3 5.36011 7.14681 19.6537 -6.28515
548 1 3.57341 8.93351 19.6537 -8.27413
565 3 3.57341 10.7202 17.867 -6.36588
567 3 5.36011 10.7202 19.6537 -6.33444
645 2 3.57341 7.14681 21.4404 -7.02267
646 1 5.36011 8.93351 21.4404 -8.34784
665 3 3.57341 10.7202 21.4404 -6.44877
549 1 7.14681 7.14681 17.867 -8.52888
550 2 8.93351 8.93351 17.867 -6.94149
551 3 8.93351 7.14681 19.6537 -6.25175
552 3 7.14681 8.93351 19.6537 -6.3774
553 1 10.7202 7.14681 17.867 -8.20864
556 1 10.7202 8.93351 19.6537 -8.31629
569 3 7.14681 10.7202 17.867 -6.34658
571 3 8.93351 10.7202 19.6537 -6.28834
573 1 10.7202 10.7202 17.867 -8.34366
649 1 7.14681 7.14681 21.4404 -8.45763
650 2 8.93351 8.93351 21.4404 -6.9299
653 2 10.7202 7.14681 21.4404 -6.91405
669 3 7.14681 10.7202 21.4404 -6.34238
673 1 10.7202 10.7202 21.4404 -8.27941
554 2 12.5069 8.93351 17.867 -6.93581
555 3 12.5069 7.14681 19.6537 -6.33441
575 3 12.5069 10.7202 19.6537 -6.15611
654 1 12.5069 8.93351 21.4404 -8.17245
557 3 14.2936 7.14681 17.867 -6.44533
558 3 16.0803 8.93351 17.867 -6.43729
559 3 16.0803 7.14681 19.6537 -6.65486
560 1 14.2936 8.93351 19.6537 -8.57478
577 3 14.2936 10.7202 17.867 -6.29636
579 2 16.0803 10.7202 19.6537 -6.89317
657 2 14.2936 7.14681 21.4404 -6.97359
658 2 16.0803 8.93351 21.4404 -7.01791
677 1 14.2936 10.7202 21.4404 -8.24971
562 2 1.7867 12.5069 17.867 -6.98437
564 2 0 12.5069 19.6537 -7.01996
662 2 1.7867 12.5069 21.4404 -6.96421
566 3 5.36011 12.5069 17.867 -6.49751
568 3 3.57341 12.5069 19.6537 -6.55373
666 2 5.36011 12.5069 21.4404 -6.87547
570 3 8.93351 12.5069 17.867 -6.25478
572 1 7.14681 12.5069 19.6537 -8.86676
576 1 10.7202 12.5069 19.6537 -8.58125
670 3 8.93351 12.5069 21.4404 -6.29343
574 3 12.5069 12.5069 17.867 -6.20886
674 3 12.5069 12.5069 21.4404 -6.29541
578 3 16.0803 12.5069 17.867 -6.24876
580 1 14.2936 12.5069 19.6537 -8.57559
678 2 16.0803 12.5069 21.4404 -6.90241
581 2 0 14.2936 17.867 -7.02009
582 3 1.7867 16.0803 17.867 -6.34486
583 1 1.7867 14.2936 19.6537 -8.44057
584 1 0 16.0803 19.6537 -8.4653
681 3 0 14.2936 21.4404 -6.40539
682 1 1.7867 16.0803 21.4404 -8.24291
585 2 3.57341 14.2936 17.867 -6.96124
586 3 5.36011 16.0803 17.867 -6.47539
587 3 5.36011 14.2936 19.6537 -6.41478
588 3 3.57341 16.0803 19.6537 -6.39583
685 1 3.57341 14.2936 21.4404 -8.3378
686 1 5.36011 16.0803 21.4404 -8.37615
589 2 7.14681 14.2936 17.867 -6.85978
590 3 8.93351 16.0803 17.867 -6.42515
591 3 8.93351 14.2936 19.6537 -6.28134
592 1 7.14681 16.0803 19.6537 -8.63982
593 1 10.7202 14.2936 17.867 -8.6444
596 3 10.7202 16.0803 19.6537 -6.33533
689 3 7.14681 14.2936 21.4404 -6.33149
690 1 8.93351 16.0803 21.4404 -8.65104
693 3 10.7202 14.2936 21.4404 -6.3845
594 3 12.5069 16.0803 17.867 -6.32539
595 3 12.5069 14.2936 19.6537 -6.32065
694 1 12.5069 16.0803 21.4404 -8.52036
597 3 14.2936 14.2936 17.867 -6.28677
598 2 16.0803 16.0803 17.867 -6.85359
599 1 16.0803 14.2936 19.6537 -8.42501
600 3 14.2936 16.0803 19.6537 -6.32152
697 3 14.2936 14.2936 21.4404 -6.27166
698 1 16.0803 16.0803 21.4404 -8.31873
603 2 1.7867 0 23.2271 -6.98984
604 2 0 1.7867 23.2271 -6.96127
701 1 0 0 25.0138 -8.22866
702 2 1.7867 1.7867 25.0138 -6.99669
607 1 5.36011 0 23.2271 -8.44791
608 3 3.57341 1.7867 23.2271 -6.48359
703 3 3.57341 0 25.0138 -6.34534
704 3 5.36011 1.7867 25.0138 -6.28976
611 2 8.93351 0 23.2271 -6.90175
612 3 7.14681 1.7867 23.2271 -6.33333
616 3 10.7202 1.7867 23.2271 -6.23213
705 1 7.14681 0 25.0138 -8.16418
706 1 8.93351 1.7867 25.0138 -8.38558
707 1 10.7202 0 25.0138 -8.18262
615 2 12.5069 0 23.2271 -6.96384
708 3 12.5069 1.7867 25.0138 -6.23767
619 3 16.0803 0 23.2271 -6.44767
620 1 14.2936 1.7867 23.2271 -8.53827
709 3 14.2936 0 25.0138 -6.50284
710 2 16.0803 1.7867 25.0138 -6.90923
623 1 1.7867 3.57341 23.2271 -8.39124
624 1 0 5.36011 23.2271 -8.47297
711 3 0 3.57341 25.0138 -6.46558
712 3 1.7867 5.36011 25.0138 -6.31385
627 3 5.36011 3.57341 23.2271 -6.4184
628 1 3.57341 5.36011 23.2271 -8.34938
713 1 3.57341 3.57341 25.0138 -8.36875
714 2 5.36011 5.36011 25.0138 -6.97484
631 3 8.93351 3.57341 23.2271 -6.29907
632 1 7.14681 5.36011 23.2271 -8.29323
636 3 10.7202 5.36011 23.2271 -6.4203
715 2 7.14681 3.57341 25.0138 -6.84981
716 1 8.93351 5.36011 25.0138 -8.5962
717 3 10.7202 3.57341 25.0138 -6.35787
635 3 12.5069 3.57341 23.2271 -6.33143
718 3 12.5069 5.36011 25.0138 -6.35301
639 2 16.0803 3.57341 23.2271 -6.97177
640 3 14.2936 5.36011 23.2271 -6.46305
719 1 14.2936 3.57341 25.0138 -8.46094
720 3 16.0803 5.36011 25.0138 -6.34576
643 1 1.7867 7.14681 23.2271 -8.23206
644 2 0 8.93351 23.2271 -6.97066
663 3 1.7867 10.7202 23.2271 -6.47882
721 2 0 7.14681 25.0138 -7.01011
722 2 1.7867 8.93351 25.0138 -7.00522
731 1 0 10.7202 25.0138 -8.60088
647 2 5.36011 7.14681 23.2271 -7.0632
648 1 3.57341 8.93351 23.2271 -8.25556
667 2 5.36011 10.7202 23.2271 -6.97473
723 2 3.57341 7.14681 25.0138 -7.00916
724 1 5.36011 8.93351 25.0138 -8.1647
733 3 3.57341 10.7202 25.0138 -6.43402
651 2 8.93351 7.14681 23.2271 -6.99208
652 1 7.14681 8.93351 23.2271 -8.13847
656 2 10.7202 8.93351 23.2271 -6.99954
671 1 8.93351 10.7202 23.2271 -8.26267
725 1 7.14681 7.14681 25.0138 -8.26836
726 3 8.93351 8.93351 25.0138 -6.35612
727 3 10.7202 7.14681 25.0138 -6.5167
735 2 7.14681 10.7202 25.0138 -6.95539
737 1 10.7202 10.7202 25.0138 -8.46963
655 1 12.5069 7.14681 23.2271 -8.65618
675 2 12.5069 10.7202 23.2271 -6.87962
728 2 12.5069 8.93351 25.0138 -6.9055
659 1 16.0803 7.14681 23.2271 -8.5838
660 3 14.2936 8.93351 23.2271 -6.38589
679 1 16.0803 10.7202 23.2271 -8.47511
729 3 14.2936 7.14681 25.0138 -6.39883
730 2 16.0803 8.93351 25.0138 -6.92896
739 3 14.2936 10.7202 25.0138 -6.3906
664 2 0 12.5069 23.2271 -7.08542
732 2 1.7867 12.5069 25.0138 -7.03957
668 3 3.57341 12.5069 23.2271 -6.57541
734 2 5.36011 12.5069 25.0138 -7.03582
672 1 7.14681 12.5069 23.2271 -8.64284
676 2 10.7202 12.5069 23.2271 -6.91333
736 3 8.93351 12.5069 25.0138 -6.40327
738 1 12.5069 12.5069 25.0138 -8.5097
680 3 14.2936 12.5069 23.2271 -6.27251
740 3 16.0803 12.5069 25.0138 -6.28878
683 2 1.7867 14.2936 23.2271 -7.06279
684 3 0 16.0803 23.2271 -6.52659
741 2 0 14.2936 25.0138 -7.10067
742 1 1.7867 16.0803 25.0138 -8.27182
687 3 5.36011 14.2936 23.2271 -6.39385
688 1 3.57341 16.0803 23.2271 -8.09068
743 1 3.57341 14.2936 25.0138 -8.23024
744 2 5.36011 16.0803 25.0138 -7.05965
691 3 8.93351 14.2936 23.2271 -6.5564
692 2 7.14681 16.0803 23.2271 -7.01157
696 2 10.7202 16.0803 23.2271 -7.04024
745 2 7.14681 14.2936 25.0138 -7.07816
746 2 8.93351 16.0803 25.0138 -7.12906
747 2 10.7202 14.2936 25.0138 -6.96719
695 1 12.5069 14.2936 23.2271 -8.546
748 3 12.5069 16.0803 25.0138 -6.45541
699 1 16.0803 14.2936 23.2271 -8.5196
700 2 14.2936 16.0803 23.2271 -6.9491
749 3 14.2936 14.2936 25.0138 -6.37101
750 3 16.0803 16.0803 25.0138 -6.38744
751 1 1.7867 0 26.8005 -8.34148
752 2 0 1.7867 26.8005 -7.08961
801 1 0 0 28.5872 -8.45699
802 2 1.7867 1.7867 28.5872 -7.09989
803 3 1.7867 0 30.374 -6.3265
804 2 0 1.7867 30.374 -6.98091
753 1 5.36011 0 26.8005 -8.34383
754 2 3.57341 1.7867 26.8005 -7.03169
805 1 3.57341 0 28.5872 -8.45739
806 2 5.36011 1.7867 28.5872 -7.04279
807 1 5.36011 0 30.374 -8.31435
808 3 3.57341 1.7867 30.374 -6.46519
755 1 8.93351 0 26.8005 -8.15148
756 2 7.14681 1.7867 26.8005 -7.01085
758 1 10.7202 1.7867 26.8005 -8.16604
809 1 7.14681 0 28.5872 -8.24588
810 2 8.93351 1.7867 28.5872 -6.99004
811 2 8.93351 0 30.374 -6.90079
812 2 7.14681 1.7867 30.374 -7.02787
813 3 10.7202 0 28.5872 -6.29008
816 1 10.7202 1.7867 30.374 -8.17489
757 1 12.5069 0 26.8005 -8.57946
814 2 12.5069 1.7867 28.5872 -6.97931
815 2 12.5069 0 30.374 -6.96087
759 2 16.0803 0 26.8005 -7.02294
760 3 14.2936 1.7867 26.8005 -6.43671
817 3 14.2936 0 28.5872 -6.57833
818 1 16.0803 1.7867 28.5872 -8.75069
819 3 16.0803 0 30.374 -6.53662
820 3 14.2936 1.7867 30.374 -6.29291
761 2 1.7867 3.57341 26.8005 -7.08982
762 1 0 5.36011 26.8005 -8.51829
821 2 0 3.57341 28.5872 -7.12045
822 2 1.7867 5.36011 28.5872 -7.13025
823 2 1.7867 3.57341 30.374 -7.11454
824 1 0 5.36011 30.374 -8.27988
763 1 5.36011 3.57341 26.8005 -8.35267
764 2 3.57341 5.36011 26.8005 -7.00826
825 2 3.57341 3.57341 28.5872 -7.09444
826 2 5.36011 5.36011 28.5872 -6.97792
827 1 5.36011 3.57341 30.374 -8.43364
828 3 3.57341 5.36011 30.374 -6.4152
765 3 8.93351 3.57341 26.8005 -6.27023
766 3 7.14681 5.36011 26.8005 -6.25679
768 2 10.7202 5.36011 26.8005 -6.88558
829 1 7.14681 3.57341 28.5872 -8.25419
830 1 8.93351 5.36011 28.5872 -8.26808
831 1 8.93351 3.57341 30.374 -8.16146
832 2 7.14681 5.36011 30.374 -6.96075
833 1 10.7202 3.57341 28.5872 -8.06874
836 3 10.7202 5.36011 30.374 -6.16923
767 1 12.5069 3.57341 26.8005 -8.28584
834 2 12.5069 5.36011 28.5872 -6.97695
835 1 12.5069 3.57341 30.374 -8.20193
769 3 16.0803 3.57341 26.8005 -6.39514
770 1 14.2936 5.36011 26.8005 -8.44599
837 2 14.2936 3.57341 28.5872 -6.93316
838 2 16.0803 5.36011 28.5872 -7.00467
839 1 16.0803 3.57341 30.374 -8.27779