ITEM: TIMESTEP
0
ITEM: NUMBER OF ATOMS
4000
ITEM: BOX BOUNDS pp pp pp
0.0000000000000000e+00 3.5680830000000000e+01
0.0000000000000000e+00 3.5680830000000000e+01
0.0000000000000000e+00 3.5680830000000000e+01
ITEM: ATOMS id type x y z c_peratom
1 2 0 0 0 -6.9936
2 1 1.78404 1.78404 0 -8.48715
3 3 1.78404 0 1.78404 -6.34882
4 3 0 1.78404 1.78404 -6.39234
101 2 0 0 3.56808 -7.00765
102 1 1.78404 1.78404 3.56808 -8.43357
5 2 3.56808 0 0 -7.04264
6 2 5.35212 1.78404 0 -7.02369
7 2 5.35212 0 1.78404 -7.00181
8 1 3.56808 1.78404 1.78404 -8.46656
105 2 3.56808 0 3.56808 -6.99937
106 2 5.35212 1.78404 3.56808 -6.92399
9 3 7.13617 0 0 -6.46449
10 3 8.92021 1.78404 0 -6.47944
11 1 8.92021 0 1.78404 -8.53667
12 3 7.13617 1.78404 1.78404 -6.5801
109 1 7.13617 0 3.56808 -8.47909
110 3 8.92021 1.78404 3.56808 -6.43523
13 2 10.7042 0 0 -6.91052
14 3 12.4883 1.78404 0 -6.49674
15 3 12.4883 0 1.78404 -6.43882
16 3 10.7042 1.78404 1.78404 -6.46731
113 1 10.7042 0 3.56808 -8.33206
114 1 12.4883 1.78404 3.56808 -8.48568
17 2 14.2723 0 0 -6.94886
18 3 16.0564 1.78404 0 -6.55881
19 1 16.0564 0 1.78404 -8.77793
20 2 14.2723 1.78404 1.78404 -6.9541
117 3 14.2723 0 3.56808 -6.37678
118 2 16.0564 1.78404 3.56808 -6.92725
21 2 0 3.56808 0 -6.99757
22 1 1.78404 5.35212 0 -8.46642
23 3 1.78404 3.56808 1.78404 -6.28268
24 2 0 5.35212 1.78404 -6.9276
121 2 0 3.56808 3.56808 -6.9404
122 1 1.78404 5.35212 3.56808 -8.48504
25 2 3.56808 3.56808 0 -7.01978
26 1 5.35212 5.35212 0 -8.42457
27 3 5.35212 3.56808 1.78404 -6.41877
28 1 3.56808 5.35212 1.78404 -8.34335
125 3 3.56808 3.56808 3.56808 -6.25192
126 1 5.35212 5.35212 3.56808 -8.50935
29 3 7.13617 3.56808 0 -6.54568
30 2 8.92021 5.35212 0 -7.035
31 2 8.92021 3.56808 1.78404 -6.98426
32 3 7.13617 5.35212 1.78404 -6.46307
129 2 7.13617 3.56808 3.56808 -6.93746
130 1 8.92021 5.35212 3.56808 -8.65312
33 2 10.7042 3.56808 0 -6.97168
34 3 12.4883 5.35212 0 -6.49015
35 3 12.4883 3.56808 1.78404 -6.51115
36 3 10.7042 5.35212 1.78404 -6.51916
133 3 10.7042 3.56808 3.56808 -6.41304
134 1 12.4883 5.35212 3.56808 -8.72317
37 2 14.2723 3.56808 0 -6.9387
38 3 16.0564 5.35212 0 -6.37105
39 3 16.0564 3.56808 1.78404 -6.51151
40 3 14.2723 5.35212 1.78404 -6.46973
137 1 14.2723 3.56808 3.56808 -8.58852
138 2 16.0564 5.35212 3.56808 -6.88048
41 1 0 7.13617 0 -8.67873
42 3 1.78404 8.92021 0 -6.4561
43 3 1.78404 7.13617 1.78404 -6.29631
44 2 0 8.92021 1.78404 -6.92825
141 1 0 7.13617 3.56808 -8.36855
142 1 1.78404 8.92021 3.56808 -8.43992
45 2 3.56808 7.13617 0 -6.87486
46 3 5.35212 8.92021 0 -6.37215
47 3 5.35212 7.13617 1.78404 -6.31668
48 1 3.56808 8.92021 1.78404 -8.70785
145 2 3.56808 7.13617 3.56808 -6.99377
146 2 5.35212 8.92021 3.56808 -7.02019
49 1 7.13617 7.13617 0 -8.28204
50 2 8.92021 8.92021 0 -7.03136
51 2 8.92021 7.13617 1.78404 -7.04191
52 1 7.13617 8.92021 1.78404 -8.51343
149 2 7.13617 7.13617 3.56808 -7.04297
150 2 8.92021 8.92021 3.56808 -6.93525
53 1 10.7042 7.13617 0 -8.26978
54 1 12.4883 8.92021 0 -8.35531
55 2 12.4883 7.13617 1.78404 -6.87726
56 1 10.7042 8.92021 1.78404 -8.47807
153 3 10.7042 7.13617 3.56808 -6.43916
154 3 12.4883 8.92021 3.56808 -6.44093
57 3 14.2723 7.13617 0 -6.45918
58 3 16.0564 8.92021 0 -6.36707
59 1 16.0564 7.13617 1.78404 -8.78712
60 3 14.2723 8.92021 1.78404 -6.47617
157 3 14.2723 7.13617 3.56808 -6.46903
158 2 16.0564 8.92021 3.56808 -6.8726
61 2 0 10.7042 0 -6.94915
62 1 1.78404 12.4883 0 -8.47878
63 3 1.78404 10.7042 1.78404 -6.43742
64 2 0 12.4883 1.78404 -6.94935
161 2 0 10.7042 3.56808 -7.05312
162 1 1.78404 12.4883 3.56808 -8.50732
65 3 3.56808 10.7042 0 -6.38714
66 1 5.35212 12.4883 0 -8.36423
67 2 5.35212 10.7042 1.78404 -7.03103
68 2 3.56808 12.4883 1.78404 -6.91282
165 3 3.56808 10.7042 3.56808 -6.41824
166 1 5.35212 12.4883 3.56808 -8.4317
69 2 7.13617 10.7042 0 -7.05703
70 1 8.92021 12.4883 0 -8.44182
71 3 8.92021 10.7042 1.78404 -6.44761
72 2 7.13617 12.4883 1.78404 -7.01782
169 2 7.13617 10.7042 3.56808 -7.07159
170 1 8.92021 12.4883 3.56808 -8.58184
73 2 10.7042 10.7042 0 -7.03255
74 1 12.4883 12.4883 0 -8.53149
75 2 12.4883 10.7042 1.78404 -6.96027
76 3 10.7042 12.4883 1.78404 -6.45861
173 3 10.7042 10.7042 3.56808 -6.42983
174 3 12.4883 12.4883 3.56808 -6.48697
77 2 14.2723 10.7042 0 -7.01096
78 3 16.0564 12.4883 0 -6.37114
79 2 16.0564 10.7042 1.78404 -6.88801
80 2 14.2723 12.4883 1.78404 -6.98412
177 1 14.2723 10.7042 3.56808 -8.68642
178 3 16.0564 12.4883 3.56808 -6.32973
81 1 0 14.2723 0 -8.87531
82 3 1.78404 16.0564 0 -6.30681
83 3 1.78404 14.2723 1.78404 -6.36374
84 3 0 16.0564 1.78404 -6.18809
181 1 0 14.2723 3.56808 -8.46471
182 3 1.78404 16.0564 3.56808 -6.33379
85 2 3.56808 14.2723 0 -6.96784
86 2 5.35212 16.0564 0 -6.96986
87 2 5.35212 14.2723 1.78404 -7.05368
88 1 3.56808 16.0564 1.78404 -8.52041
185 3 3.56808 14.2723 3.56808 -6.42082
186 2 5.35212 16.0564 3.56808 -7.04314
89 1 7.13617 14.2723 0 -8.03438
90 3 8.92021 16.0564 0 -6.32622
91 2 8.92021 14.2723 1.78404 -6.96189
92 1 7.13617 16.0564 1.78404 -8.5745
189 2 7.13617 14.2723 3.56808 -7.07647
190 3 8.92021 16.0564 3.56808 -6.51025
93 3 10.7042 14.2723 0 -6.31986
94 1 12.4883 16.0564 0 -8.44917
95 2 12.4883 14.2723 1.78404 -6.85267
96 3 10.7042 16.0564 1.78404 -6.49678
193 3 10.7042 14.2723 3.56808 -6.38987
194 1 12.4883 16.0564 3.56808 -8.69684
97 3 14.2723 14.2723 0 -6.32893
98 3 16.0564 16.0564 0 -6.27632
99 1 16.0564 14.2723 1.78404 -8.63792
100 2 14.2723 16.0564 1.78404 -6.89948
197 3 14.2723 14.2723 3.56808 -6.45382
198 3 16.0564 16.0564 3.56808 -6.46469
103 1 1.78404 0 5.35212 -8.19002
104 2 0 1.78404 5.35212 -7.07182
201 2 0 0 7.13617 -7.07789
202 2 1.78404 1.78404 7.13617 -7.04661
107 3 5.35212 0 5.35212 -6.45416
108 1 3.56808 1.78404 5.35212 -8.47444
203 3 3.56808 0 7.13617 -6.34172
204 3 5.35212 1.78404 7.13617 -6.4642
111 2 8.92021 0 5.35212 -6.91993
112 3 7.13617 1.78404 5.35212 -6.46902
205 2 7.13617 0 7.13617 -6.90158
206 2 8.92021 1.78404 7.13617 -6.96154
115 1 12.4883 0 5.35212 -8.26451
116 2 10.7042 1.78404 5.35212 -6.96576
207 1 10.7042 0 7.13617 -8.13394
208 1 12.4883 1.78404 7.13617 -8.25964
119 1 16.0564 0 5.35212 -8.54595
120 3 14.2723 1.78404 5.35212 -6.33674
209 3 14.2723 0 7.13617 -6.24505
210 3 16.0564 1.78404 7.13617 -6.41529
123 2 1.78404 3.56808 5.35212 -7.0385
124 3 0 5.35212 5.35212 -6.47431
211 3 0 3.56808 7.13617 -6.75454
212 2 1.78404 5.35212 7.13617 -7.0082
127 1 5.35212 3.56808 5.35212 -8.52826
128 2 3.56808 5.35212 5.35212 -6.9927
213 3 3.56808 3.56808 7.13617 -6.49187
214 3 5.35212 5.35212 7.13617 -6.54035
131 1 8.92021 3.56808 5.35212 -8.57182
132 3 7.13617 5.35212 5.35212 -6.47532
215 2 7.13617 3.56808 7.13617 -6.93424
216 1 8.92021 5.35212 7.13617 -8.6483
135 3 12.4883 3.56808 5.35212 -6.39963
136 2 10.7042 5.35212 5.35212 -6.89133
217 3 10.7042 3.56808 7.13617 -6.33451
218 3 12.4883 5.35212 7.13617 -6.65087
139 3 16.0564 3.56808 5.35212 -6.49719
140 2 14.2723 5.35212 5.35212 -6.94828
219 2 14.2723 3.56808 7.13617 -6.99308
220 3 16.0564 5.35212 7.13617 -6.58104
143 2 1.78404 7.13617 5.35212 -6.98328
144 3 0 8.92021 5.35212 -6.44365
221 1 0 7.13617 7.13617 -8.51459
222 1 1.78404 8.92021 7.13617 -8.43664
147 2 5.35212 7.13617 5.35212 -7.07467
148 2 3.56808 8.92021 5.35212 -7.05133
223 1 3.56808 7.13617 7.13617 -8.3552
224 2 5.35212 8.92021 7.13617 -7.06317
151 2 8.92021 7.13617 5.35212 -7.00681
152 1 7.13617 8.92021 5.35212 -8.50696
225 2 7.13617 7.13617 7.13617 -7.0908
226 2 8.92021 8.92021 7.13617 -7.07046
155 3 12.4883 7.13617 5.35212 -6.53921
156 1 10.7042 8.92021 5.35212 -8.73917
227 3 10.7042 7.13617 7.13617 -6.60154
228 3 12.4883 8.92021 7.13617 -6.53032
159 1 16.0564 7.13617 5.35212 -8.78566
160 3 14.2723 8.92021 5.35212 -6.45757
229 3 14.2723 7.13617 7.13617 -6.59101
230 2 16.0564 8.92021 7.13617 -6.94796
163 2 1.78404 10.7042 5.35212 -6.99629
164 2 0 12.4883 5.35212 -7.03021
231 3 0 10.7042 7.13617 -6.53165
232 3 1.78404 12.4883 7.13617 -6.49025
167 1 5.35212 10.7042 5.35212 -8.37828
168 2 3.56808 12.4883 5.35212 -6.98191
233 2 3.56808 10.7042 7.13617 -7.00098
234 2 5.35212 12.4883 7.13617 -6.97469
171 3 8.92021 10.7042 5.35212 -6.53928
172 2 7.13617 12.4883 5.35212 -7.02139
235 3 7.13617 10.7042 7.13617 -6.65002
236 3 8.92021 12.4883 7.13617 -6.59416
175 1 12.4883 10.7042 5.35212 -8.58653
176 2 10.7042 12.4883 5.35212 -6.8865
237 3 10.7042 10.7042 7.13617 -6.55201
238 2 12.4883 12.4883 7.13617 -6.91715
179 3 16.0564 10.7042 5.35212 -6.48931
180 3 14.2723 12.4883 5.35212 -6.43267
239 2 14.2723 10.7042 7.13617 -6.89894
240 3 16.0564 12.4883 7.13617 -6.37562
183 1 1.78404 14.2723 5.35212 -8.57948
184 3 0 16.0564 5.35212 -6.53122
241 3 0 14.2723 7.13617 -6.54497
242 2 1.78404 16.0564 7.13617 -7.09204
187 1 5.35212 14.2723 5.35212 -8.41354
188 2 3.56808 16.0564 5.35212 -7.02573
243 3 3.56808 14.2723 7.13617 -6.4909
244 1 5.35212 16.0564 7.13617 -8.49453
191 1 8.92021 14.2723 5.35212 -8.46786
192 2 7.13617 16.0564 5.35212 -7.04319
245 2 7.13617 14.2723 7.13617 -7.01666
246 2 8.92021 16.0564 7.13617 -6.95297
195 1 12.4883 14.2723 5.35212 -8.63375
196 3 10.7042 16.0564 5.35212 -6.27733
247 1 10.7042 14.2723 7.13617 -8.43405
248 3 12.4883 16.0564 7.13617 -6.34263
199 3 16.0564 14.2723 5.35212 -6.41708
200 3 14.2723 16.0564 5.35212 -6.51386
249 3 14.2723 14.2723 7.13617 -6.40247
250 3 16.0564 16.0564 7.13617 -6.49942
251 1 1.78404 0 8.92021 -8.56069
252 2 0 1.78404 8.92021 -7.06041
301 2 0 0 10.7042 -7.0307
302 1 1.78404 1.78404 10.7042 -8.55939
303 2 1.78404 0 12.4883 -7.00241
304 2 0 1.78404 12.4883 -7.00373
253 1 5.35212 0 8.92021 -8.43844
254 2 3.56808 1.78404 8.92021 -6.9542
305 2 3.56808 0 10.7042 -6.94755
306 1 5.35212 1.78404 10.7042 -8.38505
307 3 5.35212 0 12.4883 -6.26719
308 2 3.56808 1.78404 12.4883 -6.99805
255 3 8.92021 0 8.92021 -6.31504
256 3 7.13617 1.78404 8.92021 -6.39596
309 1 7.13617 0 10.7042 -8.36518
310 2 8.92021 1.78404 10.7042 -6.92194
311 1 8.92021 0 12.4883 -8.01121
312 3 7.13617 1.78404 12.4883 -6.14688
257 2 12.4883 0 8.92021 -6.95724
258 1 10.7042 1.78404 8.92021 -8.30363
313 2 10.7042 0 10.7042 -6.96696
314 1 12.4883 1.78404 10.7042 -8.08783
315 3 12.4883 0 12.4883 -6.27846
316 1 10.7042 1.78404 12.4883 -8.1962
259 1 16.0564 0 8.92021 -8.50926
260 1 14.2723 1.78404 8.92021 -8.17717
317 2 14.2723 0 10.7042 -6.96754
318 1 16.0564 1.78404 10.7042 -8.07737
319 1 16.0564 0 12.4883 -8.51815
320 1 14.2723 1.78404 12.4883 -8.17997
261 2 1.78404 3.56808 8.92021 -6.99185
262 3 0 5.35212 8.92021 -6.61563
321 3 0 3.56808 10.7042 -6.51873
322 3 1.78404 5.35212 10.7042 -6.42012
323 3 1.78404 3.56808 12.4883 -6.45901
324 1 0 5.35212 12.4883 -8.47979
263 3 5.35212 3.56808 8.92021 -6.48027
264 1 3.56808 5.35212 8.92021 -8.53694
325 3 3.56808 3.56808 10.7042 -6.46961
326 2 5.35212 5.35212 10.7042 -6.89195
327 1 5.35212 3.56808 12.4883 -8.25623
328 3 3.56808 5.35212 12.4883 -6.40164
265 3 8.92021 3.56808 8.92021 -6.41164
266 3 7.13617 5.35212 8.92021 -6.45953
329 1 7.13617 3.56808 10.7042 -8.42375
330 1 8.92021 5.35212 10.7042 -8.4655
331 1 8.92021 3.56808 12.4883 -8.1301
332 3 7.13617 5.35212 12.4883 -6.23026
267 1 12.4883 3.56808 8.92021 -8.35296
268 3 10.7042 5.35212 8.92021 -6.53027
333 2 10.7042 3.56808 10.7042 -7.00237
334 2 12.4883 5.35212 10.7042 -7.09991
335 1 12.4883 3.56808 12.4883 -8.34321
336 3 10.7042 5.35212 12.4883 -6.41715
269 2 16.0564 3.56808 8.92021 -7.01219
270 2 14.2723 5.35212 8.92021 -7.06903
337 2 14.2723 3.56808 10.7042 -7.1419
338 2 16.0564 5.35212 10.7042 -7.05283
339 2 16.0564 3.56808 12.4883 -6.9623
340 2 14.2723 5.35212 12.4883 -7.054
271 3 1.78404 7.13617 8.92021 -6.28172
272 3 0 8.92021 8.92021 -6.37778
341 3 0 7.13617 10.7042 -6.43922
342 1 1.78404 8.92021 10.7042 -8.34108
343 2 1.78404 7.13617 12.4883 -6.95449
344 1 0 8.92021 12.4883 -8.17237
273 2 5.35212 7.13617 8.92021 -7.01894
274 1 3.56808 8.92021 8.92021 -8.3937
345 1 3.56808 7.13617 10.7042 -8.38158
346 3 5.35212 8.92021 10.7042 -6.43464
347 2 5.35212 7.13617 12.4883 -6.94822
348 2 3.56808 8.92021 12.4883 -7.00816
275 2 8.92021 7.13617 8.92021 -7.08084
276 2 7.13617 8.92021 8.92021 -7.05236
349 1 7.13617 7.13617 10.7042 -8.64778
350 3 8.92021 8.92021 10.7042 -6.58037
351 2 8.92021 7.13617 12.4883 -6.95431
352 3 7.13617 8.92021 12.4883 -6.41917
277 2 12.4883 7.13617 8.92021 -7.10652
278 2 10.7042 8.92021 8.92021 -7.10671
353 2 10.7042 7.13617 10.7042 -7.05992
354 2 12.4883 8.92021 10.7042 -7.02875
355 3 12.4883 7.13617 12.4883 -6.49049
356 1 10.7042 8.92021 12.4883 -8.59156
279 1 16.0564 7.13617 8.92021 -8.63694
280 3 14.2723 8.92021 8.92021 -6.4591
357 2 14.2723 7.13617 10.7042 -7.06185
358 3 16.0564 8.92021 10.7042 -6.30554
359 2 16.0564 7.13617 12.4883 -7.00125
360 1 14.2723 8.92021 12.4883 -8.43696
281 3 1.78404 10.7042 8.92021 -6.26887
282 1 0 12.4883 8.92021 -8.46041
361 1 0 10.7042 10.7042 -8.27584
362 2 1.78404 12.4883 10.7042 -6.97781
363 2 1.78404 10.7042 12.4883 -7.09259
364 2 0 12.4883 12.4883 -6.9723
283 3 5.35212 10.7042 8.92021 -6.50079
284 1 3.56808 12.4883 8.92021 -8.68981
365 3 3.56808 10.7042 10.7042 -6.48694
366 3 5.35212 12.4883 10.7042 -6.42644
367 3 5.35212 10.7042 12.4883 -6.47252
368 2 3.56808 12.4883 12.4883 -7.05722
285 2 8.92021 10.7042 8.92021 -7.10542
286 3 7.13617 12.4883 8.92021 -6.64496
369 1 7.13617 10.7042 10.7042 -8.85469
370 2 8.92021 12.4883 10.7042 -7.00348
371 3 8.92021 10.7042 12.4883 -6.47903
372 3 7.13617 12.4883 12.4883 -6.356
287 1 12.4883 10.7042 8.92021 -8.48893
288 2 10.7042 12.4883 8.92021 -7.06589
373 2 10.7042 10.7042 10.7042 -7.01923
374 1 12.4883 12.4883 10.7042 -8.48017
375 3 12.4883 10.7042 12.4883 -6.29925
376 3 10.7042 12.4883 12.4883 -6.36223
289 1 16.0564 10.7042 8.92021 -8.52627
290 2 14.2723 12.4883 8.92021 -6.99889
377 1 14.2723 10.7042 10.7042 -8.20237
378 1 16.0564 12.4883 10.7042 -8.26658
379 3 16.0564 10.7042 12.4883 -6.23727
380 2 14.2723 12.4883 12.4883 -6.81603
291 2 1.78404 14.2723 8.92021 -7.00358
292 2 0 16.0564 8.92021 -7.04383
381 1 0 14.2723 10.7042 -8.40349
382 2 1.78404 16.0564 10.7042 -6.94014
383 2 1.78404 14.2723 12.4883 -7.04904
384 3 0 16.0564 12.4883 -6.36782
293 3 5.35212 14.2723 8.92021 -6.43916
294 3 3.56808 16.0564 8.92021 -6.51617
385 1 3.56808 14.2723 10.7042 -8.47394
386 3 5.35212 16.0564 10.7042 -6.28495
387 1 5.35212 14.2723 12.4883 -8.21529
388 2 3.56808 16.0564 12.4883 -7.01673
295 3 8.92021 14.2723 8.92021 -6.58691
296 1 7.13617 16.0564 8.92021 -8.51086
389 2 7.13617 14.2723 10.7042 -6.86324
390 3 8.92021 16.0564 10.7042 -6.37233
391 3 8.92021 14.2723 12.4883 -6.37553
392 1 7.13617 16.0564 12.4883 -8.33679
297 1 12.4883 14.2723 8.92021 -8.46736
298 3 10.7042 16.0564 8.92021 -6.43183
393 2 10.7042 14.2723 10.7042 -6.95289
394 2 12.4883 16.0564 10.7042 -6.90101
395 3 12.4883 14.2723 12.4883 -6.30784
396 1 10.7042 16.0564 12.4883 -8.48531
299 1 16.0564 14.2723 8.92021 -8.29893
300 2 14.2723 16.0564 8.92021 -6.91407
397 3 14.2723 14.2723 10.7042 -6.27115
398 1 16.0564 16.0564 10.7042 -8.45904
399 3 16.0564 14.2723 12.4883 -6.26373
400 1 14.2723 16.0564 12.4883 -8.40552
401 1 0 0 14.2723 -8.75125
402 2 1.78404 1.78404 14.2723 -7.018
403 2 1.78404 0 16.0564 -7.02079
404 2 0 1.78404 16.0564 -7.04971
405 1 3.56808 0 14.2723 -8.54937
406 2 5.35212 1.78404 14.2723 -6.93646
407 2 5.35212 0 16.0564 -6.97767
408 2 3.56808 1.78404 16.0564 -7.02651
409 1 7.13617 0 14.2723 -8.33576
410 2 8.92021 1.78404 14.2723 -7.02517
411 1 8.92021 0 16.0564 -8.23622
412 1 7.13617 1.78404 16.0564 -8.23125
413 2 10.7042 0 14.2723 -6.99114
414 3 12.4883 1.78404 14.2723 -6.36954
415 2 12.4883 0 16.0564 -7.02134
416 1 10.7042 1.78404 16.0564 -8.60103
417 1 14.2723 0 14.2723 -8.50504
418 3 16.0564 1.78404 14.2723 -6.48475
419 3 16.0564 0 16.0564 -6.35732
420 2 14.2723 1.78404 16.0564 -6.97429
421 1 0 3.56808 14.2723 -8.61002
422 2 1.78404 5.35212 14.2723 -6.97041
423 2 1.78404 3.56808 16.0564 -7.0467
424 3 0 5.35212 16.0564 -6.39233
425 1 3.56808 3.56808 14.2723 -8.49001
426 2 5.35212 5.35212 14.2723 -6.94347
427 3 5.35212 3.56808 16.0564 -6.38871
428 2 3.56808 5.35212 16.0564 -7.07711
429 1 7.13617 3.56808 14.2723 -8.25564
430 1 8.92021 5.35212 14.2723 -8.2988
431 3 8.92021 3.56808 16.0564 -6.37857
432 2 7.13617 5.35212 16.0564 -6.99104
433 2 10.7042 3.56808 14.2723 -6.96894
434 3 12.4883 5.35212 14.2723 -6.44728
435 3 12.4883 3.56808 16.0564 -6.47509
436 2 10.7042 5.35212 16.0564 -6.96492
437 2 14.2723 3.56808 14.2723 -6.97354
438 1 16.0564 5.35212 14.2723 -8.21721
439 2 16.0564 3.56808 16.0564 -6.9823
440 1 14.2723 5.35212 16.0564 -8.20542
441 1 0 7.13617 14.2723 -8.30633
442 2 1.78404 8.92021 14.2723 -7.0494
443 1 1.78404 7.13617 16.0564 -8.14656
444 2 0 8.92021 16.0564 -7.05987
445 1 3.56808 7.13617 14.2723 -8.37592
446 1 5.35212 8.92021 14.2723 -8.41926
447 2 5.35212 7.13617 16.0564 -7.11174
448 2 3.56808 8.92021 16.0564 -7.13685
449 1 7.13617 7.13617 14.2723 -8.41229
450 2 8.92021 8.92021 14.2723 -6.92971
451 2 8.92021 7.13617 16.0564 -7.02578
452 2 7.13617 8.92021 16.0564 -7.07119
453 1 10.7042 7.13617 14.2723 -8.53773
454 3 12.4883 8.92021 14.2723 -6.28945
455 2 12.4883 7.13617 16.0564 -6.97982
456 3 10.7042 8.92021 16.0564 -6.3641
457 1 14.2723 7.13617 14.2723 -8.33494
458 2 16.0564 8.92021 14.2723 -7.04014
459 1 16.0564 7.13617 16.0564 -8.0585
460 2 14.2723 8.92021 16.0564 -6.99138
461 1 0 10.7042 14.2723 -8.15432
462 1 1.78404 12.4883 14.2723 -8.3642
463 1 1.78404 10.7042 16.0564 -8.17364
464 1 0 12.4883 16.0564 -8.44331
465 2 3.56808 10.7042 14.2723 -7.08007
466 1 5.35212 12.4883 14.2723 -8.30014
467 2 5.35212 10.7042 16.0564 -7.12403
468 2 3.56808 12.4883 16.0564 -7.08587
469 2 7.13617 10.7042 14.2723 -6.95804
470 1 8.92021 12.4883 14.2723 -8.40858
471 1 8.92021 10.7042 16.0564 -8.35669
472 1 7.13617 12.4883 16.0564 -8.09475
473 3 10.7042 10.7042 14.2723 -6.36429
474 1 12.4883 12.4883 14.2723 -8.34997
475 1 12.4883 10.7042 16.0564 -8.31845
476 2 10.7042 12.4883 16.0564 -7.01289
477 1 14.2723 10.7042 14.2723 -8.26959
478 1 16.0564 12.4883 14.2723 -8.29026
479 2 16.0564 10.7042 16.0564 -6.98925
480 3 14.2723 12.4883 16.0564 -6.21779
481 3 0 14.2723 14.2723 -6.34288
482 1 1.78404 16.0564 14.2723 -8.51084
483 2 1.78404 14.2723 16.0564 -6.99343
484 2 0 16.0564 16.0564 -6.92077
485 2 3.56808 14.2723 14.2723 -6.99825
486 1 5.35212 16.0564 14.2723 -8.31508
487 2 5.35212 14.2723 16.0564 -7.01468
488 3 3.56808 16.0564 16.0564 -6.32801
489 1 7.13617 14.2723 14.2723 -8.20788
490 2 8.92021 16.0564 14.2723 -6.95704
491 2 8.92021 14.2723 16.0564 -6.98906
492 3 7.13617 16.0564 16.0564 -6.28602
493 1 10.7042 14.2723 14.2723 -8.41536
494 3 12.4883 16.0564 14.2723 -6.32312
495 2 12.4883 14.2723 16.0564 -6.91195
496 3 10.7042 16.0564 16.0564 -6.42579
497 1 14.2723 14.2723 14.2723 -8.26874
498 2 16.0564 16.0564 14.2723 -6.90918
499 1 16.0564 14.2723 16.0564 -8.40106
500 3 14.2723 16.0564 16.0564 -6.37908
501 2 0 0 17.8404 -6.9714
502 1 1.78404 1.78404 17.8404 -8.46982
503 1 1.78404 0 19.6245 -8.48193
504 3 0 1.78404 19.6245 -6.46555
601 1 0 0 21.4085 -8.65712
602 3 1.78404 1.78404 21.4085 -6.35424
505 3 3.56808 0 17.8404 -6.41011
506 1 5.35212 1.78404 17.8404 -8.55383
507 3 5.35212 0 19.6245 -6.35557
508 1 3.56808 1.78404 19.6245 -8.46635
605 2 3.56808 0 21.4085 -6.89533
606 3 5.35212 1.78404 21.4085 -6.34848
509 2 7.13617 0 17.8404 -6.95061
510 2 8.92021 1.78404 17.8404 -6.95824
511 1 8.92021 0 19.6245 -8.5101
512 3 7.13617 1.78404 19.6245 -6.42804
609 1 7.13617 0 21.4085 -8.35416
610 3 8.92021 1.78404 21.4085 -6.32591
513 2 10.7042 0 17.8404 -6.99199
514 2 12.4883 1.78404 17.8404 -6.99503
515 3 12.4883 0 19.6245 -6.49462
516 1 10.7042 1.78404 19.6245 -8.62286
613 3 10.7042 0 21.4085 -6.33343
614 3 12.4883 1.78404 21.4085 -6.50262
517 1 14.2723 0 17.8404 -8.51935
518 1 16.0564 1.78404 17.8404 -8.53759
519 2 16.0564 0 19.6245 -7.08952
520 3 14.2723 1.78404 19.6245 -6.65867
617 2 14.2723 0 21.4085 -7.02848
618 2 16.0564 1.78404 21.4085 -7.05257
521 2 0 3.56808 17.8404 -6.97379
522 1 1.78404 5.35212 17.8404 -8.49628
523 2 1.78404 3.56808 19.6245 -6.89634
524 3 0 5.35212 19.6245 -6.33992
621 1 0 3.56808 21.4085 -8.65609
622 1 1.78404 5.35212 21.4085 -8.40479
525 3 3.56808 3.56808 17.8404 -6.37948
526 1 5.35212 5.35212 17.8404 -8.72983
527 2 5.35212 3.56808 19.6245 -6.94373
528 3 3.56808 5.35212 19.6245 -6.44562
625 3 3.56808 3.56808 21.4085 -6.3762
626 2 5.35212 5.35212 21.4085 -6.95295
529 3 7.13617 3.56808 17.8404 -6.42752
530 1 8.92021 5.35212 17.8404 -8.72222
531 2 8.92021 3.56808 19.6245 -6.9935
532 2 7.13617 5.35212 19.6245 -6.96577
629 1 7.13617 3.56808 21.4085 -8.49415
630 1 8.92021 5.35212 21.4085 -8.45608
533 3 10.7042 3.56808 17.8404 -6.44665
534 1 12.4883 5.35212 17.8404 -8.52956
535 3 12.4883 3.56808 19.6245 -6.48656
536 2 10.7042 5.35212 19.6245 -6.92167
633 2 10.7042 3.56808 21.4085 -6.91649
634 1 12.4883 5.35212 21.4085 -8.52999
537 2 14.2723 3.56808 17.8404 -6.96908
538 1 16.0564 5.35212 17.8404 -8.25229
539 2 16.0564 3.56808 19.6245 -6.95768
540 3 14.2723 5.35212 19.6245 -6.23407
637 2 14.2723 3.56808 21.4085 -6.94451
638 1 16.0564 5.35212 21.4085 -8.57783
541 2 0 7.13617 17.8404 -6.97011
542 1 1.78404 8.92021 17.8404 -8.22456
543 1 1.78404 7.13617 19.6245 -8.30396
544 2 0 8.92021 19.6245 -6.95609
641 3 0 7.13617 21.4085 -6.38747
642 3 1.78404 8.92021 21.4085 -6.31833
545 2 3.56808 7.13617 17.8404 -7.08191
546 2 5.35212 8.92021 17.8404 -7.08305
547 2 5.35212 7.13617 19.6245 -7.05566
548 1 3.56808 8.92021 19.6245 -8.50387
645 2 3.56808 7.13617 21.4085 -6.97012
646 2 5.35212 8.92021 21.4085 -6.9862
549 3 7.13617 7.13617 17.8404 -6.49778
550 1 8.92021 8.92021 17.8404 -8.3447
551 3 8.92021 7.13617 19.6245 -6.40182
552 1 7.13617 8.92021 19.6245 -8.61539
649 3 7.13617 7.13617 21.4085 -6.51825
650 3 8.92021 8.92021 21.4085 -6.47017
553 2 10.7042 7.13617 17.8404 -6.93988
554 1 12.4883 8.92021 17.8404 -8.28759
555 3 12.4883 7.13617 19.6245 -6.29184
556 1 10.7042 8.92021 19.6245 -8.51642
653 2 10.7042 7.13617 21.4085 -6.98457
654 2 12.4883 8.92021 21.4085 -6.97327
557 1 14.2723 7.13617 17.8404 -8.16609
558 2 16.0564 8.92021 17.8404 -6.97885
559 1 16.0564 7.13617 19.6245 -8.13572
560 3 14.2723 8.92021 19.6245 -6.2762
657 1 14.2723 7.13617 21.4085 -8.40566
658 2 16.0564 8.92021 21.4085 -7.05645
561 2 0 10.7042 17.8404 -6.96647
562 2 1.78404 12.4883 17.8404 -7.01376
563 3 1.78404 10.7042 19.6245 -6.54445
564 3 0 12.4883 19.6245 -6.49205
661 1 0 10.7042 21.4085 -8.31999
662 2 1.78404 12.4883 21.4085 -6.99209
565 2 3.56808 10.7042 17.8404 -7.11622
566 3 5.35212 12.4883 17.8404 -6.60119
567 3 5.35212 10.7042 19.6245 -6.64493
568 2 3.56808 12.4883 19.6245 -7.05835
665 3 3.56808 10.7042 21.4085 -6.57813
666 3 5.35212 12.4883 21.4085 -6.63339
569 2 7.13617 10.7042 17.8404 -7.06982
570 2 8.92021 12.4883 17.8404 -7.00603
571 2 8.92021 10.7042 19.6245 -6.96221
572 3 7.13617 12.4883 19.6245 -6.63549
669 2 7.13617 10.7042 21.4085 -7.03429
670 3 8.92021 12.4883 21.4085 -6.39519
573 2 10.7042 10.7042 17.8404 -7.00715
574 2 12.4883 12.4883 17.8404 -6.94344
575 3 12.4883 10.7042 19.6245 -6.37997
576 1 10.7042 12.4883 19.6245 -8.48977
673 3 10.7042 10.7042 21.4085 -6.4101
674 2 12.4883 12.4883 21.4085 -6.98287
577 1 14.2723 10.7042 17.8404 -8.21438
578 1 16.0564 12.4883 17.8404 -8.21288
579 1 16.0564 10.7042 19.6245 -8.25928
580 1 14.2723 12.4883 19.6245 -8.37794
677 2 14.2723 10.7042 21.4085 -7.0196
678 2 16.0564 12.4883 21.4085 -7.12702
581 3 0 14.2723 17.8404 -6.52935
582 3 1.78404 16.0564 17.8404 -6.43746
583 3 1.78404 14.2723 19.6245 -6.54905
584 3 0 16.0564 19.6245 -6.40839
681 1 0 14.2723 21.4085 -8.49283
682 3 1.78404 16.0564 21.4085 -6.30844
585 1 3.56808 14.2723 17.8404 -8.67404
586 2 5.35212 16.0564 17.8404 -6.96641
587 2 5.35212 14.2723 19.6245 -6.99983
588 2 3.56808 16.0564 19.6245 -6.99961
685 3 3.56808 14.2723 21.4085 -6.57976
686 3 5.35212 16.0564 21.4085 -6.41514
589 1 7.13617 14.2723 17.8404 -8.56549
590 2 8.92021 16.0564 17.8404 -6.96991
591 3 8.92021 14.2723 19.6245 -6.35808
592 2 7.13617 16.0564 19.6245 -7.01109
689 3 7.13617 14.2723 21.4085 -6.49123
690 1 8.92021 16.0564 21.4085 -8.18075
593 1 10.7042 14.2723 17.8404 -8.42479
594 2 12.4883 16.0564 17.8404 -6.96499
595 3 12.4883 14.2723 19.6245 -6.31194
596 1 10.7042 16.0564 19.6245 -8.34821
693 1 10.7042 14.2723 21.4085 -8.16881
694 2 12.4883 16.0564 21.4085 -7.00992
597 3 14.2723 14.2723 17.8404 -6.47269
598 2 16.0564 16.0564 17.8404 -7.04524
599 2 16.0564 14.2723 19.6245 -7.06536
600 1 14.2723 16.0564 19.6245 -8.55981
697 2 14.2723 14.2723 21.4085 -6.96719
698 3 16.0564 16.0564 21.4085 -6.39395
603 1 1.78404 0 23.1925 -8.27155
604 2 0 1.78404 23.1925 -6.96039
701 2 0 0 24.9766 -6.98113
702 1 1.78404 1.78404 24.9766 -8.09892
607 2 5.35212 0 23.1925 -7.01219
608 1 3.56808 1.78404 23.1925 -8.55188
703 2 3.56808 0 24.9766 -7.01269
704 2 5.35212 1.78404 24.9766 -6.99256
611 2 8.92021 0 23.1925 -7.04008
612 1 7.13617 1.78404 23.1925 -8.33458
705 1 7.13617 0 24.9766 -8.22508
706 1 8.92021 1.78404 24.9766 -8.28287
615 2 12.4883 0 23.1925 -6.95286
616 1 10.7042 1.78404 23.1925 -8.56262
707 2 10.7042 0 24.9766 -7.03227
708 2 12.4883 1.78404 24.9766 -6.93722
619 3 16.0564 0 23.1925 -6.35896
620 1 14.2723 1.78404 23.1925 -8.72486
709 3 14.2723 0 24.9766 -6.26576
710 3 16.0564 1.78404 24.9766 -6.38754
623 2 1.78404 3.56808 23.1925 -6.94179
624 3 0 5.35212 23.1925 -6.42276
711 1 0 3.56808 24.9766 -8.1547
712 1 1.78404 5.35212 24.9766 -8.30343
627 3 5.35212 3.56808 23.1925 -6.3979
628 1 3.56808 5.35212 23.1925 -8.5549
713 3 3.56808 3.56808 24.9766 -6.41855
714 2 5.35212 5.35212 24.9766 -6.97089
631 3 8.92021 3.56808 23.1925 -6.28656
632 3 7.13617 5.35212 23.1925 -6.50834
715 3 7.13617 3.56808 24.9766 -6.55762
716 3 8.92021 5.35212 24.9766 -6.43531
635 3 12.4883 3.56808 23.1925 -6.42072
636 2 10.7042 5.35212 23.1925 -6.96234
717 1 10.7042 3.56808 24.9766 -8.65747
718 3 12.4883 5.35212 24.9766 -6.41231
639 3 16.0564 3.56808 23.1925 -6.36407
640 3 14.2723 5.35212 23.1925 -6.32254
719 2 14.2723 3.56808 24.9766 -6.89002
720 1 16.0564 5.35212 24.9766 -8.44838
643 3 1.78404 7.13617 23.1925 -6.30529
644 1 0 8.92021 23.1925 -8.53786
721 2 0 7.13617 24.9766 -6.89784
722 3 1.78404 8.92021 24.9766 -6.36011
647 3 5.35212 7.13617 23.1925 -6.51264
648 1 3.56808 8.92021 23.1925 -8.58413
723 3 3.56808 7.13617 24.9766 -6.33648
724 1 5.35212 8.92021 24.9766 -8.58161
651 1 8.92021 7.13617 23.1925 -8.45961
652 2 7.13617 8.92021 23.1925 -7.01147
725 3 7.13617 7.13617 24.9766 -6.5274
726 2 8.92021 8.92021 24.9766 -6.9899
655 1 12.4883 7.13617 23.1925 -8.26852
656 2 10.7042 8.92021 23.1925 -6.96236
727 1 10.7042 7.13617 24.9766 -8.41174
728 2 12.4883 8.92021 24.9766 -6.9697
659 2 16.0564 7.13617 23.1925 -6.93979
660 3 14.2723 8.92021 23.1925 -6.39508
729 1 14.2723 7.13617 24.9766 -8.50095
730 2 16.0564 8.92021 24.9766 -6.98755
663 2 1.78404 10.7042 23.1925 -6.92034
664 1 0 12.4883 23.1925 -8.10452
731 1 0 10.7042 24.9766 -8.56411
732 2 1.78404 12.4883 24.9766 -6.99616
667 2 5.35212 10.7042 23.1925 -7.04669
668 3 3.56808 12.4883 23.1925 -6.48967
733 1 3.56808 10.7042 24.9766 -8.45492
734 2 5.35212 12.4883 24.9766 -7.02771
671 1 8.92021 10.7042 23.1925 -8.77715
672 3 7.13617 12.4883 23.1925 -6.49384
735 2 7.13617 10.7042 24.9766 -7.08822
736 2 8.92021 12.4883 24.9766 -6.98399
675 1 12.4883 10.7042 23.1925 -8.55001
676 3 10.7042 12.4883 23.1925 -6.31476
737 3 10.7042 10.7042 24.9766 -6.47048
738 3 12.4883 12.4883 24.9766 -6.25655
679 2 16.0564 10.7042 23.1925 -7.11605
680 1 14.2723 12.4883 23.1925 -8.3008
739 1 14.2723 10.7042 24.9766 -8.24124
740 2 16.0564 12.4883 24.9766 -7.08566
683 1 1.78404 14.2723 23.1925 -8.31258
684 1 0 16.0564 23.1925 -8.40824
741 1 0 14.2723 24.9766 -8.45115
742 2 1.78404 16.0564 24.9766 -7.01116
687 1 5.35212 14.2723 23.1925 -8.6905
688 2 3.56808 16.0564 23.1925 -6.93079
743 1 3.56808 14.2723 24.9766 -8.4294
744 3 5.35212 16.0564 24.9766 -6.3171
691 1 8.92021 14.2723 23.1925 -8.3889
692 2 7.13617 16.0564 23.1925 -6.97684
745 2 7.13617 14.2723 24.9766 -6.98834
746 1 8.92021 16.0564 24.9766 -8.00607
695 1 12.4883 14.2723 23.1925 -8.22509
696 1 10.7042 16.0564 23.1925 -8.10037
747 2 10.7042 14.2723 24.9766 -7.05337
748 1 12.4883 16.0564 24.9766 -8.18024
699 2 16.0564 14.2723 23.1925 -6.9898
700 1 14.2723 16.0564 23.1925 -8.41768
749 3 14.2723 14.2723 24.9766 -6.19687
750 3 16.0564 16.0564 24.9766 -6.28891
751 1 1.78404 0 26.7606 -8.22616
752 2 0 1.78404 26.7606 -7.10906
801 1 0 0 28.5447 -8.13641
802 2 1.78404 1.78404 28.5447 -7.0781
803 1 1.78404 0 30.3287 -8.32507
804 1 0 1.78404 30.3287 -8.13581
753 3 5.35212 0 26.7606 -6.50635
754 2 3.56808 1.78404 26.7606 -7.06262
805 2 3.56808 0 28.5447 -7.0682
806 1 5.35212 1.78404 28.5447 -8.32218
807 1 5.35212 0 30.3287 -8.26651
808 1 3.56808 1.78404 30.3287 -8.24586
755 2 8.92021 0 26.7606 -7.0702
756 2 7.13617 1.78404 26.7606 -7.02647
809 2 7.13617 0 28.5447 -7.06353
810 1 8.92021 1.78404 28.5447 -8.30068
811 1 8.92021 0 30.3287 -8.33726
812 3 7.13617 1.78404 30.3287 -6.34073
757 2 12.4883 0 26.7606 -7.03709
758 3 10.7042 1.78404 26.7606 -6.37406
813 2 10.7042 0 28.5447 -6.99116
814 1 12.4883 1.78404 28.5447 -8.37976
815 3 12.4883 0 30.3287 -6.36192
816 3 10.7042 1.78404 30.3287 -6.33712
759 2 16.0564 0 26.7606 -6.94262
760 1 14.2723 1.78404 26.7606 -8.50966
817 1 14.2723 0 28.5447 -8.27055
818 2 16.0564 1.78404 28.5447 -6.92089
819 3 16.0564 0 30.3287 -6.33347
820 1 14.2723 1.78404 30.3287 -8.26722
761 1 1.78404 3.56808 26.7606 -8.22895
762 2 0 5.35212 26.7606 -7.02838
821 2 0 3.56808 28.5447 -7.04036
822 1 1.78404 5.35212 28.5447 -8.18423
823 2 1.78404 3.56808 30.3287 -7.06259
824 2 0 5.35212 30.3287 -7.04381
763 2 5.35212 3.56808 26.7606 -7.10904
764 2 3.56808 5.35212 26.7606 -6.99894
825 2 3.56808 3.56808 28.5447 -7.10014
826 1 5.35212 5.35212 28.5447 -8.30055
827 2 5.35212 3.56808 30.3287 -7.03116
828 1 3.56808 5.35212 30.3287 -8.16235
765 2 8.92021 3.56808 26.7606 -6.92328
766 2 7.13617 5.35212 26.7606 -7.00282
829 1 7.13617 3.56808 28.5447 -8.22175
830 3 8.92021 5.35212 28.5447 -6.32697
831 1 8.92021 3.56808 30.3287 -8.28205
832 2 7.13617 5.35212 30.3287 -6.95476
767 3 12.4883 3.56808 26.7606 -6.37667
768 3 10.7042 5.35212 26.7606 -6.29675
833 1 10.7042 3.56808 28.5447 -8.404