ITEM: TIMESTEP
0
ITEM: NUMBER OF ATOMS
4000
ITEM: BOX BOUNDS pp pp pp
0.0000000000000000e+00 3.5734059999999999e+01
0.0000000000000000e+00 3.5734059999999999e+01
0.0000000000000000e+00 3.5734059999999999e+01
ITEM: ATOMS id type x y z c_peratom
1 3 0 0 0 -6.41826
2 1 1.7867 1.7867 0 -8.29867
3 2 1.7867 0 1.7867 -7.03821
4 2 0 1.7867 1.7867 -7.06297
101 1 0 0 3.57341 -8.45242
102 3 1.7867 1.7867 3.57341 -6.48848
5 1 3.57341 0 0 -8.18771
6 1 5.36011 1.7867 0 -8.42787
7 2 5.36011 0 1.7867 -6.99176
8 2 3.57341 1.7867 1.7867 -7.06756
105 1 3.57341 0 3.57341 -8.4297
106 3 5.36011 1.7867 3.57341 -6.52282
9 2 7.14681 0 0 -6.96675
10 1 8.93351 1.7867 0 -8.15693
11 1 8.93351 0 1.7867 -8.38875
12 3 7.14681 1.7867 1.7867 -6.33262
13 2 10.7202 0 0 -7.00902
16 3 10.7202 1.7867 1.7867 -6.35746
109 1 7.14681 0 3.57341 -8.50603
110 3 8.93351 1.7867 3.57341 -6.51035
113 2 10.7202 0 3.57341 -7.09527
14 1 12.5069 1.7867 0 -8.45501
15 2 12.5069 0 1.7867 -7.13071
114 3 12.5069 1.7867 3.57341 -6.66059
17 2 14.2936 0 0 -7.11771
18 1 16.0803 1.7867 0 -8.45497
19 2 16.0803 0 1.7867 -7.10356
20 3 14.2936 1.7867 1.7867 -6.48538
117 3 14.2936 0 3.57341 -6.72709
118 1 16.0803 1.7867 3.57341 -8.63417
21 1 0 3.57341 0 -8.16122
22 1 1.7867 5.36011 0 -8.33834
23 1 1.7867 3.57341 1.7867 -8.34678
24 3 0 5.36011 1.7867 -6.33864
121 2 0 3.57341 3.57341 -6.9787
122 1 1.7867 5.36011 3.57341 -8.34231
25 3 3.57341 3.57341 0 -6.27538
26 1 5.36011 5.36011 0 -8.47683
27 2 5.36011 3.57341 1.7867 -6.97519
28 3 3.57341 5.36011 1.7867 -6.20619
125 2 3.57341 3.57341 3.57341 -7.00946
126 1 5.36011 5.36011 3.57341 -8.4768
29 1 7.14681 3.57341 0 -8.12839
30 2 8.93351 5.36011 0 -6.95699
31 1 8.93351 3.57341 1.7867 -8.47636
32 2 7.14681 5.36011 1.7867 -7.01466
33 1 10.7202 3.57341 0 -8.20389
36 3 10.7202 5.36011 1.7867 -6.25626
129 2 7.14681 3.57341 3.57341 -6.94319
130 3 8.93351 5.36011 3.57341 -6.42447
133 2 10.7202 3.57341 3.57341 -6.91129
34 2 12.5069 5.36011 0 -6.8753
35 1 12.5069 3.57341 1.7867 -8.49196
134 1 12.5069 5.36011 3.57341 -8.19518
37 2 14.2936 3.57341 0 -6.97048
38 3 16.0803 5.36011 0 -6.45236
39 2 16.0803 3.57341 1.7867 -6.93127
40 3 14.2936 5.36011 1.7867 -6.27113
137 3 14.2936 3.57341 3.57341 -6.31164
138 1 16.0803 5.36011 3.57341 -8.56538
41 1 0 7.14681 0 -8.3016
42 3 1.7867 8.93351 0 -6.25504
43 3 1.7867 7.14681 1.7867 -6.2552
44 1 0 8.93351 1.7867 -8.4252
61 1 0 10.7202 0 -8.34966
63 2 1.7867 10.7202 1.7867 -6.98922
141 3 0 7.14681 3.57341 -6.35783
142 2 1.7867 8.93351 3.57341 -6.94006
161 2 0 10.7202 3.57341 -6.91207
45 3 3.57341 7.14681 0 -6.30903
46 1 5.36011 8.93351 0 -8.2066
47 3 5.36011 7.14681 1.7867 -6.22523
48 3 3.57341 8.93351 1.7867 -6.3508
65 1 3.57341 10.7202 0 -8.25783
67 2 5.36011 10.7202 1.7867 -7.02744
145 1 3.57341 7.14681 3.57341 -8.30436
146 1 5.36011 8.93351 3.57341 -8.50375
165 2 3.57341 10.7202 3.57341 -6.99846
49 1 7.14681 7.14681 0 -8.24417
50 3 8.93351 8.93351 0 -6.27338
51 2 8.93351 7.14681 1.7867 -6.91925
52 2 7.14681 8.93351 1.7867 -6.94627
53 3 10.7202 7.14681 0 -6.32957
56 1 10.7202 8.93351 1.7867 -8.35673
69 1 7.14681 10.7202 0 -8.4354
71 3 8.93351 10.7202 1.7867 -6.34308
73 1 10.7202 10.7202 0 -8.3979
149 3 7.14681 7.14681 3.57341 -6.31999
150 1 8.93351 8.93351 3.57341 -8.34761
153 1 10.7202 7.14681 3.57341 -8.22354
169 2 7.14681 10.7202 3.57341 -6.98818
173 3 10.7202 10.7202 3.57341 -6.43954
54 2 12.5069 8.93351 0 -6.96743
55 1 12.5069 7.14681 1.7867 -8.374
75 3 12.5069 10.7202 1.7867 -6.46936
154 3 12.5069 8.93351 3.57341 -6.31718
57 1 14.2936 7.14681 0 -8.27242
58 2 16.0803 8.93351 0 -6.9328
59 1 16.0803 7.14681 1.7867 -8.48439
60 3 14.2936 8.93351 1.7867 -6.31606
77 1 14.2936 10.7202 0 -8.50941
79 1 16.0803 10.7202 1.7867 -8.47689
157 3 14.2936 7.14681 3.57341 -6.30076
158 3 16.0803 8.93351 3.57341 -6.4925
177 2 14.2936 10.7202 3.57341 -6.9722
62 2 1.7867 12.5069 0 -6.98029
64 1 0 12.5069 1.7867 -8.39796
162 3 1.7867 12.5069 3.57341 -6.40152
66 1 5.36011 12.5069 0 -8.43722
68 1 3.57341 12.5069 1.7867 -8.29181
166 1 5.36011 12.5069 3.57341 -8.29833
70 2 8.93351 12.5069 0 -6.87532
72 2 7.14681 12.5069 1.7867 -6.95703
76 3 10.7202 12.5069 1.7867 -6.3295
170 1 8.93351 12.5069 3.57341 -8.38418
74 2 12.5069 12.5069 0 -6.97032
174 3 12.5069 12.5069 3.57341 -6.49771
78 3 16.0803 12.5069 0 -6.23406
80 2 14.2936 12.5069 1.7867 -6.98397
178 2 16.0803 12.5069 3.57341 -7.08197
81 2 0 14.2936 0 -7.00232
82 3 1.7867 16.0803 0 -6.6113
83 3 1.7867 14.2936 1.7867 -6.41684
84 2 0 16.0803 1.7867 -6.96156
181 1 0 14.2936 3.57341 -8.33302
182 3 1.7867 16.0803 3.57341 -6.31509
85 3 3.57341 14.2936 0 -6.41958
86 1 5.36011 16.0803 0 -8.79302
87 3 5.36011 14.2936 1.7867 -6.27251
88 3 3.57341 16.0803 1.7867 -6.46564
185 1 3.57341 14.2936 3.57341 -8.46055
186 3 5.36011 16.0803 3.57341 -6.36038
89 3 7.14681 14.2936 0 -6.26384
90 1 8.93351 16.0803 0 -8.3019
91 1 8.93351 14.2936 1.7867 -8.28421
92 3 7.14681 16.0803 1.7867 -6.20844
93 3 10.7202 14.2936 0 -6.32896
96 2 10.7202 16.0803 1.7867 -6.97395
189 1 7.14681 14.2936 3.57341 -8.29399
190 1 8.93351 16.0803 3.57341 -8.01928
193 1 10.7202 14.2936 3.57341 -8.30657
94 3 12.5069 16.0803 0 -6.27923
95 1 12.5069 14.2936 1.7867 -8.52179
194 3 12.5069 16.0803 3.57341 -6.36889
97 1 14.2936 14.2936 0 -8.46072
98 3 16.0803 16.0803 0 -6.17778
99 3 16.0803 14.2936 1.7867 -6.44885
100 3 14.2936 16.0803 1.7867 -6.34618
197 2 14.2936 14.2936 3.57341 -6.96353
198 1 16.0803 16.0803 3.57341 -8.5871
103 2 1.7867 0 5.36011 -6.98233
104 2 0 1.7867 5.36011 -7.06153
201 1 0 0 7.14681 -8.2763
202 1 1.7867 1.7867 7.14681 -8.26635
107 1 5.36011 0 5.36011 -8.34442
108 2 3.57341 1.7867 5.36011 -7.01142
203 1 3.57341 0 7.14681 -8.2244
204 2 5.36011 1.7867 7.14681 -6.9296
111 3 8.93351 0 5.36011 -6.44031
112 3 7.14681 1.7867 5.36011 -6.46214
116 2 10.7202 1.7867 5.36011 -7.04724
205 3 7.14681 0 7.14681 -6.32347
206 1 8.93351 1.7867 7.14681 -8.66487
207 2 10.7202 0 7.14681 -6.98719
115 2 12.5069 0 5.36011 -7.09855
208 1 12.5069 1.7867 7.14681 -8.44605
119 3 16.0803 0 5.36011 -6.64674
120 3 14.2936 1.7867 5.36011 -6.5041
209 1 14.2936 0 7.14681 -8.44383
210 3 16.0803 1.7867 7.14681 -6.73359
123 1 1.7867 3.57341 5.36011 -8.3791
124 3 0 5.36011 5.36011 -6.22249
211 3 0 3.57341 7.14681 -6.38599
212 1 1.7867 5.36011 7.14681 -8.19797
127 3 5.36011 3.57341 5.36011 -6.50097
128 2 3.57341 5.36011 5.36011 -6.92996
213 3 3.57341 3.57341 7.14681 -6.36376
214 1 5.36011 5.36011 7.14681 -8.44969
131 3 8.93351 3.57341 5.36011 -6.45849
132 1 7.14681 5.36011 5.36011 -8.47116
136 1 10.7202 5.36011 5.36011 -8.31654
215 2 7.14681 3.57341 7.14681 -6.93166
216 1 8.93351 5.36011 7.14681 -8.33136
217 2 10.7202 3.57341 7.14681 -6.97805
135 3 12.5069 3.57341 5.36011 -6.40262
218 1 12.5069 5.36011 7.14681 -8.23426
139 3 16.0803 3.57341 5.36011 -6.51411
140 1 14.2936 5.36011 5.36011 -8.35995
219 2 14.2936 3.57341 7.14681 -7.03148
220 2 16.0803 5.36011 7.14681 -7.10834
143 1 1.7867 7.14681 5.36011 -8.32785
144 3 0 8.93351 5.36011 -6.28992
163 1 1.7867 10.7202 5.36011 -8.72368
221 1 0 7.14681 7.14681 -8.17581
222 3 1.7867 8.93351 7.14681 -6.31186
231 3 0 10.7202 7.14681 -6.3608
147 3 5.36011 7.14681 5.36011 -6.29189
148 2 3.57341 8.93351 5.36011 -6.97118
167 3 5.36011 10.7202 5.36011 -6.53204
223 3 3.57341 7.14681 7.14681 -6.30907
224 2 5.36011 8.93351 7.14681 -6.94134
233 3 3.57341 10.7202 7.14681 -6.47185
151 3 8.93351 7.14681 5.36011 -6.23807
152 1 7.14681 8.93351 5.36011 -8.43129
156 2 10.7202 8.93351 5.36011 -6.92807
171 2 8.93351 10.7202 5.36011 -6.98951
225 2 7.14681 7.14681 7.14681 -6.99755
226 1 8.93351 8.93351 7.14681 -8.4668
227 2 10.7202 7.14681 7.14681 -7.01804
235 2 7.14681 10.7202 7.14681 -7.01406
237 3 10.7202 10.7202 7.14681 -6.43963
155 2 12.5069 7.14681 5.36011 -6.96211
175 1 12.5069 10.7202 5.36011 -8.56829
228 3 12.5069 8.93351 7.14681 -6.41518
159 2 16.0803 7.14681 5.36011 -7.00431
160 1 14.2936 8.93351 5.36011 -8.52879
179 2 16.0803 10.7202 5.36011 -7.11523
229 2 14.2936 7.14681 7.14681 -7.02552
230 3 16.0803 8.93351 7.14681 -6.70619
239 1 14.2936 10.7202 7.14681 -8.35044
164 2 0 12.5069 5.36011 -6.9165
232 3 1.7867 12.5069 7.14681 -6.36604
168 2 3.57341 12.5069 5.36011 -6.99003
234 2 5.36011 12.5069 7.14681 -7.02056
172 2 7.14681 12.5069 5.36011 -7.07262
176 2 10.7202 12.5069 5.36011 -7.05017
236 1 8.93351 12.5069 7.14681 -8.5769
238 2 12.5069 12.5069 7.14681 -7.02135
180 2 14.2936 12.5069 5.36011 -7.07673
240 2 16.0803 12.5069 7.14681 -7.1711
183 2 1.7867 14.2936 5.36011 -6.88202
184 1 0 16.0803 5.36011 -8.32669
241 1 0 14.2936 7.14681 -8.47614
242 3 1.7867 16.0803 7.14681 -6.27738
187 2 5.36011 14.2936 5.36011 -7.02583
188 1 3.57341 16.0803 5.36011 -8.55056
243 3 3.57341 14.2936 7.14681 -6.38644
244 2 5.36011 16.0803 7.14681 -7.00661
191 2 8.93351 14.2936 5.36011 -7.01777
192 2 7.14681 16.0803 5.36011 -6.99059
196 3 10.7202 16.0803 5.36011 -6.33196
245 1 7.14681 14.2936 7.14681 -8.39456
246 3 8.93351 16.0803 7.14681 -6.51964
247 2 10.7202 14.2936 7.14681 -7.0372
195 2 12.5069 14.2936 5.36011 -7.01463
248 2 12.5069 16.0803 7.14681 -6.99849
199 1 16.0803 14.2936 5.36011 -8.37716
200 1 14.2936 16.0803 5.36011 -8.40214
249 3 14.2936 14.2936 7.14681 -6.52919
250 1 16.0803 16.0803 7.14681 -8.29134
251 2 1.7867 0 8.93351 -7.005
252 2 0 1.7867 8.93351 -7.05347
301 1 0 0 10.7202 -8.41524
302 1 1.7867 1.7867 10.7202 -8.42578
303 2 1.7867 0 12.5069 -6.94422
304 3 0 1.7867 12.5069 -6.33537
253 3 5.36011 0 8.93351 -6.33085
254 2 3.57341 1.7867 8.93351 -6.96065
305 1 3.57341 0 10.7202 -8.13414
306 1 5.36011 1.7867 10.7202 -8.51586
307 2 5.36011 0 12.5069 -7.05331
308 3 3.57341 1.7867 12.5069 -6.31443
255 1 8.93351 0 8.93351 -8.39658
256 3 7.14681 1.7867 8.93351 -6.47117
258 3 10.7202 1.7867 8.93351 -6.50387
309 2 7.14681 0 10.7202 -7.0454
310 2 8.93351 1.7867 10.7202 -7.06046
311 2 8.93351 0 12.5069 -7.04181
312 2 7.14681 1.7867 12.5069 -7.10297
313 3 10.7202 0 10.7202 -6.39601
316 1 10.7202 1.7867 12.5069 -8.48817
257 1 12.5069 0 8.93351 -8.39943
314 2 12.5069 1.7867 10.7202 -6.97751
315 3 12.5069 0 12.5069 -6.34323
259 2 16.0803 0 8.93351 -7.06246
260 2 14.2936 1.7867 8.93351 -7.04016
317 3 14.2936 0 10.7202 -6.49349
318 1 16.0803 1.7867 10.7202 -8.49913
319 3 16.0803 0 12.5069 -6.42777
320 3 14.2936 1.7867 12.5069 -6.39015
261 2 1.7867 3.57341 8.93351 -6.97546
262 1 0 5.36011 8.93351 -8.41995
321 1 0 3.57341 10.7202 -8.23863
322 2 1.7867 5.36011 10.7202 -6.81268
323 3 1.7867 3.57341 12.5069 -6.19607
324 1 0 5.36011 12.5069 -8.30314
263 3 5.36011 3.57341 8.93351 -6.34098
264 1 3.57341 5.36011 8.93351 -8.44281
325 3 3.57341 3.57341 10.7202 -6.25075
326 1 5.36011 5.36011 10.7202 -8.14696
327 1 5.36011 3.57341 12.5069 -8.26589
328 1 3.57341 5.36011 12.5069 -8.31135
265 3 8.93351 3.57341 8.93351 -6.47498
266 1 7.14681 5.36011 8.93351 -8.22447
268 2 10.7202 5.36011 8.93351 -7.04921
329 2 7.14681 3.57341 10.7202 -7.06363
330 1 8.93351 5.36011 10.7202 -8.33485
331 2 8.93351 3.57341 12.5069 -7.02858
332 1 7.14681 5.36011 12.5069 -8.23656
333 2 10.7202 3.57341 10.7202 -7.09911
336 2 10.7202 5.36011 12.5069 -6.97773
267 2 12.5069 3.57341 8.93351 -7.08151
334 3 12.5069 5.36011 10.7202 -6.58068
335 2 12.5069 3.57341 12.5069 -6.98292
269 2 16.0803 3.57341 8.93351 -7.18137
270 2 14.2936 5.36011 8.93351 -7.08134
337 1 14.2936 3.57341 10.7202 -8.51674
338 2 16.0803 5.36011 10.7202 -7.10157
339 2 16.0803 3.57341 12.5069 -6.98405
340 3 14.2936 5.36011 12.5069 -6.4877
271 3 1.7867 7.14681 8.93351 -6.1709
272 1 0 8.93351 8.93351 -8.44802
281 3 1.7867 10.7202 8.93351 -6.3324
341 3 0 7.14681 10.7202 -6.2567
342 1 1.7867 8.93351 10.7202 -8.32601
343 3 1.7867 7.14681 12.5069 -6.11268
344 1 0 8.93351 12.5069 -8.35752
361 3 0 10.7202 10.7202 -6.22231
363 1 1.7867 10.7202 12.5069 -8.41288
273 2 5.36011 7.14681 8.93351 -7.01807
274 1 3.57341 8.93351 8.93351 -8.70302
283 3 5.36011 10.7202 8.93351 -6.47286
345 2 3.57341 7.14681 10.7202 -6.99088
346 2 5.36011 8.93351 10.7202 -6.90715
347 1 5.36011 7.14681 12.5069 -8.09481
348 1 3.57341 8.93351 12.5069 -8.24982
365 3 3.57341 10.7202 10.7202 -6.22709
367 1 5.36011 10.7202 12.5069 -8.4817
275 2 8.93351 7.14681 8.93351 -7.03984
276 1 7.14681 8.93351 8.93351 -8.5268
278 3 10.7202 8.93351 8.93351 -6.48218
285 3 8.93351 10.7202 8.93351 -6.52548
349 2 7.14681 7.14681 10.7202 -7.05467
350 3 8.93351 8.93351 10.7202 -6.53479
351 3 8.93351 7.14681 12.5069 -6.43742
352 3 7.14681 8.93351 12.5069 -6.36786
353 2 10.7202 7.14681 10.7202 -6.99429
356 2 10.7202 8.93351 12.5069 -6.94065
369 3 7.14681 10.7202 10.7202 -6.42718
371 1 8.93351 10.7202 12.5069 -8.39221
373 3 10.7202 10.7202 10.7202 -6.43563
277 1 12.5069 7.14681 8.93351 -8.63876
287 1 12.5069 10.7202 8.93351 -8.70627
354 3 12.5069 8.93351 10.7202 -6.4637
355 1 12.5069 7.14681 12.5069 -8.71492
375 2 12.5069 10.7202 12.5069 -6.96186
279 3 16.0803 7.14681 8.93351 -6.7165
280 3 14.2936 8.93351 8.93351 -6.47879
289 2 16.0803 10.7202 8.93351 -7.08707
357 3 14.2936 7.14681 10.7202 -6.53198
358 1 16.0803 8.93351 10.7202 -8.70655
359 3 16.0803 7.14681 12.5069 -6.57531
360 3 14.2936 8.93351 12.5069 -6.49007
377 2 14.2936 10.7202 10.7202 -6.98915
379 2 16.0803 10.7202 12.5069 -6.96501
282 3 0 12.5069 8.93351 -6.35993
362 3 1.7867 12.5069 10.7202 -6.24101
364 3 0 12.5069 12.5069 -6.20558
284 1 3.57341 12.5069 8.93351 -8.60518
366 3 5.36011 12.5069 10.7202 -6.4057
368 3 3.57341 12.5069 12.5069 -6.34992
286 3 7.14681 12.5069 8.93351 -6.57011
288 3 10.7202 12.5069 8.93351 -6.54182
370 2 8.93351 12.5069 10.7202 -6.92556
372 3 7.14681 12.5069 12.5069 -6.4448
376 1 10.7202 12.5069 12.5069 -8.37253
374 3 12.5069 12.5069 10.7202 -6.46361
290 2 14.2936 12.5069 8.93351 -7.04177
378 1 16.0803 12.5069 10.7202 -8.3979
380 1 14.2936 12.5069 12.5069 -8.47763
291 1 1.7867 14.2936 8.93351 -8.35598
292 3 0 16.0803 8.93351 -6.3971
381 1 0 14.2936 10.7202 -8.48377
382 2 1.7867 16.0803 10.7202 -7.01892
383 1 1.7867 14.2936 12.5069 -8.31381
384 2 0 16.0803 12.5069 -6.93408
293 1 5.36011 14.2936 8.93351 -8.41532
294 1 3.57341 16.0803 8.93351 -8.51186
385 2 3.57341 14.2936 10.7202 -6.9261
386 3 5.36011 16.0803 10.7202 -6.44895
387 2 5.36011 14.2936 12.5069 -6.95498
388 1 3.57341 16.0803 12.5069 -8.5107
295 2 8.93351 14.2936 8.93351 -7.02794
296 2 7.14681 16.0803 8.93351 -7.0218
298 3 10.7202 16.0803 8.93351 -6.65757
389 3 7.14681 14.2936 10.7202 -6.5615
390 2 8.93351 16.0803 10.7202 -7.07391
391 3 8.93351 14.2936 12.5069 -6.41321
392 1 7.14681 16.0803 12.5069 -8.46647
393 2 10.7202 14.2936 10.7202 -7.02641
396 3 10.7202 16.0803 12.5069 -6.50209
297 1 12.5069 14.2936 8.93351 -8.69696
394 2 12.5069 16.0803 10.7202 -7.0275
395 3 12.5069 14.2936 12.5069 -6.36888
299 2 16.0803 14.2936 8.93351 -7.0299
300 2 14.2936 16.0803 8.93351 -7.01669
397 3 14.2936 14.2936 10.7202 -6.39187
398 1 16.0803 16.0803 10.7202 -8.22943
399 3 16.0803 14.2936 12.5069 -6.23157
400 1 14.2936 16.0803 12.5069 -8.36894
401 1 0 0 14.2936 -8.62593
402 1 1.7867 1.7867 14.2936 -8.60478
403 3 1.7867 0 16.0803 -6.35382
404 2 0 1.7867 16.0803 -6.95855
405 3 3.57341 0 14.2936 -6.55318
406 2 5.36011 1.7867 14.2936 -6.93355
407 3 5.36011 0 16.0803 -6.68426
408 3 3.57341 1.7867 16.0803 -6.37747
409 2 7.14681 0 14.2936 -7.12612
410 2 8.93351 1.7867 14.2936 -7.02807
411 1 8.93351 0 16.0803 -8.42178
412 3 7.14681 1.7867 16.0803 -6.42505
413 3 10.7202 0 14.2936 -6.40652
416 3 10.7202 1.7867 16.0803 -6.51358
414 2 12.5069 1.7867 14.2936 -6.94348
415 2 12.5069 0 16.0803 -7.11004
417 1 14.2936 0 14.2936 -8.2893
418 1 16.0803 1.7867 14.2936 -8.38587
419 2 16.0803 0 16.0803 -7.05241
420 2 14.2936 1.7867 16.0803 -7.06357
421 1 0 3.57341 14.2936 -8.24797
422 1 1.7867 5.36011 14.2936 -8.29046
423 2 1.7867 3.57341 16.0803 -6.85065
424 3 0 5.36011 16.0803 -6.3238
425 3 3.57341 3.57341 14.2936 -6.20547
426 1 5.36011 5.36011 14.2936 -8.2521
427 1 5.36011 3.57341 16.0803 -8.44369
428 1 3.57341 5.36011 16.0803 -8.29566
429 3 7.14681 3.57341 14.2936 -6.34699
430 3 8.93351 5.36011 14.2936 -6.45206
431 1 8.93351 3.57341 16.0803 -8.58928
432 3 7.14681 5.36011 16.0803 -6.45924
433 1 10.7202 3.57341 14.2936 -8.47064
436 3 10.7202 5.36011 16.0803 -6.40285
434 3 12.5069 5.36011 14.2936 -6.44478
435 3 12.5069 3.57341 16.0803 -6.59163
437 1 14.2936 3.57341 14.2936 -8.64052
438 3 16.0803 5.36011 14.2936 -6.55354
439 3 16.0803 3.57341 16.0803 -6.50253
440 2 14.2936 5.36011 16.0803 -7.00317
441 1 0 7.14681 14.2936 -8.47846
442 3 1.7867 8.93351 14.2936 -6.21666
443 3 1.7867 7.14681 16.0803 -6.2035
444 3 0 8.93351 16.0803 -6.3539
461 3 0 10.7202 14.2936 -6.25316
463 1 1.7867 10.7202 16.0803 -8.34253
445 3 3.57341 7.14681 14.2936 -6.05577
446 1 5.36011 8.93351 14.2936 -8.26862
447 3 5.36011 7.14681 16.0803 -6.45539
448 1 3.57341 8.93351 16.0803 -8.42529
465 2 3.57341 10.7202 14.2936 -6.98705
467 2 5.36011 10.7202 16.0803 -6.98284
449 2 7.14681 7.14681 14.2936 -6.93722
450 1 8.93351 8.93351 14.2936 -8.33307
451 2 8.93351 7.14681 16.0803 -6.93842
452 2 7.14681 8.93351 16.0803 -7.04827
453 1 10.7202 7.14681 14.2936 -8.56958
456 3 10.7202 8.93351 16.0803 -6.34901
469 2 7.14681 10.7202 14.2936 -6.95575
471 3 8.93351 10.7202 16.0803 -6.47635
473 1 10.7202 10.7202 14.2936 -8.40239
454 3 12.5069 8.93351 14.2936 -6.52275
455 2 12.5069 7.14681 16.0803 -6.99044
475 3 12.5069 10.7202 16.0803 -6.47482
457 3 14.2936 7.14681 14.2936 -6.50963
458 1 16.0803 8.93351 14.2936 -8.43721
459 1 16.0803 7.14681 16.0803 -8.42206
460 2 14.2936 8.93351 16.0803 -7.0812
477 2 14.2936 10.7202 14.2936 -7.04661
479 1 16.0803 10.7202 16.0803 -8.09525
462 1 1.7867 12.5069 14.2936 -8.40068
464 2 0 12.5069 16.0803 -6.97408
466 1 5.36011 12.5069 14.2936 -8.4413
468 3 3.57341 12.5069 16.0803 -6.33944
470 1 8.93351 12.5069 14.2936 -8.43288
472 2 7.14681 12.5069 16.0803 -7.02997
476 2 10.7202 12.5069 16.0803 -6.92062
474 2 12.5069 12.5069 14.2936 -6.9794
478 1 16.0803 12.5069 14.2936 -8.28759
480 2 14.2936 12.5069 16.0803 -7.05898
481 2 0 14.2936 14.2936 -6.9793
482 2 1.7867 16.0803 14.2936 -6.94942
483 3 1.7867 14.2936 16.0803 -6.35802
484 1 0 16.0803 16.0803 -8.39063
485 2 3.57341 14.2936 14.2936 -7.0032
486 2 5.36011 16.0803 14.2936 -6.94302
487 1 5.36011 14.2936 16.0803 -8.48765
488 1 3.57341 16.0803 16.0803 -8.65878
489 2 7.14681 14.2936 14.2936 -6.92767
490 1 8.93351 16.0803 14.2936 -8.39961
491 3 8.93351 14.2936 16.0803 -6.45564
492 3 7.14681 16.0803 16.0803 -6.52487
493 1 10.7202 14.2936 14.2936 -8.29227
496 1 10.7202 16.0803 16.0803 -8.35522
494 1 12.5069 16.0803 14.2936 -8.22404
495 3 12.5069 14.2936 16.0803 -6.44711
497 2 14.2936 14.2936 14.2936 -6.89106
498 3 16.0803 16.0803 14.2936 -6.36708
499 3 16.0803 14.2936 16.0803 -6.50503
500 1 14.2936 16.0803 16.0803 -8.46026
501 1 0 0 17.867 -8.38656
502 1 1.7867 1.7867 17.867 -8.55449
503 3 1.7867 0 19.6537 -6.33034
504 1 0 1.7867 19.6537 -8.45852
601 2 0 0 21.4404 -6.94731
602 1 1.7867 1.7867 21.4404 -8.31566
505 2 3.57341 0 17.867 -6.97167
506 1 5.36011 1.7867 17.867 -8.50455
507 2 5.36011 0 19.6537 -7.044
508 2 3.57341 1.7867 19.6537 -6.93787
605 2 3.57341 0 21.4404 -7.01453
606 1 5.36011 1.7867 21.4404 -8.34737
509 2 7.14681 0 17.867 -7.05231
510 1 8.93351 1.7867 17.867 -8.37067
511 3 8.93351 0 19.6537 -6.49538
512 2 7.14681 1.7867 19.6537 -6.99673
513 2 10.7202 0 17.867 -7.08646
516 2 10.7202 1.7867 19.6537 -7.12552
609 2 7.14681 0 21.4404 -6.9934
610 1 8.93351 1.7867 21.4404 -8.4566
613 2 10.7202 0 21.4404 -7.08848
514 2 12.5069 1.7867 17.867 -7.21773
515 2 12.5069 0 19.6537 -7.27697
614 2 12.5069 1.7867 21.4404 -7.29316
517 2 14.2936 0 17.867 -7.13095
518 1 16.0803 1.7867 17.867 -8.52171
519 3 16.0803 0 19.6537 -6.61048
520 2 14.2936 1.7867 19.6537 -7.18384
617 2 14.2936 0 21.4404 -7.27852
618 2 16.0803 1.7867 21.4404 -7.04914
521 3 0 3.57341 17.867 -6.2638
522 1 1.7867 5.36011 17.867 -8.48503
523 2 1.7867 3.57341 19.6537 -6.84518
524 1 0 5.36011 19.6537 -8.52691
621 3 0 3.57341 21.4404 -6.20366
622 1 1.7867 5.36011 21.4404 -8.27483
525 3 3.57341 3.57341 17.867 -6.2716
526 2 5.36011 5.36011 17.867 -6.92978
527 1 5.36011 3.57341 19.6537 -8.44552
528 3 3.57341 5.36011 19.6537 -6.32103
625 3 3.57341 3.57341 21.4404 -6.16433
626 1 5.36011 5.36011 21.4404 -8.70406
529 2 7.14681 3.57341 17.867 -6.92854
530 3 8.93351 5.36011 17.867 -6.43054
531 1 8.93351 3.57341 19.6537 -8.37722
532 3 7.14681 5.36011 19.6537 -6.36942
533 3 10.7202 3.57341 17.867 -6.56604
536 2 10.7202 5.36011 19.6537 -7.04197
629 3 7.14681 3.57341 21.4404 -6.24294
630 1 8.93351 5.36011 21.4404 -8.49871
633 2 10.7202 3.57341 21.4404 -7.10512
534 3 12.5069 5.36011 17.867 -6.63168
535 2 12.5069 3.57341 19.6537 -7.1601
634 2 12.5069 5.36011 21.4404 -7.11495
537 2 14.2936 3.57341 17.867 -7.07819
538 3 16.0803 5.36011 17.867 -6.47677
539 1 16.0803 3.57341 19.6537 -8.2316
540 1 14.2936 5.36011 19.6537 -8.54159
637 3 14.2936 3.57341 21.4404 -6.69362
638 3 16.0803 5.36011 21.4404 -6.46309
541 3 0 7.14681 17.867 -6.31356
542 1 1.7867 8.93351 17.867 -8.2751
543 1 1.7867 7.14681 19.6537 -8.30162
544 2 0 8.93351 19.6537 -6.95518
561 3 0 10.7202 17.867 -6.31697
563 1 1.7867 10.7202 19.6537 -8.12128
641 2 0 7.14681 21.4404 -7.00185
642 3 1.7867 8.93351 21.4404 -6.26495
661 1 0 10.7202 21.4404 -8.04776
545 2 3.57341 7.14681 17.867 -6.99123
546 3 5.36011 8.93351 17.867 -6.63545
547 3 5.36011 7.14681 19.6537 -6.67218
548 2 3.57341 8.93351 19.6537 -6.98807
565 2 3.57341 10.7202 17.867 -7.0218
567 1 5.36011 10.7202 19.6537 -8.6089
645 2 3.57341 7.14681 21.4404 -6.98088
646 2 5.36011 8.93351 21.4404 -7.03731
665 2 3.57341 10.7202 21.4404 -6.98659
549 2 7.14681 7.14681 17.867 -7.0606
550 3 8.93351 8.93351 17.867 -6.55834
551 1 8.93351 7.14681 19.6537 -8.36673
552 2 7.14681 8.93351 19.6537 -6.99213
553 1 10.7202 7.14681 17.867 -8.59686
556 2 10.7202 8.93351 19.6537 -6.9899
569 3 7.14681 10.7202 17.867 -6.62521
571 3 8.93351 10.7202 19.6537 -6.47605
573 1 10.7202 10.7202 17.867 -8.58422
649 2 7.14681 7.14681 21.4404 -6.9883
650 1 8.93351 8.93351 21.4404 -8.58625
653 3 10.7202 7.14681 21.4404 -6.54479
669 3 7.14681 10.7202 21.4404 -6.42825
673 3 10.7202 10.7202 21.4404 -6.46499
554 2 12.5069 8.93351 17.867 -7.01012
555 2 12.5069 7.14681 19.6537 -7.06499
575 3 12.5069 10.7202 19.6537 -6.48053
654 2 12.5069 8.93351 21.4404 -6.99166
557 2 14.2936 7.14681 17.867 -7.05849
558 1 16.0803 8.93351 17.867 -8.06731
559 2 16.0803 7.14681 19.6537 -6.98425
560 1 14.2936 8.93351 19.6537 -8.29878
577 1 14.2936 10.7202 17.867 -8.27625
579 2 16.0803 10.7202 19.6537 -6.99811
657 2 14.2936 7.14681 21.4404 -7.02684
658 1 16.0803 8.93351 21.4404 -8.33917
677 3 14.2936 10.7202 21.4404 -6.46604
562 1 1.7867 12.5069 17.867 -8.19207
564 1 0 12.5069 19.6537 -8.15822
662 1 1.7867 12.5069 21.4404 -8.00023
566 3 5.36011 12.5069 17.867 -6.48722
568 1 3.57341 12.5069 19.6537 -8.27434
666 3 5.36011 12.5069 21.4404 -6.34213
570 2 8.93351 12.5069 17.867 -6.93272
572 3 7.14681 12.5069 19.6537 -6.48609
576 1 10.7202 12.5069 19.6537 -8.52847
670 1 8.93351 12.5069 21.4404 -8.50172
574 2 12.5069 12.5069 17.867 -7.02365
674 2 12.5069 12.5069 21.4404 -6.89868
578 1 16.0803 12.5069 17.867 -8.52057
580 3 14.2936 12.5069 19.6537 -6.61788
678 2 16.0803 12.5069 21.4404 -7.04052
581 1 0 14.2936 17.867 -8.22922
582 3 1.7867 16.0803 17.867 -6.28148
583 2 1.7867 14.2936 19.6537 -6.9452
584 3 0 16.0803 19.6537 -6.41613
681 3 0 14.2936 21.4404 -6.33188
682 2 1.7867 16.0803 21.4404 -7.01873
585 3 3.57341 14.2936 17.867 -6.3294
586 2 5.36011 16.0803 17.867 -6.9618
587 2 5.36011 14.2936 19.6537 -6.9504
588 1 3.57341 16.0803 19.6537 -8.68473
685 2 3.57341 14.2936 21.4404 -6.98406
686 2 5.36011 16.0803 21.4404 -6.98561
589 3 7.14681 14.2936 17.867 -6.60263
590 2 8.93351 16.0803 17.867 -6.91212
591 3 8.93351 14.2936 19.6537 -6.44432
592 3 7.14681 16.0803 19.6537 -6.52023
593 3 10.7202 14.2936 17.867 -6.4712
596 1 10.7202 16.0803 19.6537 -8.73898
689 1 7.14681 14.2936 21.4404 -8.59127
690 3 8.93351 16.0803 21.4404 -6.29928
693 3 10.7202 14.2936 21.4404 -6.3665
594 2 12.5069 16.0803 17.867 -6.91785
595 2 12.5069 14.2936 19.6537 -6.96311
694 3 12.5069 16.0803 21.4404 -6.4534
597 2 14.2936 14.2936 17.867 -7.05818
598 2 16.0803 16.0803 17.867 -6.9247
599 2 16.0803 14.2936 19.6537 -7.03184
600 1 14.2936 16.0803 19.6537 -8.57514
697 3 14.2936 14.2936 21.4404 -6.51173
698 1 16.0803 16.0803 21.4404 -8.46631
603 3 1.7867 0 23.2271 -6.30695
604 1 0 1.7867 23.2271 -8.31609
701 3 0 0 25.0138 -6.24282
702 3 1.7867 1.7867 25.0138 -6.09767
607 1 5.36011 0 23.2271 -8.12947
608 1 3.57341 1.7867 23.2271 -8.06577
703 1 3.57341 0 25.0138 -8.38039
704 1 5.36011 1.7867 25.0138 -8.01691
611 1 8.93351 0 23.2271 -8.30625
612 3 7.14681 1.7867 23.2271 -6.2621
616 3 10.7202 1.7867 23.2271 -6.54248
705 2 7.14681 0 25.0138 -6.87169
706 3 8.93351 1.7867 25.0138 -6.34492
707 1 10.7202 0 25.0138 -8.45375
615 2 12.5069 0 23.2271 -7.20497
708 2 12.5069 1.7867 25.0138 -7.02236
619 2 16.0803 0 23.2271 -7.16441
620 2 14.2936 1.7867 23.2271 -7.24014
709 3 14.2936 0 25.0138 -6.67563
710 2 16.0803 1.7867 25.0138 -7.02979
623 1 1.7867 3.57341 23.2271 -8.16342
624 2 0 5.36011 23.2271 -6.87704
711 1 0 3.57341 25.0138 -8.12352
712 3 1.7867 5.36011 25.0138 -6.1903
627 2 5.36011 3.57341 23.2271 -6.86653
628 3 3.57341 5.36011 23.2271 -6.25438
713 1 3.57341 3.57341 25.0138 -8.20675
714 3 5.36011 5.36011 25.0138 -6.29522
631 3 8.93351 3.57341 23.2271 -6.42899
632 3 7.14681 5.36011 23.2271 -6.38732
636 2 10.7202 5.36011 23.2271 -7.07989
715 1 7.14681 3.57341 25.0138 -8.63586
716 2 8.93351 5.36011 25.0138 -6.98485
717 1 10.7202 3.57341 25.0138 -8.6043
635 2 12.5069 3.57341 23.2271 -7.17158
718 2 12.5069 5.36011 25.0138 -7.03051
639 3 16.0803 3.57341 23.2271 -6.51815
640 3 14.2936 5.36011 23.2271 -6.59075
719 2 14.2936 3.57341 25.0138 -7.02614
720 1 16.0803 5.36011 25.0138 -8.56934
643 1 1.7867 7.14681 23.2271 -8.42585
644 2 0 8.93351 23.2271 -7.01929
663 1 1.7867 10.7202 23.2271 -8.07693
721 3 0 7.14681 25.0138 -6.38299
722 3 1.7867 8.93351 25.0138 -6.24844
731 1 0 10.7202 25.0138 -8.14916
647 3 5.36011 7.14681 23.2271 -6.41624
648 1 3.57341 8.93351 23.2271 -8.24087
667 1 5.36011 10.7202 23.2271 -8.34383
723 1 3.57341 7.14681 25.0138 -8.48951
724 3 5.36011 8.93351 25.0138 -6.29214
733 1 3.57341 10.7202 25.0138 -8.43285
651 2 8.93351 7.14681 23.2271 -7.02037
652 2 7.14681 8.93351 23.2271 -7.03782
656 2 10.7202 8.93351 23.2271 -7.07423
671 2 8.93351 10.7202 23.2271 -6.91193
725 1 7.14681 7.14681 25.0138 -8.60697
726 2 8.93351 8.93351 25.0138 -7.05926
727 1 10.7202 7.14681 25.0138 -8.1665
735 1 7.14681 10.7202 25.0138 -8.4034
737 1 10.7202 10.7202 25.0138 -8.25671
655 1 12.5069 7.14681 23.2271 -8.55698
675 1 12.5069 10.7202 23.2271 -8.67245
728 2 12.5069 8.93351 25.0138 -6.98329
659 3 16.0803 7.14681 23.2271 -6.38375
660 3 14.2936 8.93351 23.2271 -6.33984
679 1 16.0803 10.7202 23.2271 -8.4798
729 3 14.2936 7.14681 25.0138 -6.42599
730 1 16.0803 8.93351 25.0138 -8.48745
739 3 14.2936 10.7202 25.0138 -6.4058
664 2 0 12.5069 23.2271 -7.04381
732 2 1.7867 12.5069 25.0138 -6.95955
668 1 3.57341 12.5069 23.2271 -8.26136
734 3 5.36011 12.5069 25.0138 -6.30692
672 3 7.14681 12.5069 23.2271 -6.32778
676 3 10.7202 12.5069 23.2271 -6.33265
736 3 8.93351 12.5069 25.0138 -6.31927
738 3 12.5069 12.5069 25.0138 -6.37697
680 3 14.2936 12.5069 23.2271 -6.4358
740 3 16.0803 12.5069 25.0138 -6.50478
683 1 1.7867 14.2936 23.2271 -8.26618
684 3 0 16.0803 23.2271 -6.43858
741 1 0 14.2936 25.0138 -8.51025
742 3 1.7867 16.0803 25.0138 -6.31777
687 3 5.36011 14.2936 23.2271 -6.43983
688 1 3.57341 16.0803 23.2271 -8.589
743 3 3.57341 14.2936 25.0138 -6.35304
744 3 5.36011 16.0803 25.0138 -6.31531
691 1 8.93351 14.2936 23.2271 -8.51709
692 2 7.14681 16.0803 23.2271 -6.92296
696 2 10.7202 16.0803 23.2271 -6.93059
745 2 7.14681 14.2936 25.0138 -6.86767
746 2 8.93351 16.0803 25.0138 -7.04406
747 2 10.7202 14.2936 25.0138 -6.95386
695 1 12.5069 14.2936 23.2271 -8.74999
748 1 12.5069 16.0803 25.0138 -8.20611
699 2 16.0803 14.2936 23.2271 -6.94468
700 3 14.2936 16.0803 23.2271 -6.3782
749 3 14.2936 14.2936 25.0138 -6.48417
750 3 16.0803 16.0803 25.0138 -6.30136
751 3 1.7867 0 26.8005 -6.29131
752 1 0 1.7867 26.8005 -8.28771
801 1 0 0 28.5872 -8.20224
802 2 1.7867 1.7867 28.5872 -6.98017
803 2 1.7867 0 30.374 -7.00393
804 2 0 1.7867 30.374 -7.01884
753 1 5.36011 0 26.8005 -8.45519
754 2 3.57341 1.7867 26.8005 -6.90537
805 1 3.57341 0 28.5872 -8.37945
806 3 5.36011 1.7867 28.5872 -6.29954
807 1 5.36011 0 30.374 -8.6665
808 3 3.57341 1.7867 30.374 -6.40257
755 1 8.93351 0 26.8005 -8.40049
756 2 7.14681 1.7867 26.8005 -6.97264
758 3 10.7202 1.7867 26.8005 -6.35531
809 3 7.14681 0 28.5872 -6.21745
810 1 8.93351 1.7867 28.5872 -8.3322
811 1 8.93351 0 30.374 -8.30806
812 3 7.14681 1.7867 30.374 -6.21064
813 3 10.7202 0 28.5872 -6.27771
816 1 10.7202 1.7867 30.374 -8.49651
757 3 12.5069 0 26.8005 -6.44585
814 1 12.5069 1.7867 28.5872 -8.59537
815 3 12.5069 0 30.374 -6.34122
759 3 16.0803 0 26.8005 -6.49662
760 1 14.2936 1.7867 26.8005 -8.62762
817 2 14.2936 0 28.5872 -6.94528
818 3 16.0803 1.7867 28.5872 -6.57706
819 2 16.0803 0 30.374 -7.09034
820 2 14.2936 1.7867 30.374 -6.84735
761 1 1.7867 3.57341 26.8005 -8.18728
762 3 0 5.36011 26.8005 -6.37647
821 3 0 3.57341 28.5872 -6.2985
822 1 1.7867 5.36011 28.5872 -8.28911
823 2 1.7867 3.57341 30.374 -6.97031
824 1 0 5.36011 30.374 -8.36226
763 2 5.36011 3.57341 26.8005 -6.93032
764 1 3.57341 5.36011 26.8005 -8.07423
825 1 3.57341 3.57341 28.5872 -8.36677
826 1 5.36011 5.36011 28.5872 -8.30962
827 3 5.36011 3.57341 30.374 -6.311
828 2 3.57341 5.36011 30.374 -6.99482
765 2 8.93351 3.57341 26.8005 -6.87421
766 3 7.14681 5.36011 26.8005 -6.35292
768 1 10.7202 5.36011 26.8005 -8.31818
829 1 7.14681 3.57341 28.5872 -8.57331
830 3 8.93351 5.36011 28.5872 -6.38161
831 3 8.93351 3.57341 30.374 -6.24247
832 3 7.14681 5.36011 30.374 -6.29012
833 3 10.7202 3.57341 28.5872 -6.26507
836 1 10.7202 5.36011 30.374 -8.76597
767 3 12.5069 3.57341 26.8005 -6.41937
834 3 12.5069 5.36011 28.5872 -6.39245
835 3 12.5069 3.57341 30.374 -6.33606
769 2 16.0803 3.57341 26.8005 -6.96436
770 3 14.2936 5.36011 26.8005 -6.53067
837 3 14.2936 3.57341 28.5872 -6.51614
838 3 16.0803 5.36011 28.5872 -6.53601
839 3 16.0803 3.57341 30.374 -6.50909