ITEM: TIMESTEP
0
ITEM: NUMBER OF ATOMS
4000
ITEM: BOX BOUNDS pp pp pp
0.0000000000000000e+00 3.6030929999999998e+01
0.0000000000000000e+00 3.6030929999999998e+01
0.0000000000000000e+00 3.6030929999999998e+01
ITEM: ATOMS id type x y z c_peratom
1 3 0 0 0 -6.36432
2 1 1.80155 1.80155 0 -8.2371
3 2 1.80155 0 1.80155 -7.0137
4 3 0 1.80155 1.80155 -6.39907
101 1 0 0 3.60309 -8.12888
102 1 1.80155 1.80155 3.60309 -8.15287
5 2 3.60309 0 0 -7.02075
6 1 5.40464 1.80155 0 -8.33083
7 3 5.40464 0 1.80155 -6.34652
8 1 3.60309 1.80155 1.80155 -8.15594
105 3 3.60309 0 3.60309 -6.43553
106 3 5.40464 1.80155 3.60309 -6.62506
9 2 7.20619 0 0 -7.04066
10 3 9.00773 1.80155 0 -6.52045
11 2 9.00773 0 1.80155 -7.05484
12 2 7.20619 1.80155 1.80155 -6.99388
109 3 7.20619 0 3.60309 -6.51452
110 1 9.00773 1.80155 3.60309 -8.20358
13 1 10.8093 0 0 -8.47715
14 2 12.6108 1.80155 0 -7.02748
15 3 12.6108 0 1.80155 -6.47296
16 2 10.8093 1.80155 1.80155 -7.07393
113 1 10.8093 0 3.60309 -8.30912
114 1 12.6108 1.80155 3.60309 -8.23125
17 3 14.4124 0 0 -6.6206
18 1 16.2139 1.80155 0 -8.26492
19 3 16.2139 0 1.80155 -6.50569
20 3 14.4124 1.80155 1.80155 -6.35977
117 3 14.4124 0 3.60309 -6.42759
118 3 16.2139 1.80155 3.60309 -6.45699
21 2 0 3.60309 0 -7.00482
22 3 1.80155 5.40464 0 -6.53686
23 2 1.80155 3.60309 1.80155 -7.03984
24 3 0 5.40464 1.80155 -6.44787
121 1 0 3.60309 3.60309 -8.21401
122 2 1.80155 5.40464 3.60309 -7.0305
25 2 3.60309 3.60309 0 -7.03365
26 1 5.40464 5.40464 0 -8.39468
27 2 5.40464 3.60309 1.80155 -7.07561
28 2 3.60309 5.40464 1.80155 -7.03619
125 1 3.60309 3.60309 3.60309 -8.19952
126 2 5.40464 5.40464 3.60309 -7.03545
29 3 7.20619 3.60309 0 -6.40294
30 2 9.00773 5.40464 0 -6.98183
31 1 9.00773 3.60309 1.80155 -8.20286
32 2 7.20619 5.40464 1.80155 -7.02807
129 2 7.20619 3.60309 3.60309 -7.07803
130 1 9.00773 5.40464 3.60309 -8.27787
33 2 10.8093 3.60309 0 -6.98812
34 3 12.6108 5.40464 0 -6.35531
35 1 12.6108 3.60309 1.80155 -8.11531
36 1 10.8093 5.40464 1.80155 -8.09097
133 1 10.8093 3.60309 3.60309 -8.032
134 1 12.6108 5.40464 3.60309 -8.31094
37 1 14.4124 3.60309 0 -8.1842
38 3 16.2139 5.40464 0 -6.425
39 3 16.2139 3.60309 1.80155 -6.32194
40 2 14.4124 5.40464 1.80155 -6.91669
137 3 14.4124 3.60309 3.60309 -6.41383
138 3 16.2139 5.40464 3.60309 -6.41343
41 2 0 7.20619 0 -7.03265
42 2 1.80155 9.00773 0 -6.99165
43 1 1.80155 7.20619 1.80155 -8.557
44 2 0 9.00773 1.80155 -7.00175
141 3 0 7.20619 3.60309 -6.57009
142 3 1.80155 9.00773 3.60309 -6.5391
45 3 3.60309 7.20619 0 -6.3963
46 1 5.40464 9.00773 0 -8.2725
47 1 5.40464 7.20619 1.80155 -8.38128
48 3 3.60309 9.00773 1.80155 -6.33969
145 3 3.60309 7.20619 3.60309 -6.48497
146 3 5.40464 9.00773 3.60309 -6.46659
49 3 7.20619 7.20619 0 -6.35218
50 3 9.00773 9.00773 0 -6.50184
51 3 9.00773 7.20619 1.80155 -6.54492
52 3 7.20619 9.00773 1.80155 -6.46461
149 2 7.20619 7.20619 3.60309 -7.05881
150 2 9.00773 9.00773 3.60309 -7.00236
53 1 10.8093 7.20619 0 -8.19875
54 1 12.6108 9.00773 0 -8.35961
55 2 12.6108 7.20619 1.80155 -7.01372
56 2 10.8093 9.00773 1.80155 -6.9978
153 2 10.8093 7.20619 3.60309 -7.00207
154 1 12.6108 9.00773 3.60309 -8.29354
57 3 14.4124 7.20619 0 -6.52522
58 3 16.2139 9.00773 0 -6.56159
59 3 16.2139 7.20619 1.80155 -6.54459
60 2 14.4124 9.00773 1.80155 -6.93125
157 3 14.4124 7.20619 3.60309 -6.46505
158 3 16.2139 9.00773 3.60309 -6.38212
61 3 0 10.8093 0 -6.50472
62 2 1.80155 12.6108 0 -6.96447
63 1 1.80155 10.8093 1.80155 -8.31448
64 1 0 12.6108 1.80155 -8.38823
161 2 0 10.8093 3.60309 -7.09902
162 2 1.80155 12.6108 3.60309 -7.14091
65 3 3.60309 10.8093 0 -6.42682
66 3 5.40464 12.6108 0 -6.46667
67 1 5.40464 10.8093 1.80155 -8.27368
68 1 3.60309 12.6108 1.80155 -8.27031
165 2 3.60309 10.8093 3.60309 -6.95485
166 2 5.40464 12.6108 3.60309 -6.9718
69 3 7.20619 10.8093 0 -6.51182
70 2 9.00773 12.6108 0 -7.06425
71 3 9.00773 10.8093 1.80155 -6.66003
72 3 7.20619 12.6108 1.80155 -6.48938
169 1 7.20619 10.8093 3.60309 -8.51058
170 2 9.00773 12.6108 3.60309 -7.01254
73 3 10.8093 10.8093 0 -6.67555
74 2 12.6108 12.6108 0 -7.01086
75 2 12.6108 10.8093 1.80155 -7.06057
76 2 10.8093 12.6108 1.80155 -7.18235
173 3 10.8093 10.8093 3.60309 -6.63843
174 2 12.6108 12.6108 3.60309 -7.06717
77 3 14.4124 10.8093 0 -6.4898
78 1 16.2139 12.6108 0 -8.31324
79 1 16.2139 10.8093 1.80155 -8.42285
80 2 14.4124 12.6108 1.80155 -7.02452
177 3 14.4124 10.8093 3.60309 -6.42868
178 2 16.2139 12.6108 3.60309 -6.99398
81 3 0 14.4124 0 -6.41733
82 1 1.80155 16.2139 0 -8.30418
83 1 1.80155 14.4124 1.80155 -8.13256
84 2 0 16.2139 1.80155 -6.95139
181 2 0 14.4124 3.60309 -7.12911
182 3 1.80155 16.2139 3.60309 -6.52942
85 3 3.60309 14.4124 0 -6.51539
86 3 5.40464 16.2139 0 -6.51816
87 3 5.40464 14.4124 1.80155 -6.46669
88 1 3.60309 16.2139 1.80155 -8.22981
185 2 3.60309 14.4124 3.60309 -7.00632
186 2 5.40464 16.2139 3.60309 -6.94827
89 1 7.20619 14.4124 0 -8.5021
90 2 9.00773 16.2139 0 -7.07682
91 2 9.00773 14.4124 1.80155 -7.05605
92 3 7.20619 16.2139 1.80155 -6.48761
189 1 7.20619 14.4124 3.60309 -8.62767
190 3 9.00773 16.2139 3.60309 -6.48725
93 3 10.8093 14.4124 0 -6.80037
94 1 12.6108 16.2139 0 -8.49317
95 2 12.6108 14.4124 1.80155 -7.08347
96 2 10.8093 16.2139 1.80155 -7.04124
193 3 10.8093 14.4124 3.60309 -6.76561
194 3 12.6108 16.2139 3.60309 -6.52695
97 3 14.4124 14.4124 0 -6.51012
98 1 16.2139 16.2139 0 -8.40382
99 3 16.2139 14.4124 1.80155 -6.45489
100 3 14.4124 16.2139 1.80155 -6.47176
197 1 14.4124 14.4124 3.60309 -8.39992
198 3 16.2139 16.2139 3.60309 -6.45712
103 2 1.80155 0 5.40464 -7.03229
104 3 0 1.80155 5.40464 -6.34773
201 1 0 0 7.20619 -8.30275
202 2 1.80155 1.80155 7.20619 -7.1032
107 2 5.40464 0 5.40464 -7.01405
108 2 3.60309 1.80155 5.40464 -7.04013
203 1 3.60309 0 7.20619 -8.30985
204 3 5.40464 1.80155 7.20619 -6.50473
111 3 9.00773 0 5.40464 -6.39356
112 2 7.20619 1.80155 5.40464 -7.04388
205 1 7.20619 0 7.20619 -8.37176
206 1 9.00773 1.80155 7.20619 -8.25095
115 3 12.6108 0 5.40464 -6.28209
116 3 10.8093 1.80155 5.40464 -6.25507
207 2 10.8093 0 7.20619 -6.90393
208 1 12.6108 1.80155 7.20619 -8.26832
119 2 16.2139 0 5.40464 -6.98974
120 1 14.4124 1.80155 5.40464 -8.48443
209 2 14.4124 0 7.20619 -7.083
210 3 16.2139 1.80155 7.20619 -6.38773
123 2 1.80155 3.60309 5.40464 -7.08122
124 2 0 5.40464 5.40464 -6.99688
211 3 0 3.60309 7.20619 -6.52749
212 1 1.80155 5.40464 7.20619 -8.31188
127 3 5.40464 3.60309 5.40464 -6.52203
128 1 3.60309 5.40464 5.40464 -8.38271
213 2 3.60309 3.60309 7.20619 -7.0449
214 3 5.40464 5.40464 7.20619 -6.43647
131 2 9.00773 3.60309 5.40464 -7.02001
132 3 7.20619 5.40464 5.40464 -6.61354
215 1 7.20619 3.60309 7.20619 -8.31861
216 2 9.00773 5.40464 7.20619 -7.00714
135 3 12.6108 3.60309 5.40464 -6.34929
136 2 10.8093 5.40464 5.40464 -6.97923
217 3 10.8093 3.60309 7.20619 -6.41101
218 3 12.6108 5.40464 7.20619 -6.50614
139 3 16.2139 3.60309 5.40464 -6.36501
140 2 14.4124 5.40464 5.40464 -6.85144
219 3 14.4124 3.60309 7.20619 -6.41531
220 2 16.2139 5.40464 7.20619 -6.91876
143 2 1.80155 7.20619 5.40464 -6.97812
144 2 0 9.00773 5.40464 -6.98451
221 3 0 7.20619 7.20619 -6.53911
222 3 1.80155 9.00773 7.20619 -6.5527
147 3 5.40464 7.20619 5.40464 -6.52736
148 1 3.60309 9.00773 5.40464 -8.64622
223 3 3.60309 7.20619 7.20619 -6.36425
224 3 5.40464 9.00773 7.20619 -6.45636
151 2 9.00773 7.20619 5.40464 -7.11595
152 2 7.20619 9.00773 5.40464 -6.93658
225 3 7.20619 7.20619 7.20619 -6.51242
226 1 9.00773 9.00773 7.20619 -8.24639
155 3 12.6108 7.20619 5.40464 -6.42323
156 1 10.8093 9.00773 5.40464 -8.17157
227 1 10.8093 7.20619 7.20619 -8.21234
228 2 12.6108 9.00773 7.20619 -6.92609
159 1 16.2139 7.20619 5.40464 -8.44774
160 1 14.4124 9.00773 5.40464 -8.197
229 3 14.4124 7.20619 7.20619 -6.49338
230 3 16.2139 9.00773 7.20619 -6.28248
163 3 1.80155 10.8093 5.40464 -6.60331
164 2 0 12.6108 5.40464 -7.14226
231 1 0 10.8093 7.20619 -8.55334
232 2 1.80155 12.6108 7.20619 -7.13818
167 3 5.40464 10.8093 5.40464 -6.52658
168 1 3.60309 12.6108 5.40464 -8.46826
233 2 3.60309 10.8093 7.20619 -6.94134
234 3 5.40464 12.6108 7.20619 -6.54702
171 3 9.00773 10.8093 5.40464 -6.50537
172 3 7.20619 12.6108 5.40464 -6.57039
235 3 7.20619 10.8093 7.20619 -6.55273
236 3 9.00773 12.6108 7.20619 -6.56576
175 1 12.6108 10.8093 5.40464 -7.9794
176 2 10.8093 12.6108 5.40464 -6.98946
237 1 10.8093 10.8093 7.20619 -8.27383
238 2 12.6108 12.6108 7.20619 -7.02531
179 1 16.2139 10.8093 5.40464 -8.2451
180 1 14.4124 12.6108 5.40464 -8.17307
239 1 14.4124 10.8093 7.20619 -8.14758
240 2 16.2139 12.6108 7.20619 -7.08107
183 2 1.80155 14.4124 5.40464 -7.15816
184 2 0 16.2139 5.40464 -7.09951
241 2 0 14.4124 7.20619 -7.14577
242 3 1.80155 16.2139 7.20619 -6.52209
187 3 5.40464 14.4124 5.40464 -6.56696
188 1 3.60309 16.2139 5.40464 -8.38229
243 2 3.60309 14.4124 7.20619 -6.98859
244 2 5.40464 16.2139 7.20619 -6.97705
191 3 9.00773 14.4124 5.40464 -6.61218
192 3 7.20619 16.2139 5.40464 -6.45744
245 2 7.20619 14.4124 7.20619 -6.94933
246 1 9.00773 16.2139 7.20619 -8.42286
195 3 12.6108 14.4124 5.40464 -6.63043
196 2 10.8093 16.2139 5.40464 -6.97605
247 3 10.8093 14.4124 7.20619 -6.6135
248 2 12.6108 16.2139 7.20619 -6.98992
199 2 16.2139 14.4124 5.40464 -7.01975
200 3 14.4124 16.2139 5.40464 -6.57179
249 2 14.4124 14.4124 7.20619 -7.02234
250 2 16.2139 16.2139 7.20619 -7.03661
251 2 1.80155 0 9.00773 -7.01283
252 2 0 1.80155 9.00773 -7.06624
301 1 0 0 10.8093 -8.55892
302 2 1.80155 1.80155 10.8093 -7.07896
303 3 1.80155 0 12.6108 -6.51035
304 2 0 1.80155 12.6108 -6.97762
253 1 5.40464 0 9.00773 -8.12678
254 3 3.60309 1.80155 9.00773 -6.54708
305 2 3.60309 0 10.8093 -7.00478
306 1 5.40464 1.80155 10.8093 -8.00041
307 2 5.40464 0 12.6108 -6.99713
308 1 3.60309 1.80155 12.6108 -8.20515
255 3 9.00773 0 9.00773 -6.16821
256 2 7.20619 1.80155 9.00773 -7.00591
309 1 7.20619 0 10.8093 -8.14642
310 1 9.00773 1.80155 10.8093 -7.95243
311 2 9.00773 0 12.6108 -7.09262
312 1 7.20619 1.80155 12.6108 -7.95055
257 1 12.6108 0 9.00773 -7.89363
258 1 10.8093 1.80155 9.00773 -8.01159
313 1 10.8093 0 10.8093 -7.87573
314 1 12.6108 1.80155 10.8093 -7.9709
315 3 12.6108 0 12.6108 -6.05456
316 1 10.8093 1.80155 12.6108 -7.97186
259 1 16.2139 0 9.00773 -8.35567
260 1 14.4124 1.80155 9.00773 -8.28536
317 3 14.4124 0 10.8093 -6.20148
318 3 16.2139 1.80155 10.8093 -6.42032
319 2 16.2139 0 12.6108 -6.95166
320 1 14.4124 1.80155 12.6108 -8.34357
261 2 1.80155 3.60309 9.00773 -7.07791
262 2 0 5.40464 9.00773 -7.03829
321 1 0 3.60309 10.8093 -8.24016
322 3 1.80155 5.40464 10.8093 -6.47995
323 1 1.80155 3.60309 12.6108 -8.30639
324 2 0 5.40464 12.6108 -7.07859
263 2 5.40464 3.60309 9.00773 -7.02565
264 1 3.60309 5.40464 9.00773 -8.40255
325 3 3.60309 3.60309 10.8093 -6.36204
326 1 5.40464 5.40464 10.8093 -8.16798
327 1 5.40464 3.60309 12.6108 -7.99878
328 3 3.60309 5.40464 12.6108 -6.2808
265 2 9.00773 3.60309 9.00773 -7.12168
266 1 7.20619 5.40464 9.00773 -8.27766
329 1 7.20619 3.60309 10.8093 -7.92221
330 2 9.00773 5.40464 10.8093 -6.99982
331 2 9.00773 3.60309 12.6108 -7.11689
332 1 7.20619 5.40464 12.6108 -7.91884
267 3 12.6108 3.60309 9.00773 -6.25212
268 1 10.8093 5.40464 9.00773 -8.2909
333 1 10.8093 3.60309 10.8093 -7.99221
334 1 12.6108 5.40464 10.8093 -8.26602
335 1 12.6108 3.60309 12.6108 -8.04834
336 3 10.8093 5.40464 12.6108 -6.2686
269 3 16.2139 3.60309 9.00773 -6.43935
270 3 14.4124 5.40464 9.00773 -6.50593
337 2 14.4124 3.60309 10.8093 -6.96722
338 3 16.2139 5.40464 10.8093 -6.48607
339 2 16.2139 3.60309 12.6108 -6.9625
340 3 14.4124 5.40464 12.6108 -6.38887
271 2 1.80155 7.20619 9.00773 -6.93637
272 3 0 9.00773 9.00773 -6.43812
341 2 0 7.20619 10.8093 -7.00433
342 1 1.80155 9.00773 10.8093 -8.09492
343 1 1.80155 7.20619 12.6108 -8.36969
344 3 0 9.00773 12.6108 -6.32284
273 3 5.40464 7.20619 9.00773 -6.24593
274 1 3.60309 9.00773 9.00773 -8.3929
345 3 3.60309 7.20619 10.8093 -6.35321
346 1 5.40464 9.00773 10.8093 -8.24345
347 2 5.40464 7.20619 12.6108 -6.98295
348 2 3.60309 9.00773 12.6108 -7.10635
275 2 9.00773 7.20619 9.00773 -7.03013
276 1 7.20619 9.00773 9.00773 -8.46607
349 3 7.20619 7.20619 10.8093 -6.38094
350 2 9.00773 9.00773 10.8093 -6.99845
351 1 9.00773 7.20619 12.6108 -8.30397
352 2 7.20619 9.00773 12.6108 -7.06816
277 3 12.6108 7.20619 9.00773 -6.43462
278 2 10.8093 9.00773 9.00773 -6.92423
353 3 10.8093 7.20619 10.8093 -6.41329
354 1 12.6108 9.00773 10.8093 -8.37316
355 1 12.6108 7.20619 12.6108 -8.31806
356 2 10.8093 9.00773 12.6108 -7.0072
279 3 16.2139 7.20619 9.00773 -6.50078
280 3 14.4124 9.00773 9.00773 -6.40165
357 3 14.4124 7.20619 10.8093 -6.414
358 3 16.2139 9.00773 10.8093 -6.39561
359 1 16.2139 7.20619 12.6108 -8.66551
360 2 14.4124 9.00773 12.6108 -6.90918
281 2 1.80155 10.8093 9.00773 -7.05505
282 3 0 12.6108 9.00773 -6.52051
361 1 0 10.8093 10.8093 -8.11841
362 1 1.80155 12.6108 10.8093 -8.03834
363 1 1.80155 10.8093 12.6108 -7.97252
364 1 0 12.6108 12.6108 -7.93693
283 2 5.40464 10.8093 9.00773 -6.98173
284 1 3.60309 12.6108 9.00773 -8.14511
365 2 3.60309 10.8093 10.8093 -7.08082
366 1 5.40464 12.6108 10.8093 -8.01442
367 1 5.40464 10.8093 12.6108 -7.99384
368 2 3.60309 12.6108 12.6108 -7.14109
285 3 9.00773 10.8093 9.00773 -6.49444
286 2 7.20619 12.6108 9.00773 -7.01719
369 3 7.20619 10.8093 10.8093 -6.47296
370 2 9.00773 12.6108 10.8093 -6.97855
371 1 9.00773 10.8093 12.6108 -8.21639
372 2 7.20619 12.6108 12.6108 -7.11376
287 3 12.6108 10.8093 9.00773 -6.45527
288 3 10.8093 12.6108 9.00773 -6.44582
373 1 10.8093 10.8093 10.8093 -8.20972
374 2 12.6108 12.6108 10.8093 -6.97024
375 1 12.6108 10.8093 12.6108 -8.26474
376 3 10.8093 12.6108 12.6108 -6.35964
289 1 16.2139 10.8093 9.00773 -8.31135
290 2 14.4124 12.6108 9.00773 -6.99768
377 3 14.4124 10.8093 10.8093 -6.46806
378 3 16.2139 12.6108 10.8093 -6.43412
379 1 16.2139 10.8093 12.6108 -8.41733
380 2 14.4124 12.6108 12.6108 -7.01523
291 2 1.80155 14.4124 9.00773 -7.09003
292 3 0 16.2139 9.00773 -6.39044
381 2 0 14.4124 10.8093 -7.02155
382 1 1.80155 16.2139 10.8093 -8.21
383 2 1.80155 14.4124 12.6108 -7.04331
384 3 0 16.2139 12.6108 -6.34941
293 1 5.40464 14.4124 9.00773 -8.05687
294 1 3.60309 16.2139 9.00773 -8.01154
385 1 3.60309 14.4124 10.8093 -7.97409
386 1 5.40464 16.2139 10.8093 -8.0675
387 2 5.40464 14.4124 12.6108 -7.05087
388 2 3.60309 16.2139 12.6108 -7.09625
295 3 9.00773 14.4124 9.00773 -6.56782
296 2 7.20619 16.2139 9.00773 -6.97838
389 1 7.20619 14.4124 10.8093 -8.23033
390 2 9.00773 16.2139 10.8093 -7.0214
391 2 9.00773 14.4124 12.6108 -7.00912
392 3 7.20619 16.2139 12.6108 -6.41385
297 1 12.6108 14.4124 9.00773 -8.28366
298 2 10.8093 16.2139 9.00773 -7.00065
393 1 10.8093 14.4124 10.8093 -8.4225
394 3 12.6108 16.2139 10.8093 -6.40018
395 2 12.6108 14.4124 12.6108 -6.93908
396 3 10.8093 16.2139 12.6108 -6.49517
299 3 16.2139 14.4124 9.00773 -6.51745
300 1 14.4124 16.2139 9.00773 -8.31318
397 3 14.4124 14.4124 10.8093 -6.53483
398 2 16.2139 16.2139 10.8093 -6.91409
399 3 16.2139 14.4124 12.6108 -6.4175
400 1 14.4124 16.2139 12.6108 -8.28332
401 1 0 0 14.4124 -8.34265
402 3 1.80155 1.80155 14.4124 -6.45604
403 2 1.80155 0 16.2139 -6.97112
404 2 0 1.80155 16.2139 -7.01138
405 2 3.60309 0 14.4124 -6.97191
406 3 5.40464 1.80155 14.4124 -6.36643
407 3 5.40464 0 16.2139 -6.37837
408 3 3.60309 1.80155 16.2139 -6.43907
409 2 7.20619 0 14.4124 -6.98351
410 1 9.00773 1.80155 14.4124 -8.13319
411 1 9.00773 0 16.2139 -8.25529
412 1 7.20619 1.80155 16.2139 -8.30004
413 3 10.8093 0 14.4124 -6.16904
414 1 12.6108 1.80155 14.4124 -8.41182
415 3 12.6108 0 16.2139 -6.2677
416 3 10.8093 1.80155 16.2139 -6.37812
417 3 14.4124 0 14.4124 -6.31816
418 2 16.2139 1.80155 14.4124 -6.96845
419 3 16.2139 0 16.2139 -6.42063
420 3 14.4124 1.80155 16.2139 -6.40889
421 3 0 3.60309 14.4124 -6.58483
422 3 1.80155 5.40464 14.4124 -6.3226
423 3 1.80155 3.60309 16.2139 -6.40467
424 1 0 5.40464 16.2139 -8.32039
425 1 3.60309 3.60309 14.4124 -8.23423
426 2 5.40464 5.40464 14.4124 -7.00845
427 2 5.40464 3.60309 16.2139 -6.94094
428 1 3.60309 5.40464 16.2139 -8.07843
429 1 7.20619 3.60309 14.4124 -8.04361
430 1 9.00773 5.40464 14.4124 -8.08047
431 3 9.00773 3.60309 16.2139 -6.40609
432 3 7.20619 5.40464 16.2139 -6.46855
433 2 10.8093 3.60309 14.4124 -6.9965
434 1 12.6108 5.40464 14.4124 -8.22807
435 2 12.6108 3.60309 16.2139 -6.99702
436 1 10.8093 5.40464 16.2139 -8.18756
437 3 14.4124 3.60309 14.4124 -6.47619
438 3 16.2139 5.40464 14.4124 -6.61151
439 3 16.2139 3.60309 16.2139 -6.52979
440 2 14.4124 5.40464 16.2139 -7.0133
441 2 0 7.20619 14.4124 -7.00288
442 2 1.80155 9.00773 14.4124 -6.95627
443 1 1.80155 7.20619 16.2139 -8.09015
444 3 0 9.00773 16.2139 -6.27098
445 1 3.60309 7.20619 14.4124 -8.14477
446 2 5.40464 9.00773 14.4124 -7.05608
447 1 5.40464 7.20619 16.2139 -8.18047
448 2 3.60309 9.00773 16.2139 -7.05972
449 1 7.20619 7.20619 14.4124 -8.03487
450 2 9.00773 9.00773 14.4124 -7.06081
451 1 9.00773 7.20619 16.2139 -8.08345
452 2 7.20619 9.00773 16.2139 -7.09345
453 2 10.8093 7.20619 14.4124 -7.07917
454 3 12.6108 9.00773 14.4124 -6.42363
455 2 12.6108 7.20619 16.2139 -6.9838
456 1 10.8093 9.00773 16.2139 -8.25602
457 3 14.4124 7.20619 14.4124 -6.50671
458 2 16.2139 9.00773 14.4124 -7.08635
459 2 16.2139 7.20619 16.2139 -7.04391
460 1 14.4124 9.00773 16.2139 -8.42996
461 1 0 10.8093 14.4124 -8.13049
462 1 1.80155 12.6108 14.4124 -8.24501
463 3 1.80155 10.8093 16.2139 -6.35594
464 3 0 12.6108 16.2139 -6.39799
465 1 3.60309 10.8093 14.4124 -8.13322
466 1 5.40464 12.6108 14.4124 -8.0358
467 3 5.40464 10.8093 16.2139 -6.47568
468 2 3.60309 12.6108 16.2139 -6.97276
469 1 7.20619 10.8093 14.4124 -7.95115
470 1 9.00773 12.6108 14.4124 -8.17851
471 1 9.00773 10.8093 16.2139 -8.0636
472 1 7.20619 12.6108 16.2139 -8.05745
473 3 10.8093 10.8093 14.4124 -6.31724
474 1 12.6108 12.6108 14.4124 -8.26258
475 3 12.6108 10.8093 16.2139 -6.35123
476 3 10.8093 12.6108 16.2139 -6.31772
477 2 14.4124 10.8093 14.4124 -7.06676
478 2 16.2139 12.6108 14.4124 -7.01973
479 2 16.2139 10.8093 16.2139 -7.18867
480 1 14.4124 12.6108 16.2139 -8.16326
481 3 0 14.4124 14.4124 -6.3999
482 1 1.80155 16.2139 14.4124 -8.38941
483 3 1.80155 14.4124 16.2139 -6.41929
484 1 0 16.2139 16.2139 -8.33031
485 2 3.60309 14.4124 14.4124 -7.05157
486 1 5.40464 16.2139 14.4124 -8.16488
487 1 5.40464 14.4124 16.2139 -7.92222
488 2 3.60309 16.2139 16.2139 -6.95875
489 2 7.20619 14.4124 14.4124 -7.06453
490 2 9.00773 16.2139 14.4124 -6.97053
491 3 9.00773 14.4124 16.2139 -6.47285
492 1 7.20619 16.2139 16.2139 -8.28663
493 1 10.8093 14.4124 14.4124 -8.36511
494 3 12.6108 16.2139 14.4124 -6.38262
495 2 12.6108 14.4124 16.2139 -6.96586
496 3 10.8093 16.2139 16.2139 -6.56325
497 3 14.4124 14.4124 14.4124 -6.38846
498 1 16.2139 16.2139 14.4124 -8.09056
499 2 16.2139 14.4124 16.2139 -7.09207
500 1 14.4124 16.2139 16.2139 -8.15932
501 1 0 0 18.0155 -8.37339
502 1 1.80155 1.80155 18.0155 -8.29157
503 3 1.80155 0 19.817 -6.24487
504 3 0 1.80155 19.817 -6.39219
601 1 0 0 21.6186 -8.40355
602 2 1.80155 1.80155 21.6186 -6.99154
505 1 3.60309 0 18.0155 -8.29959
506 3 5.40464 1.80155 18.0155 -6.37322
507 3 5.40464 0 19.817 -6.25751
508 1 3.60309 1.80155 19.817 -8.18374
605 1 3.60309 0 21.6186 -8.36083
606 2 5.40464 1.80155 21.6186 -6.96627
509 3 7.20619 0 18.0155 -6.32098
510 2 9.00773 1.80155 18.0155 -6.88181
511 1 9.00773 0 19.817 -8.11502
512 1 7.20619 1.80155 19.817 -8.32869
609 1 7.20619 0 21.6186 -8.15157
610 2 9.00773 1.80155 21.6186 -6.95976
513 3 10.8093 0 18.0155 -6.27583
514 1 12.6108 1.80155 18.0155 -8.51759
515 3 12.6108 0 19.817 -6.33295
516 3 10.8093 1.80155 19.817 -6.38645
613 1 10.8093 0 21.6186 -8.21207
614 2 12.6108 1.80155 21.6186 -6.87286
517 2 14.4124 0 18.0155 -6.87696
518 1 16.2139 1.80155 18.0155 -8.27243
519 3 16.2139 0 19.817 -6.28265
520 1 14.4124 1.80155 19.817 -8.19948
617 3 14.4124 0 21.6186 -6.34862
618 1 16.2139 1.80155 21.6186 -8.41848
521 2 0 3.60309 18.0155 -6.9967
522 1 1.80155 5.40464 18.0155 -8.25216
523 2 1.80155 3.60309 19.817 -7.05397
524 2 0 5.40464 19.817 -7.02694
621 1 0 3.60309 21.6186 -8.14203
622 3 1.80155 5.40464 21.6186 -6.33673
525 3 3.60309 3.60309 18.0155 -6.48756
526 2 5.40464 5.40464 18.0155 -7.1254
527 2 5.40464 3.60309 19.817 -7.04177
528 2 3.60309 5.40464 19.817 -7.04859
625 1 3.60309 3.60309 21.6186 -8.28071
626 3 5.40464 5.40464 21.6186 -6.52196
529 3 7.20619 3.60309 18.0155 -6.54055
530 2 9.00773 5.40464 18.0155 -7.01437
531 1 9.00773 3.60309 19.817 -8.19104
532 2 7.20619 5.40464 19.817 -7.1215
629 3 7.20619 3.60309 21.6186 -6.44929
630 1 9.00773 5.40464 21.6186 -8.07739
533 2 10.8093 3.60309 18.0155 -7.03988
534 2 12.6108 5.40464 18.0155 -7.08587
535 3 12.6108 3.60309 19.817 -6.45808
536 2 10.8093 5.40464 19.817 -7.0858
633 1 10.8093 3.60309 21.6186 -8.19215
634 2 12.6108 5.40464 21.6186 -7.05246
537 1 14.4124 3.60309 18.0155 -8.32423
538 3 16.2139 5.40464 18.0155 -6.54048
539 3 16.2139 3.60309 19.817 -6.39853
540 2 14.4124 5.40464 19.817 -7.03542
637 1 14.4124 3.60309 21.6186 -8.41251
638 2 16.2139 5.40464 21.6186 -6.96099
541 3 0 7.20619 18.0155 -6.42893
542 1 1.80155 9.00773 18.0155 -8.34561
543 2 1.80155 7.20619 19.817 -7.02641
544 2 0 9.00773 19.817 -6.9285
641 1 0 7.20619 21.6186 -8.11819
642 3 1.80155 9.00773 21.6186 -6.40953
545 3 3.60309 7.20619 18.0155 -6.5492
546 2 5.40464 9.00773 18.0155 -7.07322
547 2 5.40464 7.20619 19.817 -7.1189
548 2 3.60309 9.00773 19.817 -7.03437
645 1 3.60309 7.20619 21.6186 -8.1567
646 1 5.40464 9.00773 21.6186 -8.08788
549 2 7.20619 7.20619 18.0155 -7.14823
550 2 9.00773 9.00773 18.0155 -7.08116
551 1 9.00773 7.20619 19.817 -8.25287
552 2 7.20619 9.00773 19.817 -7.18663
649 2 7.20619 7.20619 21.6186 -7.08726
650 2 9.00773 9.00773 21.6186 -7.03399
553 3 10.8093 7.20619 18.0155 -6.56396
554 2 12.6108 9.00773 18.0155 -7.04243
555 3 12.6108 7.20619 19.817 -6.69844
556 3 10.8093 9.00773 19.817 -6.53003
653 1 10.8093 7.20619 21.6186 -8.18316
654 2 12.6108 9.00773 21.6186 -7.1271
557 3 14.4124 7.20619 18.0155 -6.7052
558 2 16.2139 9.00773 18.0155 -7.14905
559 1 16.2139 7.20619 19.817 -8.46
560 2 14.4124 9.00773 19.817 -7.11829
657 2 14.4124 7.20619 21.6186 -7.09081
658 2 16.2139 9.00773 21.6186 -7.0983
561 1 0 10.8093 18.0155 -8.17483
562 3 1.80155 12.6108 18.0155 -6.42688
563 3 1.80155 10.8093 19.817 -6.49653
564 1 0 12.6108 19.817 -8.28033
661 3 0 10.8093 21.6186 -6.37361
662 2 1.80155 12.6108 21.6186 -7.02397
565 3 3.60309 10.8093 18.0155 -6.51816
566 1 5.40464 12.6108 18.0155 -8.09439
567 1 5.40464 10.8093 19.817 -8.21845
568 2 3.60309 12.6108 19.817 -7.06258
665 2 3.60309 10.8093 21.6186 -7.0124
666 2 5.40464 12.6108 21.6186 -7.00128
569 3 7.20619 10.8093 18.0155 -6.52498
570 2 9.00773 12.6108 18.0155 -7.00376
571 2 9.00773 10.8093 19.817 -7.0562
572 2 7.20619 12.6108 19.817 -7.10237
669 2 7.20619 10.8093 21.6186 -7.10474
670 3 9.00773 12.6108 21.6186 -6.5495
573 1 10.8093 10.8093 18.0155 -8.18467
574 1 12.6108 12.6108 18.0155 -8.20592
575 2 12.6108 10.8093 19.817 -7.06332
576 3 10.8093 12.6108 19.817 -6.6112
673 1 10.8093 10.8093 21.6186 -8.46875
674 3 12.6108 12.6108 21.6186 -6.53043
577 1 14.4124 10.8093 18.0155 -8.11337
578 2 16.2139 12.6108 18.0155 -7.10769
579 2 16.2139 10.8093 19.817 -7.14054
580 1 14.4124 12.6108 19.817 -8.17336
677 2 14.4124 10.8093 21.6186 -7.05129
678 3 16.2139 12.6108 21.6186 -6.3837
581 3 0 14.4124 18.0155 -6.35813
582 3 1.80155 16.2139 18.0155 -6.33312
583 2 1.80155 14.4124 19.817 -6.93506
584 1 0 16.2139 19.817 -8.2019
681 3 0 14.4124 21.6186 -6.44399
682 2 1.80155 16.2139 21.6186 -7.04107
585 1 3.60309 14.4124 18.0155 -8.29843
586 2 5.40464 16.2139 18.0155 -6.98777
587 1 5.40464 14.4124 19.817 -8.24834
588 3 3.60309 16.2139 19.817 -6.39159
685 1 3.60309 14.4124 21.6186 -8.26008
686 3 5.40464 16.2139 21.6186 -6.43074
589 2 7.20619 14.4124 18.0155 -7.10581
590 3 9.00773 16.2139 18.0155 -6.6906
591 2 9.00773 14.4124 19.817 -7.15731
592 2 7.20619 16.2139 19.817 -7.07942
689 3 7.20619 14.4124 21.6186 -6.50324
690 2 9.00773 16.2139 21.6186 -7.13964
593 3 10.8093 14.4124 18.0155 -6.58541
594 1 12.6108 16.2139 18.0155 -8.32439
595 2 12.6108 14.4124 19.817 -6.99075
596 2 10.8093 16.2139 19.817 -7.1149
693 2 10.8093 14.4124 21.6186 -7.05289
694 3 12.6108 16.2139 21.6186 -6.59005
597 2 14.4124 14.4124 18.0155 -7.05689
598 1 16.2139 16.2139 18.0155 -8.07755
599 1 16.2139 14.4124 19.817 -8.27469
600 3 14.4124 16.2139 19.817 -6.41444
697 3 14.4124 14.4124 21.6186 -6.362
698 2 16.2139 16.2139 21.6186 -6.94281
603 2 1.80155 0 23.4201 -7.0292
604 1 0 1.80155 23.4201 -8.11729
701 1 0 0 25.2217 -8.24255
702 2 1.80155 1.80155 25.2217 -7.0674
607 2 5.40464 0 23.4201 -7.03478
608 3 3.60309 1.80155 23.4201 -6.45469
703 1 3.60309 0 25.2217 -8.2963
704 1 5.40464 1.80155 25.2217 -8.28598
611 3 9.00773 0 23.4201 -6.30479
612 1 7.20619 1.80155 23.4201 -8.37003
705 1 7.20619 0 25.2217 -8.03484
706 3 9.00773 1.80155 25.2217 -6.34891
615 1 12.6108 0 23.4201 -8.2908
616 1 10.8093 1.80155 23.4201 -8.36351
707 3 10.8093 0 25.2217 -6.37303
708 3 12.6108 1.80155 25.2217 -6.35537
619 3 16.2139 0 23.4201 -6.36193
620 3 14.4124 1.80155 23.4201 -6.33635
709 1 14.4124 0 25.2217 -8.43305
710 3 16.2139 1.80155 25.2217 -6.45099
623 2 1.80155 3.60309 23.4201 -7.03722
624 1 0 5.40464 23.4201 -7.93433
711 2 0 3.60309 25.2217 -7.02012
712 1 1.80155 5.40464 25.2217 -8.08272
627 3 5.40464 3.60309 23.4201 -6.33855
628 1 3.60309 5.40464 23.4201 -8.027
713 3 3.60309 3.60309 25.2217 -6.35148
714 1 5.40464 5.40464 25.2217 -8.12958
631 3 9.00773 3.60309 23.4201 -6.31415
632 2 7.20619 5.40464 23.4201 -6.94549
715 3 7.20619 3.60309 25.2217 -6.25191
716 1 9.00773 5.40464 25.2217 -8.10339
635 3 12.6108 3.60309 23.4201 -6.36471
636 1 10.8093 5.40464 23.4201 -8.12266
717 2 10.8093 3.60309 25.2217 -6.84707
718 3 12.6108 5.40464 25.2217 -6.35346
639 3 16.2139 3.60309 23.4201 -6.41995
640 2 14.4124 5.40464 23.4201 -6.94076
719 1 14.4124 3.60309 25.2217 -8.58824
720 3 16.2139 5.40464 25.2217 -6.4353
643 1 1.80155 7.20619 23.4201 -8.03942
644 3 0 9.00773 23.4201 -6.3167
721 1 0 7.20619 25.2217 -8.18503
722 3 1.80155 9.00773 25.2217 -6.23482
647 1 5.40464 7.20619 23.4201 -8.09883
648 1 3.60309 9.00773 23.4201 -8.19349
723 2 3.60309 7.20619 25.2217 -7.04506
724 3 5.40464 9.00773 25.2217 -6.32961
651 1 9.00773 7.20619 23.4201 -8.03595
652 2 7.20619 9.00773 23.4201 -7.04853
725 2 7.20619 7.20619 25.2217 -7.10394
726 1 9.00773 9.00773 25.2217 -8.03724
655 2 12.6108 7.20619 23.4201 -7.00444
656 3 10.8093 9.00773 23.4201 -6.40704
727 1 10.8093 7.20619 25.2217 -8.16115
728 3 12.6108 9.00773 25.2217 -6.379
659 3 16.2139 7.20619 23.4201 -6.50918
660 1 14.4124 9.00773 23.4201 -8.28233
729 1 14.4124 7.20619 25.2217 -8.28525
730 1 16.2139 9.00773 25.2217 -8.10256
663 1 1.80155 10.8093 23.4201 -8.33194
664 1 0 12.6108 23.4201 -8.23283
731 1 0 10.8093 25.2217 -8.25022
732 3 1.80155 12.6108 25.2217 -6.31965
667 3 5.40464 10.8093 23.4201 -6.42803
668 3 3.60309 12.6108 23.4201 -6.4539
733 3 3.60309 10.8093 25.2217 -6.25829
734 1 5.40464 12.6108 25.2217 -8.1981
671 1 9.00773 10.8093 23.4201 -8.12158
672 1 7.20619 12.6108 23.4201 -8.09931
735 2 7.20619 10.8093 25.2217 -7.0592
736 1 9.00773 12.6108 25.2217 -8.06295
675 2 12.6108 10.8093 23.4201 -7.01776
676 3 10.8093 12.6108 23.4201 -6.46199
737 2 10.8093 10.8093 25.2217 -7.00935
738 1 12.6108 12.6108 25.2217 -8.29726
679 3 16.2139 10.8093 23.4201 -6.47475
680 1 14.4124 12.6108 23.4201 -8.32676
739 2 14.4124 10.8093 25.2217 -7.0308
740 2 16.2139 12.6108 25.2217 -6.98619
683 2 1.80155 14.4124 23.4201 -7.00091
684 3 0 16.2139 23.4201 -6.57956
741 3 0 14.4124 25.2217 -6.54177
742 2 1.80155 16.2139 25.2217 -7.06987
687 1 5.40464 14.4124 23.4201 -8.21759
688 2 3.60309 16.2139 23.4201 -7.11617
743 3 3.60309 14.4124 25.2217 -6.48654
744 2 5.40464 16.2139 25.2217 -7.10524
691 1 9.00773 14.4124 23.4201 -8.20024
692 2 7.20619 16.2139 23.4201 -7.05831
745 2 7.20619 14.4124 25.2217 -7.18181
746 2 9.00773 16.2139 25.2217 -7.09383
695 3 12.6108 14.4124 23.4201 -6.42909
696 1 10.8093 16.2139 23.4201 -8.42563
747 3 10.8093 14.4124 25.2217 -6.41516
748 2 12.6108 16.2139 25.2217 -6.95495
699 1 16.2139 14.4124 23.4201 -8.18734
700 1 14.4124 16.2139 23.4201 -8.35911
749 3 14.4124 14.4124 25.2217 -6.28876
750 1 16.2139 16.2139 25.2217 -8.10823
751 3 1.80155 0 27.0232 -6.39347
752 2 0 1.80155 27.0232 -7.08936
801 1 0 0 28.8247 -8.38241
802 2 1.80155 1.80155 28.8247 -6.97149
803 3 1.80155 0 30.6263 -6.44145
804 3 0 1.80155 30.6263 -6.49155
753 1 5.40464 0 27.0232 -8.04787
754 2 3.60309 1.80155 27.0232 -7.03148
805 1 3.60309 0 28.8247 -8.14838
806 1 5.40464 1.80155 28.8247 -8.29414
807 1 5.40464 0 30.6263 -8.08874
808 3 3.60309 1.80155 30.6263 -6.33978
755 1 9.00773 0 27.0232 -8.28588
756 2 7.20619 1.80155 27.0232 -6.93066
809 3 7.20619 0 28.8247 -6.28622
810 3 9.00773 1.80155 28.8247 -6.35279
811 3 9.00773 0 30.6263 -6.39197
812 1 7.20619 1.80155 30.6263 -8.14633
757 3 12.6108 0 27.0232 -6.45281
758 3 10.8093 1.80155 27.0232 -6.4458
813 2 10.8093 0 28.8247 -6.88209
814 2 12.6108 1.80155 28.8247 -6.97727
815 1 12.6108 0 30.6263 -8.29843
816 3 10.8093 1.80155 30.6263 -6.45185
759 2 16.2139 0 27.0232 -6.94479
760 1 14.4124 1.80155 27.0232 -8.38165
817 3 14.4124 0 28.8247 -6.43551
818 3 16.2139 1.80155 28.8247 -6.42227
819 1 16.2139 0 30.6263 -8.38282
820 1 14.4124 1.80155 30.6263 -8.28327
761 3 1.80155 3.60309 27.0232 -6.57582
762 3 0 5.40464 27.0232 -6.53169
821 2 0 3.60309 28.8247 -7.08778
822 2 1.80155 5.40464 28.8247 -6.93825
823 1 1.80155 3.60309 30.6263 -8.54445
824 2 0 5.40464 30.6263 -7.18459
763 3 5.40464 3.60309 27.0232 -6.26259
764 1 3.60309 5.40464 27.0232 -8.17504
825 3 3.60309 3.60309 28.8247 -6.42243
826 1 5.40464 5.40464 28.8247 -8.39883
827 3 5.40464 3.60309 30.6263 -6.35572
828 3 3.60309 5.40464 30.6263 -6.5336
765 1 9.00773 3.60309 27.0232 -8.24149
766 1 7.20619 5.40464 27.0232 -8.09988
829 2 7.20619 3.60309 28.8247 -6.99909
830 1 9.00773 5.40464 28.8247 -8.12523
831 1 9.00773 3.60309 30.6263 -7.96262
832 2 7.20619 5.40464 30.6263 -6.9814
767 3 12.6108 3.60309 27.0232 -6.39447
768 3 10.8093 5.40464 27.0232 -6.27158
833 1 10.8093 3.60309 28.8247 -8.25998
834 1 12.6108 5.40464 28.8247 -8.21878
835 2 12.6108 3.60309 30.6263 -7.06803