ITEM: TIMESTEP
0
ITEM: NUMBER OF ATOMS
4000
ITEM: BOX BOUNDS pp pp pp
0.0000000000000000e+00 3.6167240000000000e+01
0.0000000000000000e+00 3.6167240000000000e+01
0.0000000000000000e+00 3.6167240000000000e+01
ITEM: ATOMS id type x y z c_peratom
1 2 0 0 0 -7.03058
2 2 1.80836 1.80836 0 -7.10344
3 1 1.80836 0 1.80836 -7.97613
4 2 0 1.80836 1.80836 -7.05968
101 2 0 0 3.61672 -7.0291
102 1 1.80836 1.80836 3.61672 -8.21539
5 2 3.61672 0 0 -7.04338
6 2 5.42509 1.80836 0 -7.11651
7 3 5.42509 0 1.80836 -6.5056
8 1 3.61672 1.80836 1.80836 -8.2904
105 2 3.61672 0 3.61672 -7.00164
106 3 5.42509 1.80836 3.61672 -6.42248
9 2 7.23345 0 0 -7.09357
10 2 9.04181 1.80836 0 -7.20409
11 2 9.04181 0 1.80836 -7.15875
12 2 7.23345 1.80836 1.80836 -7.07086
109 1 7.23345 0 3.61672 -8.3164
110 2 9.04181 1.80836 3.61672 -6.94264
13 1 10.8502 0 0 -8.01193
14 3 12.6585 1.80836 0 -6.61206
15 1 12.6585 0 1.80836 -8.07381
16 1 10.8502 1.80836 1.80836 -8.09379
113 1 10.8502 0 3.61672 -8.10455
114 3 12.6585 1.80836 3.61672 -6.47008
17 2 14.4669 0 0 -7.17709
18 2 16.2753 1.80836 0 -7.09724
19 2 16.2753 0 1.80836 -7.08341
20 2 14.4669 1.80836 1.80836 -7.0408
117 2 14.4669 0 3.61672 -7.11079
118 1 16.2753 1.80836 3.61672 -8.08266
21 1 0 3.61672 0 -8.14233
22 1 1.80836 5.42509 0 -8.0068
23 2 1.80836 3.61672 1.80836 -7.08815
24 1 0 5.42509 1.80836 -8.01843
121 3 0 3.61672 3.61672 -6.35761
122 2 1.80836 5.42509 3.61672 -7.04993
25 2 3.61672 3.61672 0 -7.04126
26 3 5.42509 5.42509 0 -6.61895
27 3 5.42509 3.61672 1.80836 -6.48707
28 1 3.61672 5.42509 1.80836 -8.23971
125 2 3.61672 3.61672 3.61672 -7.03227
126 1 5.42509 5.42509 3.61672 -8.09852
29 1 7.23345 3.61672 0 -8.41329
30 2 9.04181 5.42509 0 -7.06828
31 2 9.04181 3.61672 1.80836 -7.11231
32 3 7.23345 5.42509 1.80836 -6.51144
129 1 7.23345 3.61672 3.61672 -8.28424
130 1 9.04181 5.42509 3.61672 -8.21503
33 2 10.8502 3.61672 0 -7.0864
34 3 12.6585 5.42509 0 -6.65272
35 2 12.6585 3.61672 1.80836 -6.94385
36 1 10.8502 5.42509 1.80836 -8.1632
133 1 10.8502 3.61672 3.61672 -8.1341
134 3 12.6585 5.42509 3.61672 -6.4343
37 1 14.4669 3.61672 0 -8.31635
38 2 16.2753 5.42509 0 -6.99366
39 1 16.2753 3.61672 1.80836 -8.11942
40 2 14.4669 5.42509 1.80836 -7.01561
137 3 14.4669 3.61672 3.61672 -6.44444
138 1 16.2753 5.42509 3.61672 -7.99025
41 1 0 7.23345 0 -7.95236
42 1 1.80836 9.04181 0 -8.07444
43 2 1.80836 7.23345 1.80836 -7.12083
44 2 0 9.04181 1.80836 -6.9987
141 1 0 7.23345 3.61672 -7.9808
142 3 1.80836 9.04181 3.61672 -6.37557
45 2 3.61672 7.23345 0 -7.07806
46 2 5.42509 9.04181 0 -7.03166
47 3 5.42509 7.23345 1.80836 -6.5796
48 2 3.61672 9.04181 1.80836 -7.02252
145 2 3.61672 7.23345 3.61672 -7.0817
146 1 5.42509 9.04181 3.61672 -8.27907
49 2 7.23345 7.23345 0 -7.05058
50 1 9.04181 9.04181 0 -8.16171
51 3 9.04181 7.23345 1.80836 -6.48558
52 2 7.23345 9.04181 1.80836 -7.02151
149 2 7.23345 7.23345 3.61672 -6.98744
150 1 9.04181 9.04181 3.61672 -8.21414
53 3 10.8502 7.23345 0 -6.57558
54 3 12.6585 9.04181 0 -6.55376
55 1 12.6585 7.23345 1.80836 -8.40846
56 2 10.8502 9.04181 1.80836 -7.0123
153 2 10.8502 7.23345 3.61672 -7.01327
154 3 12.6585 9.04181 3.61672 -6.61042
57 2 14.4669 7.23345 0 -7.01254
58 1 16.2753 9.04181 0 -8.37593
59 1 16.2753 7.23345 1.80836 -8.25046
60 3 14.4669 9.04181 1.80836 -6.57457
157 2 14.4669 7.23345 3.61672 -7.06667
158 3 16.2753 9.04181 3.61672 -6.56233
61 2 0 10.8502 0 -6.96407
62 2 1.80836 12.6585 0 -7.01947
63 1 1.80836 10.8502 1.80836 -8.27766
64 1 0 12.6585 1.80836 -8.17123
161 3 0 10.8502 3.61672 -6.3596
162 2 1.80836 12.6585 3.61672 -6.99547
65 3 3.61672 10.8502 0 -6.49797
66 2 5.42509 12.6585 0 -7.04584
67 3 5.42509 10.8502 1.80836 -6.50604
68 3 3.61672 12.6585 1.80836 -6.514
165 3 3.61672 10.8502 3.61672 -6.35408
166 3 5.42509 12.6585 3.61672 -6.29672
69 1 7.23345 10.8502 0 -8.0398
70 2 9.04181 12.6585 0 -7.068
71 2 9.04181 10.8502 1.80836 -7.12259
72 1 7.23345 12.6585 1.80836 -8.31527
169 1 7.23345 10.8502 3.61672 -8.10975
170 2 9.04181 12.6585 3.61672 -6.92577
73 1 10.8502 10.8502 0 -8.06348
74 1 12.6585 12.6585 0 -8.17662
75 2 12.6585 10.8502 1.80836 -6.99889
76 1 10.8502 12.6585 1.80836 -8.28164
173 2 10.8502 10.8502 3.61672 -7.02167
174 3 12.6585 12.6585 3.61672 -6.49644
77 2 14.4669 10.8502 0 -6.91018
78 1 16.2753 12.6585 0 -8.52431
79 2 16.2753 10.8502 1.80836 -6.93434
80 3 14.4669 12.6585 1.80836 -6.52149
177 3 14.4669 10.8502 3.61672 -6.62289
178 3 16.2753 12.6585 3.61672 -6.54893
81 1 0 14.4669 0 -8.12448
82 1 1.80836 16.2753 0 -7.98704
83 3 1.80836 14.4669 1.80836 -6.44373
84 1 0 16.2753 1.80836 -8.16291
181 2 0 14.4669 3.61672 -7.00874
182 2 1.80836 16.2753 3.61672 -6.91915
85 2 3.61672 14.4669 0 -7.04501
86 3 5.42509 16.2753 0 -6.58256
87 3 5.42509 14.4669 1.80836 -6.52401
88 3 3.61672 16.2753 1.80836 -6.44398
185 1 3.61672 14.4669 3.61672 -8.25404
186 1 5.42509 16.2753 3.61672 -8.32025
89 2 7.23345 14.4669 0 -7.07933
90 2 9.04181 16.2753 0 -6.96576
91 3 9.04181 14.4669 1.80836 -6.52229
92 2 7.23345 16.2753 1.80836 -6.9735
189 3 7.23345 14.4669 3.61672 -6.3576
190 1 9.04181 16.2753 3.61672 -8.23742
93 2 10.8502 14.4669 0 -6.99693
94 2 12.6585 16.2753 0 -6.95162
95 3 12.6585 14.4669 1.80836 -6.40212
96 3 10.8502 16.2753 1.80836 -6.48086
193 3 10.8502 14.4669 3.61672 -6.36551
194 1 12.6585 16.2753 3.61672 -8.13133
97 2 14.4669 14.4669 0 -6.90838
98 3 16.2753 16.2753 0 -6.4471
99 3 16.2753 14.4669 1.80836 -6.47276
100 1 14.4669 16.2753 1.80836 -8.33293
197 1 14.4669 14.4669 3.61672 -8.37739
198 3 16.2753 16.2753 3.61672 -6.52582
103 3 1.80836 0 5.42509 -6.39558
104 2 0 1.80836 5.42509 -7.01287
201 1 0 0 7.23345 -8.16032
202 2 1.80836 1.80836 7.23345 -6.97338
107 3 5.42509 0 5.42509 -6.38542
108 3 3.61672 1.80836 5.42509 -6.36932
203 1 3.61672 0 7.23345 -8.16931
204 1 5.42509 1.80836 7.23345 -8.33243
111 3 9.04181 0 5.42509 -6.29093
112 3 7.23345 1.80836 5.42509 -6.34916
205 3 7.23345 0 7.23345 -6.35453
206 1 9.04181 1.80836 7.23345 -8.48027
115 2 12.6585 0 5.42509 -7.04618
116 3 10.8502 1.80836 5.42509 -6.36848
207 3 10.8502 0 7.23345 -6.33111
208 2 12.6585 1.80836 7.23345 -7.0124
119 2 16.2753 0 5.42509 -7.12097
120 2 14.4669 1.80836 5.42509 -7.11815
209 2 14.4669 0 7.23345 -7.1206
210 2 16.2753 1.80836 7.23345 -7.09619
123 1 1.80836 3.61672 5.42509 -8.09062
124 1 0 5.42509 5.42509 -7.98167
211 1 0 3.61672 7.23345 -8.21227
212 2 1.80836 5.42509 7.23345 -7.10907
127 1 5.42509 3.61672 5.42509 -8.11258
128 1 3.61672 5.42509 5.42509 -7.9037
213 3 3.61672 3.61672 7.23345 -6.4027
214 1 5.42509 5.42509 7.23345 -8.25533
131 3 9.04181 3.61672 5.42509 -6.29368
132 3 7.23345 5.42509 5.42509 -6.43542
215 3 7.23345 3.61672 7.23345 -6.37855
216 3 9.04181 5.42509 7.23345 -6.51545
135 1 12.6585 3.61672 5.42509 -8.13207
136 3 10.8502 5.42509 5.42509 -6.41842
217 1 10.8502 3.61672 7.23345 -8.15737
218 1 12.6585 5.42509 7.23345 -8.17741
139 2 16.2753 3.61672 5.42509 -7.03962
140 1 14.4669 5.42509 5.42509 -8.1166
219 1 14.4669 3.61672 7.23345 -8.18013
220 2 16.2753 5.42509 7.23345 -7.10641
143 1 1.80836 7.23345 5.42509 -8.00118
144 1 0 9.04181 5.42509 -8.10367
221 1 0 7.23345 7.23345 -8.19835
222 2 1.80836 9.04181 7.23345 -7.01603
147 2 5.42509 7.23345 5.42509 -7.04807
148 3 3.61672 9.04181 5.42509 -6.40939
223 1 3.61672 7.23345 7.23345 -8.11694
224 2 5.42509 9.04181 7.23345 -7.08584
151 2 9.04181 7.23345 5.42509 -7.09249
152 2 7.23345 9.04181 5.42509 -7.1626
225 2 7.23345 7.23345 7.23345 -7.11282
226 2 9.04181 9.04181 7.23345 -7.06251
155 2 12.6585 7.23345 5.42509 -7.03276
156 1 10.8502 9.04181 5.42509 -8.25024
227 3 10.8502 7.23345 7.23345 -6.52205
228 2 12.6585 9.04181 7.23345 -7.08045
159 2 16.2753 7.23345 5.42509 -7.069
160 2 14.4669 9.04181 5.42509 -7.12539
229 2 14.4669 7.23345 7.23345 -7.17111
230 2 16.2753 9.04181 7.23345 -7.16963
163 1 1.80836 10.8502 5.42509 -8.18805
164 1 0 12.6585 5.42509 -8.11396
231 3 0 10.8502 7.23345 -6.33415
232 1 1.80836 12.6585 7.23345 -8.06236
167 1 5.42509 10.8502 5.42509 -8.07503
168 1 3.61672 12.6585 5.42509 -7.9128
233 2 3.61672 10.8502 7.23345 -7.11258
234 1 5.42509 12.6585 7.23345 -7.99611
171 3 9.04181 10.8502 5.42509 -6.47535
172 3 7.23345 12.6585 5.42509 -6.36277
235 2 7.23345 10.8502 7.23345 -7.18213
236 1 9.04181 12.6585 7.23345 -8.28898
175 1 12.6585 10.8502 5.42509 -8.27185
176 1 10.8502 12.6585 5.42509 -8.24848
237 3 10.8502 10.8502 7.23345 -6.48863
238 2 12.6585 12.6585 7.23345 -7.02719
179 2 16.2753 10.8502 5.42509 -7.02082
180 2 14.4669 12.6585 5.42509 -6.97217
239 2 14.4669 10.8502 7.23345 -7.14121
240 3 16.2753 12.6585 7.23345 -6.40999
183 1 1.80836 14.4669 5.42509 -7.97469
184 1 0 16.2753 5.42509 -8.1458
241 3 0 14.4669 7.23345 -6.3224
242 1 1.80836 16.2753 7.23345 -8.21019
187 1 5.42509 14.4669 5.42509 -8.18961
188 3 3.61672 16.2753 5.42509 -6.39062
243 2 3.61672 14.4669 7.23345 -7.11233
244 3 5.42509 16.2753 7.23345 -6.40035
191 1 9.04181 14.4669 5.42509 -8.20536
192 3 7.23345 16.2753 5.42509 -6.3275
245 2 7.23345 14.4669 7.23345 -7.01235
246 3 9.04181 16.2753 7.23345 -6.35847
195 2 12.6585 14.4669 5.42509 -6.94891
196 1 10.8502 16.2753 5.42509 -8.19548
247 3 10.8502 14.4669 7.23345 -6.415
248 3 12.6585 16.2753 7.23345 -6.4034
199 3 16.2753 14.4669 5.42509 -6.39827
200 2 14.4669 16.2753 5.42509 -6.96855
249 1 14.4669 14.4669 7.23345 -8.46244
250 3 16.2753 16.2753 7.23345 -6.42667
251 1 1.80836 0 9.04181 -8.2464
252 3 0 1.80836 9.04181 -6.4046
301 3 0 0 10.8502 -6.49227
302 3 1.80836 1.80836 10.8502 -6.6089
303 2 1.80836 0 12.6585 -7.01753
304 2 0 1.80836 12.6585 -7.07783
253 3 5.42509 0 9.04181 -6.52319
254 1 3.61672 1.80836 9.04181 -8.20803
305 2 3.61672 0 10.8502 -6.98218
306 2 5.42509 1.80836 10.8502 -7.01519
307 1 5.42509 0 12.6585 -8.01686
308 2 3.61672 1.80836 12.6585 -7.06727
255 3 9.04181 0 9.04181 -6.26188
256 3 7.23345 1.80836 9.04181 -6.4245
309 2 7.23345 0 10.8502 -7.08367
310 1 9.04181 1.80836 10.8502 -8.10067
311 1 9.04181 0 12.6585 -8.02201
312 1 7.23345 1.80836 12.6585 -8.0278
257 1 12.6585 0 9.04181 -8.27019
258 1 10.8502 1.80836 9.04181 -7.91643
313 1 10.8502 0 10.8502 -8.00329
314 1 12.6585 1.80836 10.8502 -7.9261
315 2 12.6585 0 12.6585 -6.96348
316 1 10.8502 1.80836 12.6585 -8.1156
259 3 16.2753 0 9.04181 -6.55901
260 3 14.4669 1.80836 9.04181 -6.50734
317 2 14.4669 0 10.8502 -6.89908
318 3 16.2753 1.80836 10.8502 -6.35945
319 1 16.2753 0 12.6585 -8.1558
320 1 14.4669 1.80836 12.6585 -8.1301
261 2 1.80836 3.61672 9.04181 -7.03234
262 2 0 5.42509 9.04181 -7.02537
321 2 0 3.61672 10.8502 -7.01562
322 1 1.80836 5.42509 10.8502 -8.34414
323 2 1.80836 3.61672 12.6585 -7.0586
324 3 0 5.42509 12.6585 -6.55462
263 2 5.42509 3.61672 9.04181 -6.98143
264 2 3.61672 5.42509 9.04181 -6.97849
325 3 3.61672 3.61672 10.8502 -6.57993
326 3 5.42509 5.42509 10.8502 -6.51562
327 1 5.42509 3.61672 12.6585 -8.15302
328 3 3.61672 5.42509 12.6585 -6.50244
265 3 9.04181 3.61672 9.04181 -6.41987
266 3 7.23345 5.42509 9.04181 -6.54113
329 2 7.23345 3.61672 10.8502 -7.08121
330 2 9.04181 5.42509 10.8502 -7.04222
331 2 9.04181 3.61672 12.6585 -7.00146
332 1 7.23345 5.42509 12.6585 -8.3542
267 2 12.6585 3.61672 9.04181 -7.08683
268 2 10.8502 5.42509 9.04181 -6.97937
333 1 10.8502 3.61672 10.8502 -8.04749
334 2 12.6585 5.42509 10.8502 -7.07538
335 2 12.6585 3.61672 12.6585 -7.04146
336 1 10.8502 5.42509 12.6585 -8.22548
269 2 16.2753 3.61672 9.04181 -7.03134
270 2 14.4669 5.42509 9.04181 -7.06627
337 1 14.4669 3.61672 10.8502 -8.13399
338 1 16.2753 5.42509 10.8502 -8.15524
339 3 16.2753 3.61672 12.6585 -6.35314
340 1 14.4669 5.42509 12.6585 -8.08004
271 3 1.80836 7.23345 9.04181 -6.39014
272 1 0 9.04181 9.04181 -8.50776
341 2 0 7.23345 10.8502 -6.93476
342 3 1.80836 9.04181 10.8502 -6.46107
343 2 1.80836 7.23345 12.6585 -7.04909
344 1 0 9.04181 12.6585 -8.45168
273 3 5.42509 7.23345 9.04181 -6.48337
274 1 3.61672 9.04181 9.04181 -8.21854
345 1 3.61672 7.23345 10.8502 -8.17141
346 1 5.42509 9.04181 10.8502 -8.14847
347 2 5.42509 7.23345 12.6585 -7.03332
348 2 3.61672 9.04181 12.6585 -7.01423
275 1 9.04181 7.23345 9.04181 -8.24444
276 2 7.23345 9.04181 9.04181 -7.10864
349 3 7.23345 7.23345 10.8502 -6.48164
350 1 9.04181 9.04181 10.8502 -8.05342
351 2 9.04181 7.23345 12.6585 -6.97836
352 1 7.23345 9.04181 12.6585 -8.18618
277 3 12.6585 7.23345 9.04181 -6.53274
278 1 10.8502 9.04181 9.04181 -8.27982
353 1 10.8502 7.23345 10.8502 -7.9763
354 2 12.6585 9.04181 10.8502 -7.02265
355 1 12.6585 7.23345 12.6585 -8.11204
356 2 10.8502 9.04181 12.6585 -7.00646
279 3 16.2753 7.23345 9.04181 -6.69822
280 2 14.4669 9.04181 9.04181 -7.16217
357 1 14.4669 7.23345 10.8502 -8.2117
358 2 16.2753 9.04181 10.8502 -7.08162
359 3 16.2753 7.23345 12.6585 -6.46649
360 3 14.4669 9.04181 12.6585 -6.52764
281 3 1.80836 10.8502 9.04181 -6.35497
282 2 0 12.6585 9.04181 -6.87859
361 3 0 10.8502 10.8502 -6.50219
362 1 1.80836 12.6585 10.8502 -8.26869
363 2 1.80836 10.8502 12.6585 -7.10166
364 2 0 12.6585 12.6585 -7.03645
283 2 5.42509 10.8502 9.04181 -7.13662
284 1 3.61672 12.6585 9.04181 -8.05182
365 3 3.61672 10.8502 10.8502 -6.53108
366 2 5.42509 12.6585 10.8502 -7.09474
367 2 5.42509 10.8502 12.6585 -7.14143
368 2 3.61672 12.6585 12.6585 -7.14253
285 2 9.04181 10.8502 9.04181 -7.0833
286 2 7.23345 12.6585 9.04181 -7.14783
369 2 7.23345 10.8502 10.8502 -7.1874
370 1 9.04181 12.6585 10.8502 -8.21815
371 1 9.04181 10.8502 12.6585 -8.06447
372 2 7.23345 12.6585 12.6585 -7.04655
287 3 12.6585 10.8502 9.04181 -6.63295
288 2 10.8502 12.6585 9.04181 -6.9463
373 3 10.8502 10.8502 10.8502 -6.44632
374 1 12.6585 12.6585 10.8502 -8.24658
375 1 12.6585 10.8502 12.6585 -8.2741
376 2 10.8502 12.6585 12.6585 -7.04609
289 3 16.2753 10.8502 9.04181 -6.6595
290 3 14.4669 12.6585 9.04181 -6.50714
377 2 14.4669 10.8502 10.8502 -7.10236
378 2 16.2753 12.6585 10.8502 -7.10175
379 2 16.2753 10.8502 12.6585 -7.0667
380 2 14.4669 12.6585 12.6585 -7.13891
291 1 1.80836 14.4669 9.04181 -8.13501
292 3 0 16.2753 9.04181 -6.48127
381 3 0 14.4669 10.8502 -6.48347
382 2 1.80836 16.2753 10.8502 -7.02611
383 2 1.80836 14.4669 12.6585 -7.1281
384 1 0 16.2753 12.6585 -8.05014
293 1 5.42509 14.4669 9.04181 -8.04041
294 2 3.61672 16.2753 9.04181 -7.07103
385 2 3.61672 14.4669 10.8502 -7.11525
386 1 5.42509 16.2753 10.8502 -7.98904
387 3 5.42509 14.4669 12.6585 -6.46631
388 2 3.61672 16.2753 12.6585 -7.02962
295 2 9.04181 14.4669 9.04181 -7.00653
296 2 7.23345 16.2753 9.04181 -6.98862
389 1 7.23345 14.4669 10.8502 -8.0858
390 3 9.04181 16.2753 10.8502 -6.44741
391 3 9.04181 14.4669 12.6585 -6.42653
392 1 7.23345 16.2753 12.6585 -8.17092
297 3 12.6585 14.4669 9.04181 -6.39679
298 1 10.8502 16.2753 9.04181 -8.29119
393 3 10.8502 14.4669 10.8502 -6.37854
394 1 12.6585 16.2753 10.8502 -7.96466
395 1 12.6585 14.4669 12.6585 -8.12689
396 3 10.8502 16.2753 12.6585 -6.40638
299 1 16.2753 14.4669 9.04181 -8.10493
300 3 14.4669 16.2753 9.04181 -6.32184
397 1 14.4669 14.4669 10.8502 -8.1135
398 3 16.2753 16.2753 10.8502 -6.31132
399 2 16.2753 14.4669 12.6585 -6.95624
400 1 14.4669 16.2753 12.6585 -8.00601
401 1 0 0 14.4669 -8.30605
402 2 1.80836 1.80836 14.4669 -7.10489
403 2 1.80836 0 16.2753 -7.03247
404 3 0 1.80836 16.2753 -6.45119
405 3 3.61672 0 14.4669 -6.48619
406 1 5.42509 1.80836 14.4669 -7.88163
407 1 5.42509 0 16.2753 -7.9823
408 2 3.61672 1.80836 16.2753 -7.0712
409 2 7.23345 0 14.4669 -7.19345
410 2 9.04181 1.80836 14.4669 -7.01557
411 1 9.04181 0 16.2753 -8.0987
412 1 7.23345 1.80836 16.2753 -8.04588
413 3 10.8502 0 14.4669 -6.36971
414 3 12.6585 1.80836 14.4669 -6.33479
415 3 12.6585 0 16.2753 -6.40215
416 1 10.8502 1.80836 16.2753 -8.07798
417 1 14.4669 0 14.4669 -8.24712
418 3 16.2753 1.80836 14.4669 -6.45397
419 3 16.2753 0 16.2753 -6.67639
420 3 14.4669 1.80836 16.2753 -6.49061
421 3 0 3.61672 14.4669 -6.55884
422 2 1.80836 5.42509 14.4669 -7.1059
423 2 1.80836 3.61672 16.2753 -7.0779
424 1 0 5.42509 16.2753 -8.17473
425 1 3.61672 3.61672 14.4669 -8.08046
426 2 5.42509 5.42509 14.4669 -7.07616
427 1 5.42509 3.61672 16.2753 -8.08244
428 2 3.61672 5.42509 16.2753 -7.17055
429 3 7.23345 3.61672 14.4669 -6.27563
430 3 9.04181 5.42509 14.4669 -6.32137
431 1 9.04181 3.61672 16.2753 -8.13381
432 1 7.23345 5.42509 16.2753 -8.27895
433 3 10.8502 3.61672 14.4669 -6.26697
434 3 12.6585 5.42509 14.4669 -6.33795
435 1 12.6585 3.61672 16.2753 -8.23093
436 1 10.8502 5.42509 16.2753 -8.18613
437 2 14.4669 3.61672 14.4669 -6.97935
438 1 16.2753 5.42509 14.4669 -8.26926
439 2 16.2753 3.61672 16.2753 -7.0588
440 2 14.4669 5.42509 16.2753 -7.06296
441 3 0 7.23345 14.4669 -6.46168
442 3 1.80836 9.04181 14.4669 -6.54913
443 2 1.80836 7.23345 16.2753 -7.1507
444 1 0 9.04181 16.2753 -8.2376
445 1 3.61672 7.23345 14.4669 -8.31705
446 2 5.42509 9.04181 14.4669 -7.10373
447 2 5.42509 7.23345 16.2753 -7.11245
448 2 3.61672 9.04181 16.2753 -7.07325
449 3 7.23345 7.23345 14.4669 -6.50615
450 2 9.04181 9.04181 14.4669 -7.0892
451 2 9.04181 7.23345 16.2753 -6.93187
452 1 7.23345 9.04181 16.2753 -8.35116
453 3 10.8502 7.23345 14.4669 -6.47386
454 3 12.6585 9.04181 14.4669 -6.51262
455 1 12.6585 7.23345 16.2753 -8.2473
456 2 10.8502 9.04181 16.2753 -7.05111
457 2 14.4669 7.23345 14.4669 -6.98643
458 1 16.2753 9.04181 14.4669 -8.36505
459 3 16.2753 7.23345 16.2753 -6.44176
460 1 14.4669 9.04181 16.2753 -8.14307
461 2 0 10.8502 14.4669 -6.96721
462 2 1.80836 12.6585 14.4669 -7.08446
463 3 1.80836 10.8502 16.2753 -6.4827
464 1 0 12.6585 16.2753 -8.21944
465 1 3.61672 10.8502 14.4669 -8.24752
466 2 5.42509 12.6585 14.4669 -7.01723
467 1 5.42509 10.8502 16.2753 -8.07058
468 3 3.61672 12.6585 16.2753 -6.36514
469 3 7.23345 10.8502 14.4669 -6.48545
470 1 9.04181 12.6585 14.4669 -8.26271
471 2 9.04181 10.8502 16.2753 -7.0127
472 1 7.23345 12.6585 16.2753 -8.2135
473 2 10.8502 10.8502 14.4669 -7.19509
474 2 12.6585 12.6585 14.4669 -7.09906
475 3 12.6585 10.8502 16.2753 -6.6781
476 2 10.8502 12.6585 16.2753 -7.09306
477 2 14.4669 10.8502 14.4669 -7.03534
478 3 16.2753 12.6585 14.4669 -6.46963
479 1 16.2753 10.8502 16.2753 -8.25202
480 3 14.4669 12.6585 16.2753 -6.48652
481 2 0 14.4669 14.4669 -7.04267
482 1 1.80836 16.2753 14.4669 -8.02529
483 2 1.80836 14.4669 16.2753 -7.01311
484 3 0 16.2753 16.2753 -6.29374
485 1 3.61672 14.4669 14.4669 -8.25216
486 1 5.42509 16.2753 14.4669 -8.22968
487 3 5.42509 14.4669 16.2753 -6.36165
488 3 3.61672 16.2753 16.2753 -6.27555
489 3 7.23345 14.4669 14.4669 -6.37761
490 1 9.04181 16.2753 14.4669 -8.31341
491 2 9.04181 14.4669 16.2753 -7.00384
492 3 7.23345 16.2753 16.2753 -6.40579
493 2 10.8502 14.4669 14.4669 -7.13278
494 2 12.6585 16.2753 14.4669 -6.98435
495 1 12.6585 14.4669 16.2753 -8.31176
496 2 10.8502 16.2753 16.2753 -7.05843
497 2 14.4669 14.4669 14.4669 -7.00205
498 3 16.2753 16.2753 14.4669 -6.49761
499 1 16.2753 14.4669 16.2753 -8.39638
500 3 14.4669 16.2753 16.2753 -6.51526
501 3 0 0 18.0836 -6.4118
502 1 1.80836 1.80836 18.0836 -8.43408
503 3 1.80836 0 19.892 -6.3683
504 3 0 1.80836 19.892 -6.41366
601 1 0 0 21.7003 -8.39436
602 2 1.80836 1.80836 21.7003 -6.95648
505 1 3.61672 0 18.0836 -8.06215
506 3 5.42509 1.80836 18.0836 -6.45545
507 1 5.42509 0 19.892 -8.20916
508 3 3.61672 1.80836 19.892 -6.51093
605 3 3.61672 0 21.7003 -6.47238
606 1 5.42509 1.80836 21.7003 -8.16239
509 2 7.23345 0 18.0836 -6.90871
510 3 9.04181 1.80836 18.0836 -6.34728
511 1 9.04181 0 19.892 -8.24366
512 3 7.23345 1.80836 19.892 -6.50885
609 1 7.23345 0 21.7003 -8.19591
610 3 9.04181 1.80836 21.7003 -6.53405
513 1 10.8502 0 18.0836 -8.02337
514 1 12.6585 1.80836 18.0836 -8.04859
515 1 12.6585 0 19.892 -8.13294
516 2 10.8502 1.80836 19.892 -7.06712
613 3 10.8502 0 21.7003 -6.4704
614 1 12.6585 1.80836 21.7003 -8.12246
517 3 14.4669 0 18.0836 -6.61578
518 2 16.2753 1.80836 18.0836 -7.06317
519 2 16.2753 0 19.892 -7.00696
520 2 14.4669 1.80836 19.892 -7.07293
617 1 14.4669 0 21.7003 -8.0666
618 3 16.2753 1.80836 21.7003 -6.435
521 3 0 3.61672 18.0836 -6.36226
522 2 1.80836 5.42509 18.0836 -7.12382
523 3 1.80836 3.61672 19.892 -6.61544
524 1 0 5.42509 19.892 -8.25629
621 3 0 3.61672 21.7003 -6.54698
622 2 1.80836 5.42509 21.7003 -7.01119
525 2 3.61672 3.61672 18.0836 -7.1322
526 2 5.42509 5.42509 18.0836 -7.20602
527 2 5.42509 3.61672 19.892 -7.12571
528 2 3.61672 5.42509 19.892 -7.1882
625 2 3.61672 3.61672 21.7003 -7.07828
626 3 5.42509 5.42509 21.7003 -6.70533
529 2 7.23345 3.61672 18.0836 -7.08436
530 3 9.04181 5.42509 18.0836 -6.46553
531 2 9.04181 3.61672 19.892 -7.05539
532 2 7.23345 5.42509 19.892 -7.11018
629 2 7.23345 3.61672 21.7003 -7.01037
630 2 9.04181 5.42509 21.7003 -7.05719
533 1 10.8502 3.61672 18.0836 -8.03718
534 2 12.6585 5.42509 18.0836 -7.12192
535 1 12.6585 3.61672 19.892 -8.12117
536 2 10.8502 5.42509 19.892 -7.08874
633 1 10.8502 3.61672 21.7003 -8.24747
634 2 12.6585 5.42509 21.7003 -7.04566
537 3 14.4669 3.61672 18.0836 -6.51778
538 2 16.2753 5.42509 18.0836 -7.07672
539 1 16.2753 3.61672 19.892 -8.37513
540 3 14.4669 5.42509 19.892 -6.59757
637 2 14.4669 3.61672 21.7003 -6.99023
638 2 16.2753 5.42509 21.7003 -7.00474
541 2 0 7.23345 18.0836 -7.14673
542 2 1.80836 9.04181 18.0836 -7.12268
543 3 1.80836 7.23345 19.892 -6.75117
544 2 0 9.04181 19.892 -7.04079
641 3 0 7.23345 21.7003 -6.47066
642 2 1.80836 9.04181 21.7003 -7.05052
545 2 3.61672 7.23345 18.0836 -7.26273
546 2 5.42509 9.04181 18.0836 -7.0808
547 3 5.42509 7.23345 19.892 -6.74086
548 2 3.61672 9.04181 19.892 -7.1486
645 3 3.61672 7.23345 21.7003 -6.71073
646 2 5.42509 9.04181 21.7003 -7.05499
549 3 7.23345 7.23345 18.0836 -6.5817
550 3 9.04181 9.04181 18.0836 -6.48291
551 1 9.04181 7.23345 19.892 -8.20622
552 3 7.23345 9.04181 19.892 -6.48225
649 1 7.23345 7.23345 21.7003 -8.31017
650 1 9.04181 9.04181 21.7003 -8.2142
553 2 10.8502 7.23345 18.0836 -7.04756
554 2 12.6585 9.04181 18.0836 -7.0165
555 2 12.6585 7.23345 19.892 -7.04966
556 1 10.8502 9.04181 19.892 -8.30099
653 1 10.8502 7.23345 21.7003 -8.24192
654 3 12.6585 9.04181 21.7003 -6.49977
557 2 14.4669 7.23345 18.0836 -7.07802
558 1 16.2753 9.04181 18.0836 -8.22165
559 3 16.2753 7.23345 19.892 -6.50228
560 3 14.4669 9.04181 19.892 -6.56441
657 1 14.4669 7.23345 21.7003 -8.49407
658 3 16.2753 9.04181 21.7003 -6.49762
561 2 0 10.8502 18.0836 -6.97481
562 1 1.80836 12.6585 18.0836 -8.03956
563 3 1.80836 10.8502 19.892 -6.52177
564 1 0 12.6585 19.892 -8.23519
661 3 0 10.8502 21.7003 -6.40246
662 1 1.80836 12.6585 21.7003 -8.26637
565 1 3.61672 10.8502 18.0836 -8.1718
566 2 5.42509 12.6585 18.0836 -6.90739
567 1 5.42509 10.8502 19.892 -8.37694
568 3 3.61672 12.6585 19.892 -6.38523
665 2 3.61672 10.8502 21.7003 -7.00205
666 3 5.42509 12.6585 21.7003 -6.54697
569 3 7.23345 10.8502 18.0836 -6.45639
570 1 9.04181 12.6585 18.0836 -8.3303
571 3 9.04181 10.8502 19.892 -6.37425
572 3 7.23345 12.6585 19.892 -6.48983
669 2 7.23345 10.8502 21.7003 -6.92375
670 1 9.04181 12.6585 21.7003 -8.31915
573 3 10.8502 10.8502 18.0836 -6.51796
574 2 12.6585 12.6585 18.0836 -6.95782
575 3 12.6585 10.8502 19.892 -6.43379
576 1 10.8502 12.6585 19.892 -8.25426
673 3 10.8502 10.8502 21.7003 -6.39542
674 3 12.6585 12.6585 21.7003 -6.40587
577 3 14.4669 10.8502 18.0836 -6.43071
578 3 16.2753 12.6585 18.0836 -6.29129
579 2 16.2753 10.8502 19.892 -6.81584
580 1 14.4669 12.6585 19.892 -8.34146
677 3 14.4669 10.8502 21.7003 -6.48226
678 3 16.2753 12.6585 21.7003 -6.51655
581 1 0 14.4669 18.0836 -7.93369
582 1 1.80836 16.2753 18.0836 -7.93078
583 1 1.80836 14.4669 19.892 -8.03208
584 2 0 16.2753 19.892 -7.1144
681 3 0 14.4669 21.7003 -6.49481
682 2 1.80836 16.2753 21.7003 -7.03007
585 1 3.61672 14.4669 18.0836 -8.13727
586 1 5.42509 16.2753 18.0836 -8.25198
587 2 5.42509 14.4669 19.892 -6.97732
588 1 3.61672 16.2753 19.892 -7.88546
685 3 3.61672 14.4669 21.7003 -6.37622
686 1 5.42509 16.2753 21.7003 -8.07736
589 3 7.23345 14.4669 18.0836 -6.45716
590 3 9.04181 16.2753 18.0836 -6.51937
591 3 9.04181 14.4669 19.892 -6.43354
592 2 7.23345 16.2753 19.892 -7.02815
689 3 7.23345 14.4669 21.7003 -6.46488
690 1 9.04181 16.2753 21.7003 -8.28554
593 2 10.8502 14.4669 18.0836 -7.05244
594 1 12.6585 16.2753 18.0836 -8.20269
595 1 12.6585 14.4669 19.892 -8.0607
596 3 10.8502 16.2753 19.892 -6.35327
693 2 10.8502 14.4669 21.7003 -6.96794
694 1 12.6585 16.2753 21.7003 -8.27028
597 3 14.4669 14.4669 18.0836 -6.31881
598 2 16.2753 16.2753 18.0836 -7.02094
599 1 16.2753 14.4669 19.892 -8.27401
600 3 14.4669 16.2753 19.892 -6.47613
697 1 14.4669 14.4669 21.7003 -8.21432
698 3 16.2753 16.2753 21.7003 -6.48327
603 2 1.80836 0 23.5087 -6.96709
604 3 0 1.80836 23.5087 -6.53709
701 1 0 0 25.3171 -8.19185
702 3 1.80836 1.80836 25.3171 -6.485
607 2 5.42509 0 23.5087 -7.00792
608 1 3.61672 1.80836 23.5087 -8.23491
703 1 3.61672 0 25.3171 -8.02895
704 3 5.42509 1.80836 25.3171 -6.53625
611 3 9.04181 0 23.5087 -6.52973
612 2 7.23345 1.80836 23.5087 -7.00135
705 2 7.23345 0 25.3171 -7.02513
706 2 9.04181 1.80836 25.3171 -7.09505
615 2 12.6585 0 23.5087 -7.01593
616 2 10.8502 1.80836 23.5087 -7.07169
707 3 10.8502 0 25.3171 -6.55195
708 2 12.6585 1.80836 25.3171 -7.10742
619 1 16.2753 0 23.5087 -8.09625
620 3 14.4669 1.80836 23.5087 -6.49945
709 1 14.4669 0 25.3171 -8.04979
710 3 16.2753 1.80836 25.3171 -6.42082
623 2 1.80836 3.61672 23.5087 -7.008
624 1 0 5.42509 23.5087 -8.15934
711 3 0 3.61672 25.3171 -6.4492
712 1 1.80836 5.42509 25.3171 -8.29572
627 3 5.42509 3.61672 23.5087 -6.56728
628 3 3.61672 5.42509 23.5087 -6.59464
713 2 3.61672 3.61672 25.3171 -6.92477
714 3 5.42509 5.42509 25.3171 -6.50279
631 3 9.04181 3.61672 23.5087 -6.62112
632 3 7.23345 5.42509 23.5087 -6.5826
715 1 7.23345 3.61672 25.3171 -8.54181
716 3 9.04181 5.42509 25.3171 -6.60298
635 2 12.6585 3.61672 23.5087 -7.08817
636 3 10.8502 5.42509 23.5087 -6.63123
717 3 10.8502 3.61672 25.3171 -6.73178
718 3 12.6585 5.42509 25.3171 -6.65635
639 3 16.2753 3.61672 23.5087 -6.58159
640 3 14.4669 5.42509 23.5087 -6.71698
719 2 14.4669 3.61672 25.3171 -7.01039
720 2 16.2753 5.42509 25.3171 -7.02725
643 1 1.80836 7.23345 23.5087 -8.14288
644 1 0 9.04181 23.5087 -8.03603
721 2 0 7.23345 25.3171 -7.04362
722 3 1.80836 9.04181 25.3171 -6.33381
647 2 5.42509 7.23345 23.5087 -6.9779
648 2 3.61672 9.04181 23.5087 -7.05216
723 1 3.61672 7.23345 25.3171 -8.29532
724 2 5.42509 9.04181 25.3171 -6.97597
651 2 9.04181 7.23345 23.5087 -7.01555
652 3 7.23345 9.04181 23.5087 -6.56861
725 2 7.23345 7.23345 25.3171 -6.89325
726 3 9.04181 9.04181 25.3171 -6.55502
655 2 12.6585 7.23345 23.5087 -6.99697
656 2 10.8502 9.04181 23.5087 -7.01804
727 2 10.8502 7.23345 25.3171 -7.00127
728 1 12.6585 9.04181 25.3171 -8.16144
659 2 16.2753 7.23345 23.5087 -7.00515
660 3 14.4669 9.04181 23.5087 -6.51376
729 2 14.4669 7.23345 25.3171 -7.05472
730 1 16.2753 9.04181 25.3171 -8.30419
663 1 1.80836 10.8502 23.5087 -8.19179
664 2 0 12.6585 23.5087 -6.97552
731 1 0 10.8502 25.3171 -7.97922
732 2 1.80836 12.6585 25.3171 -6.94514
667 3 5.42509 10.8502 23.5087 -6.57971
668 3 3.61672 12.6585 23.5087 -6.49781
733 3 3.61672 10.8502 25.3171 -6.49843
734 3 5.42509 12.6585 25.3171 -6.4151
671 2 9.04181 10.8502 23.5087 -6.96252
672 1 7.23345 12.6585 23.5087 -8.33168
735 1 7.23345 10.8502 25.3171 -8.41069
736 3 9.04181 12.6585 25.3171 -6.50459
675 1 12.6585 10.8502 23.5087 -8.37327
676 3 10.8502 12.6585 23.5087 -6.44542
737 3 10.8502 10.8502 25.3171 -6.46148
738 1 12.6585 12.6585 25.3171 -8.10871
679 3 16.2753 10.8502 23.5087 -6.53522
680 2 14.4669 12.6585 23.5087 -6.99399
739 2 14.4669 10.8502 25.3171 -7.02141
740 1 16.2753 12.6585 25.3171 -8.2373
683 3 1.80836 14.4669 23.5087 -6.44827
684 3 0 16.2753 23.5087 -6.48346
741 1 0 14.4669 25.3171 -8.33246
742 2 1.80836 16.2753 25.3171 -6.9812
687 2 5.42509 14.4669 23.5087 -6.95156
688 1 3.61672 16.2753 23.5087 -8.05336
743 1 3.61672 14.4669 25.3171 -8.35911
744 3 5.42509 16.2753 25.3171 -6.52567
691 2 9.04181 14.4669 23.5087 -7.03305
692 2 7.23345 16.2753 23.5087 -7.02165
745 3 7.23345 14.4669 25.3171 -6.50318
746 1 9.04181 16.2753 25.3171 -8.29748
695 3 12.6585 14.4669 23.5087 -6.39103
696 2 10.8502 16.2753 23.5087 -7.02624
747 2 10.8502 14.4669 25.3171 -6.95637
748 1 12.6585 16.2753 25.3171 -8.16327
699 2 16.2753 14.4669 23.5087 -7.00454
700 3 14.4669 16.2753 23.5087 -6.43162
749 1 14.4669 14.4669 25.3171 -8.0563
750 1 16.2753 16.2753 25.3171 -8.23672
751 1 1.80836 0 27.1254 -8.23956
752 2 0 1.80836 27.1254 -6.98171
801 2 0 0 28.9338 -7.02923
802 3 1.80836 1.80836 28.9338 -6.54908
803 1 1.80836 0 30.7422 -8.26098
804 3 0 1.80836 30.7422 -6.57088
753 2 5.42509 0 27.1254 -7.01962
754 1 3.61672 1.80836 27.1254 -8.23613
805 3 3.61672 0 28.9338 -6.5044
806 1 5.42509 1.80836 28.9338 -8.21308
807 2 5.42509 0 30.7422 -7.02874
808 2 3.61672 1.80836 30.7422 -7.06447
755 1 9.04181 0 27.1254 -8.34268
756 2 7.23345 1.80836 27.1254 -7.07941
809 2 7.23345 0 28.9338 -7.11246
810 2 9.04181 1.80836 28.9338 -7.10215
811 3 9.04181 0 30.7422 -6.70012
812 2 7.23345 1.80836 30.7422 -7.11805
757 1 12.6585 0 27.1254 -8.12473
758 2 10.8502 1.80836 27.1254 -7.06175
813 2 10.8502 0 28.9338 -7.05346
814 3 12.6585 1.80836 28.9338 -6.48571
815 3 12.6585 0 30.7422 -6.67939
816 2 10.8502 1.80836 30.7422 -7.08842
759 1 16.2753 0 27.1254 -8.24344
760 1 14.4669 1.80836 27.1254 -8.13851
817 1 14.4669 0 28.9338 -8.13427
818 2 16.2753 1.80836 28.9338 -7.06454
819 1 16.2753 0 30.7422 -8.06004
820 2 14.4669 1.80836 30.7422 -7.07762
761 3 1.80836 3.61672 27.1254 -6.4469
762 3 0 5.42509 27.1254 -6.37423
821 3 0 3.61672 28.9338 -6.56016
822 1 1.80836 5.42509 28.9338 -8.55297
823 2 1.80836 3.61672 30.7422 -6.99184
824 2 0 5.42509 30.7422 -6.97287
763 2 5.42509 3.61672 27.1254 -6.98966
764 3 3.61672 5.42509 27.1254 -6.39088
825 3 3.61672 3.61672 28.9338 -6.49635
826 1 5.42509 5.42509 28.9338 -8.18307
827 2 5.42509 3.61672 30.7422 -7.08501
828 3 3.61672 5.42509 30.7422 -6.54318
765 3 9.04181 3.61672 27.1254 -6.58229
766 3 7.23345 5.42509 27.1254 -6.45595
829 1 7.23345 3.61672 28.9338 -8.23942
830 3 9.04181 5.42509 28.9338 -6.56657
831 3 9.04181 3.61672 30.7422 -6.67088
832 2 7.23345 5.42509 30.7422 -7.10218
767 2 12.6585 3.61672 27.1254 -7.00499
768 2 10.8502 5.42509 27.1254 -6.94825
833 1 10.8502 3.61672 28.9338 -8.44254
834 3 12.6585 5.42509 28.9338 -6.43952
835 3 12.6585 3.61672 30.7422 -6.65261