ITEM: TIMESTEP
0
ITEM: NUMBER OF ATOMS
4000
ITEM: BOX BOUNDS pp pp pp
0.0000000000000000e+00 3.6030929999999998e+01
0.0000000000000000e+00 3.6030929999999998e+01
0.0000000000000000e+00 3.6030929999999998e+01
ITEM: ATOMS id type x y z c_peratom
1 1 0 0 0 -7.99041
2 1 1.80155 1.80155 0 -8.10781
3 2 1.80155 0 1.80155 -7.04784
4 2 0 1.80155 1.80155 -7.10201
101 3 0 0 3.60309 -6.33002
102 1 1.80155 1.80155 3.60309 -8.24888
5 1 3.60309 0 0 -8.16488
6 3 5.40464 1.80155 0 -6.5338
7 2 5.40464 0 1.80155 -7.04543
8 2 3.60309 1.80155 1.80155 -7.13103
105 2 3.60309 0 3.60309 -7.04882
106 1 5.40464 1.80155 3.60309 -8.08693
9 2 7.20619 0 0 -6.99159
10 2 9.00773 1.80155 0 -7.02684
11 1 9.00773 0 1.80155 -8.31104
12 1 7.20619 1.80155 1.80155 -8.08791
109 2 7.20619 0 3.60309 -7.10046
110 3 9.00773 1.80155 3.60309 -6.40345
13 3 10.8093 0 0 -6.20047
14 3 12.6108 1.80155 0 -6.2994
15 1 12.6108 0 1.80155 -8.12824
16 1 10.8093 1.80155 1.80155 -8.2557
113 3 10.8093 0 3.60309 -6.36949
114 2 12.6108 1.80155 3.60309 -6.95484
17 1 14.4124 0 0 -8.15991
18 1 16.2139 1.80155 0 -8.26781
19 1 16.2139 0 1.80155 -8.27362
20 3 14.4124 1.80155 1.80155 -6.35238
117 2 14.4124 0 3.60309 -6.97442
118 2 16.2139 1.80155 3.60309 -6.92259
21 1 0 3.60309 0 -8.08355
22 1 1.80155 5.40464 0 -8.1014
23 2 1.80155 3.60309 1.80155 -7.04916
24 3 0 5.40464 1.80155 -6.32811
121 2 0 3.60309 3.60309 -7.09386
122 1 1.80155 5.40464 3.60309 -8.04738
25 2 3.60309 3.60309 0 -7.0907
26 3 5.40464 5.40464 0 -6.45994
27 1 5.40464 3.60309 1.80155 -8.24071
28 2 3.60309 5.40464 1.80155 -7.11523
125 2 3.60309 3.60309 3.60309 -7.11666
126 1 5.40464 5.40464 3.60309 -8.12587
29 2 7.20619 3.60309 0 -7.05058
30 1 9.00773 5.40464 0 -8.09764
31 1 9.00773 3.60309 1.80155 -8.07645
32 3 7.20619 5.40464 1.80155 -6.31074
129 2 7.20619 3.60309 3.60309 -7.0938
130 1 9.00773 5.40464 3.60309 -8.22381
33 2 10.8093 3.60309 0 -7.0588
34 2 12.6108 5.40464 0 -7.01515
35 3 12.6108 3.60309 1.80155 -6.47297
36 2 10.8093 5.40464 1.80155 -7.11143
133 2 10.8093 3.60309 3.60309 -7.09056
134 1 12.6108 5.40464 3.60309 -8.28619
37 1 14.4124 3.60309 0 -8.38619
38 1 16.2139 5.40464 0 -8.35562
39 3 16.2139 3.60309 1.80155 -6.42479
40 3 14.4124 5.40464 1.80155 -6.51617
137 1 14.4124 3.60309 3.60309 -8.34958
138 2 16.2139 5.40464 3.60309 -6.96287
41 2 0 7.20619 0 -7.02952
42 3 1.80155 9.00773 0 -6.48992
43 1 1.80155 7.20619 1.80155 -8.18835
44 2 0 9.00773 1.80155 -7.13224
141 2 0 7.20619 3.60309 -7.08238
142 2 1.80155 9.00773 3.60309 -7.02059
45 2 3.60309 7.20619 0 -6.94971
46 3 5.40464 9.00773 0 -6.39572
47 1 5.40464 7.20619 1.80155 -8.31966
48 3 3.60309 9.00773 1.80155 -6.43309
145 1 3.60309 7.20619 3.60309 -8.06623
146 2 5.40464 9.00773 3.60309 -6.91896
49 1 7.20619 7.20619 0 -8.32883
50 2 9.00773 9.00773 0 -6.9904
51 1 9.00773 7.20619 1.80155 -8.12396
52 3 7.20619 9.00773 1.80155 -6.36055
149 2 7.20619 7.20619 3.60309 -6.9227
150 1 9.00773 9.00773 3.60309 -8.28604
53 2 10.8093 7.20619 0 -7.14132
54 2 12.6108 9.00773 0 -7.09082
55 2 12.6108 7.20619 1.80155 -7.14781
56 2 10.8093 9.00773 1.80155 -7.1215
153 2 10.8093 7.20619 3.60309 -7.11642
154 2 12.6108 9.00773 3.60309 -7.00277
57 2 14.4124 7.20619 0 -7.01499
58 3 16.2139 9.00773 0 -6.46662
59 2 16.2139 7.20619 1.80155 -7.02279
60 3 14.4124 9.00773 1.80155 -6.58002
157 3 14.4124 7.20619 3.60309 -6.61273
158 3 16.2139 9.00773 3.60309 -6.46729
61 2 0 10.8093 0 -7.06479
62 1 1.80155 12.6108 0 -8.16876
63 1 1.80155 10.8093 1.80155 -8.34497
64 2 0 12.6108 1.80155 -7.05444
161 2 0 10.8093 3.60309 -7.1118
162 3 1.80155 12.6108 3.60309 -6.29823
65 2 3.60309 10.8093 0 -7.00079
66 1 5.40464 12.6108 0 -8.20529
67 2 5.40464 10.8093 1.80155 -6.86547
68 1 3.60309 12.6108 1.80155 -8.24918
165 3 3.60309 10.8093 3.60309 -6.44651
166 3 5.40464 12.6108 3.60309 -6.40392
69 3 7.20619 10.8093 0 -6.3509
70 3 9.00773 12.6108 0 -6.46931
71 1 9.00773 10.8093 1.80155 -8.32108
72 3 7.20619 12.6108 1.80155 -6.33197
169 1 7.20619 10.8093 3.60309 -8.39336
170 1 9.00773 12.6108 3.60309 -8.33637
73 2 10.8093 10.8093 0 -7.03072
74 3 12.6108 12.6108 0 -6.32249
75 1 12.6108 10.8093 1.80155 -8.44254
76 2 10.8093 12.6108 1.80155 -6.90227
173 3 10.8093 10.8093 3.60309 -6.45806
174 2 12.6108 12.6108 3.60309 -6.92804
77 3 14.4124 10.8093 0 -6.30635
78 1 16.2139 12.6108 0 -8.16204
79 1 16.2139 10.8093 1.80155 -8.2721
80 1 14.4124 12.6108 1.80155 -8.20086
177 3 14.4124 10.8093 3.60309 -6.42387
178 2 16.2139 12.6108 3.60309 -7.02608
81 2 0 14.4124 0 -6.99422
82 3 1.80155 16.2139 0 -6.47068
83 1 1.80155 14.4124 1.80155 -8.41707
84 3 0 16.2139 1.80155 -6.56962
181 2 0 14.4124 3.60309 -7.06823
182 2 1.80155 16.2139 3.60309 -6.95434
85 3 3.60309 14.4124 0 -6.36232
86 1 5.40464 16.2139 0 -8.4376
87 3 5.40464 14.4124 1.80155 -6.37645
88 3 3.60309 16.2139 1.80155 -6.38899
185 3 3.60309 14.4124 3.60309 -6.33555
186 3 5.40464 16.2139 3.60309 -6.44424
89 1 7.20619 14.4124 0 -8.29196
90 1 9.00773 16.2139 0 -8.33611
91 3 9.00773 14.4124 1.80155 -6.394
92 3 7.20619 16.2139 1.80155 -6.43871
189 3 7.20619 14.4124 3.60309 -6.48361
190 3 9.00773 16.2139 3.60309 -6.56691
93 3 10.8093 14.4124 0 -6.43404
94 1 12.6108 16.2139 0 -8.20652
95 1 12.6108 14.4124 1.80155 -8.26101
96 1 10.8093 16.2139 1.80155 -8.31702
193 3 10.8093 14.4124 3.60309 -6.38688
194 1 12.6108 16.2139 3.60309 -8.21256
97 3 14.4124 14.4124 0 -6.37741
98 3 16.2139 16.2139 0 -6.58263
99 2 16.2139 14.4124 1.80155 -7.00826
100 3 14.4124 16.2139 1.80155 -6.44151
197 3 14.4124 14.4124 3.60309 -6.33744
198 1 16.2139 16.2139 3.60309 -8.13834
103 3 1.80155 0 5.40464 -6.41648
104 1 0 1.80155 5.40464 -8.19949
201 1 0 0 7.20619 -8.35917
202 2 1.80155 1.80155 7.20619 -7.00203
107 3 5.40464 0 5.40464 -6.57827
108 2 3.60309 1.80155 5.40464 -7.07537
203 1 3.60309 0 7.20619 -8.58445
204 3 5.40464 1.80155 7.20619 -6.66194
111 2 9.00773 0 5.40464 -7.02723
112 1 7.20619 1.80155 5.40464 -8.25554
205 2 7.20619 0 7.20619 -7.09161
206 1 9.00773 1.80155 7.20619 -8.18831
115 3 12.6108 0 5.40464 -6.48807
116 1 10.8093 1.80155 5.40464 -8.4251
207 3 10.8093 0 7.20619 -6.40611
208 3 12.6108 1.80155 7.20619 -6.40584
119 3 16.2139 0 5.40464 -6.42537
120 1 14.4124 1.80155 5.40464 -8.51554
209 3 14.4124 0 7.20619 -6.40107
210 3 16.2139 1.80155 7.20619 -6.36956
123 1 1.80155 3.60309 5.40464 -8.10859
124 1 0 5.40464 5.40464 -7.98036
211 3 0 3.60309 7.20619 -6.20042
212 2 1.80155 5.40464 7.20619 -7.12799
127 2 5.40464 3.60309 5.40464 -7.11841
128 2 3.60309 5.40464 5.40464 -7.15205
213 2 3.60309 3.60309 7.20619 -7.1024
214 2 5.40464 5.40464 7.20619 -7.12287
131 2 9.00773 3.60309 5.40464 -7.11436
132 3 7.20619 5.40464 5.40464 -6.60873
215 2 7.20619 3.60309 7.20619 -7.13083
216 2 9.00773 5.40464 7.20619 -7.15718
135 2 12.6108 3.60309 5.40464 -7.08079
136 2 10.8093 5.40464 5.40464 -7.18282
217 2 10.8093 3.60309 7.20619 -7.1369
218 2 12.6108 5.40464 7.20619 -7.11144
139 3 16.2139 3.60309 5.40464 -6.46129
140 2 14.4124 5.40464 5.40464 -7.02793
219 3 14.4124 3.60309 7.20619 -6.46271
220 1 16.2139 5.40464 7.20619 -8.33947
143 1 1.80155 7.20619 5.40464 -7.94607
144 1 0 9.00773 5.40464 -8.10343
221 1 0 7.20619 7.20619 -8.03402
222 2 1.80155 9.00773 7.20619 -7.12878
147 1 5.40464 7.20619 5.40464 -8.24106
148 3 3.60309 9.00773 5.40464 -6.39196
223 1 3.60309 7.20619 7.20619 -8.17129
224 3 5.40464 9.00773 7.20619 -6.46796
151 2 9.00773 7.20619 5.40464 -7.04349
152 3 7.20619 9.00773 5.40464 -6.40291
225 2 7.20619 7.20619 7.20619 -7.03182
226 1 9.00773 9.00773 7.20619 -8.31668
155 1 12.6108 7.20619 5.40464 -8.16847
156 2 10.8093 9.00773 5.40464 -7.01679
227 1 10.8093 7.20619 7.20619 -8.15114
228 3 12.6108 9.00773 7.20619 -6.4198
159 2 16.2139 7.20619 5.40464 -7.00814
160 1 14.4124 9.00773 5.40464 -8.37372
229 2 14.4124 7.20619 7.20619 -7.03194
230 3 16.2139 9.00773 7.20619 -6.46984
163 1 1.80155 10.8093 5.40464 -8.29757
164 1 0 12.6108 5.40464 -7.97698
231 1 0 10.8093 7.20619 -7.9194
232 2 1.80155 12.6108 7.20619 -6.95144
167 3 5.40464 10.8093 5.40464 -6.43991
168 3 3.60309 12.6108 5.40464 -6.37156
233 2 3.60309 10.8093 7.20619 -6.97197
234 1 5.40464 12.6108 7.20619 -8.23597
171 3 9.00773 10.8093 5.40464 -6.33142
172 3 7.20619 12.6108 5.40464 -6.29686
235 1 7.20619 10.8093 7.20619 -8.45746
236 3 9.00773 12.6108 7.20619 -6.39134
175 3 12.6108 10.8093 5.40464 -6.4376
176 1 10.8093 12.6108 5.40464 -8.42556
237 3 10.8093 10.8093 7.20619 -6.48886
238 2 12.6108 12.6108 7.20619 -6.96716
179 2 16.2139 10.8093 5.40464 -6.93167
180 1 14.4124 12.6108 5.40464 -8.43352
239 1 14.4124 10.8093 7.20619 -8.32541
240 3 16.2139 12.6108 7.20619 -6.37203
183 1 1.80155 14.4124 5.40464 -8.32943
184 1 0 16.2139 5.40464 -8.24169
241 3 0 14.4124 7.20619 -6.29658
242 1 1.80155 16.2139 7.20619 -8.40475
187 1 5.40464 14.4124 5.40464 -8.48775
188 3 3.60309 16.2139 5.40464 -6.34444
243 3 3.60309 14.4124 7.20619 -6.37464
244 2 5.40464 16.2139 7.20619 -6.93255
191 2 9.00773 14.4124 5.40464 -6.96997
192 2 7.20619 16.2139 5.40464 -7.00947
245 1 7.20619 14.4124 7.20619 -8.43286
246 3 9.00773 16.2139 7.20619 -6.39296
195 2 12.6108 14.4124 5.40464 -7.03169
196 2 10.8093 16.2139 5.40464 -7.01654
247 1 10.8093 14.4124 7.20619 -8.19207
248 1 12.6108 16.2139 7.20619 -8.00561
199 2 16.2139 14.4124 5.40464 -7.04174
200 1 14.4124 16.2139 5.40464 -8.06622
249 2 14.4124 14.4124 7.20619 -7.04623
250 2 16.2139 16.2139 7.20619 -6.9548
251 3 1.80155 0 9.00773 -6.43629
252 3 0 1.80155 9.00773 -6.3558
301 3 0 0 10.8093 -6.45873
302 3 1.80155 1.80155 10.8093 -6.42611
303 3 1.80155 0 12.6108 -6.47625
304 3 0 1.80155 12.6108 -6.44667
253 2 5.40464 0 9.00773 -7.0748
254 2 3.60309 1.80155 9.00773 -6.96321
305 1 3.60309 0 10.8093 -8.37754
306 2 5.40464 1.80155 10.8093 -7.03303
307 1 5.40464 0 12.6108 -8.17479
308 1 3.60309 1.80155 12.6108 -8.16171
255 1 9.00773 0 9.00773 -8.34449
256 3 7.20619 1.80155 9.00773 -6.56762
309 3 7.20619 0 10.8093 -6.4392
310 1 9.00773 1.80155 10.8093 -8.4536
311 3 9.00773 0 12.6108 -6.31947
312 3 7.20619 1.80155 12.6108 -6.44291
257 1 12.6108 0 9.00773 -8.42331
258 2 10.8093 1.80155 9.00773 -6.8687
313 3 10.8093 0 10.8093 -6.29508
314 3 12.6108 1.80155 10.8093 -6.2521
315 2 12.6108 0 12.6108 -6.86007
316 1 10.8093 1.80155 12.6108 -8.27168
259 2 16.2139 0 9.00773 -6.86569
260 1 14.4124 1.80155 9.00773 -8.42458
317 3 14.4124 0 10.8093 -6.20925
318 3 16.2139 1.80155 10.8093 -6.34676
319 1 16.2139 0 12.6108 -8.31456
320 1 14.4124 1.80155 12.6108 -8.16667
261 1 1.80155 3.60309 9.00773 -8.26617
262 1 0 5.40464 9.00773 -8.15959
321 3 0 3.60309 10.8093 -6.33753
322 2 1.80155 5.40464 10.8093 -7.0838
323 2 1.80155 3.60309 12.6108 -6.95956
324 3 0 5.40464 12.6108 -6.53943
263 3 5.40464 3.60309 9.00773 -6.65068
264 1 3.60309 5.40464 9.00773 -8.14482
325 1 3.60309 3.60309 10.8093 -8.13317
326 2 5.40464 5.40464 10.8093 -7.0207
327 2 5.40464 3.60309 12.6108 -6.9633
328 1 3.60309 5.40464 12.6108 -8.21389
265 3 9.00773 3.60309 9.00773 -6.55239
266 2 7.20619 5.40464 9.00773 -7.12278
329 3 7.20619 3.60309 10.8093 -6.53442
330 1 9.00773 5.40464 10.8093 -8.50367
331 3 9.00773 3.60309 12.6108 -6.47607
332 3 7.20619 5.40464 12.6108 -6.4739
267 1 12.6108 3.60309 9.00773 -8.38619
268 2 10.8093 5.40464 9.00773 -7.10123
333 3 10.8093 3.60309 10.8093 -6.37051
334 3 12.6108 5.40464 10.8093 -6.35027
335 1 12.6108 3.60309 12.6108 -8.27258
336 3 10.8093 5.40464 12.6108 -6.384
269 3 16.2139 3.60309 9.00773 -6.27316
270 2 14.4124 5.40464 9.00773 -6.95604
337 1 14.4124 3.60309 10.8093 -8.08031
338 1 16.2139 5.40464 10.8093 -8.1916
339 2 16.2139 3.60309 12.6108 -6.95768
340 3 14.4124 5.40464 12.6108 -6.37946
271 1 1.80155 7.20619 9.00773 -7.92125
272 1 0 9.00773 9.00773 -8.08176
341 2 0 7.20619 10.8093 -7.01804
342 1 1.80155 9.00773 10.8093 -8.2609
343 2 1.80155 7.20619 12.6108 -7.07753
344 3 0 9.00773 12.6108 -6.63056
273 3 5.40464 7.20619 9.00773 -6.64762
274 2 3.60309 9.00773 9.00773 -7.07335
345 2 3.60309 7.20619 10.8093 -7.0804
346 2 5.40464 9.00773 10.8093 -7.05775
347 1 5.40464 7.20619 12.6108 -8.26116
348 2 3.60309 9.00773 12.6108 -7.16592
275 2 9.00773 7.20619 9.00773 -7.04834
276 3 7.20619 9.00773 9.00773 -6.49672
349 3 7.20619 7.20619 10.8093 -6.53712
350 1 9.00773 9.00773 10.8093 -8.23319
351 1 9.00773 7.20619 12.6108 -8.36148
352 2 7.20619 9.00773 12.6108 -7.0136
277 1 12.6108 7.20619 9.00773 -8.28546
278 2 10.8093 9.00773 9.00773 -7.0703
353 2 10.8093 7.20619 10.8093 -7.04572
354 2 12.6108 9.00773 10.8093 -7.06448
355 1 12.6108 7.20619 12.6108 -8.48905
356 2 10.8093 9.00773 12.6108 -7.03783
279 2 16.2139 7.20619 9.00773 -6.99749
280 1 14.4124 9.00773 9.00773 -8.32084
357 3 14.4124 7.20619 10.8093 -6.48446
358 3 16.2139 9.00773 10.8093 -6.55621
359 3 16.2139 7.20619 12.6108 -6.52352
360 2 14.4124 9.00773 12.6108 -6.99927
281 1 1.80155 10.8093 9.00773 -8.0138
282 1 0 12.6108 9.00773 -8.15274
361 3 0 10.8093 10.8093 -6.51202
362 2 1.80155 12.6108 10.8093 -7.06219
363 2 1.80155 10.8093 12.6108 -7.17528
364 2 0 12.6108 12.6108 -7.11699
283 3 5.40464 10.8093 9.00773 -6.47495
284 1 3.60309 12.6108 9.00773 -8.25372
365 2 3.60309 10.8093 10.8093 -7.11553
366 1 5.40464 12.6108 10.8093 -8.18475
367 3 5.40464 10.8093 12.6108 -6.55944
368 2 3.60309 12.6108 12.6108 -7.08703
285 2 9.00773 10.8093 9.00773 -7.04335
286 2 7.20619 12.6108 9.00773 -6.90086
369 1 7.20619 10.8093 10.8093 -8.17926
370 2 9.00773 12.6108 10.8093 -6.99794
371 1 9.00773 10.8093 12.6108 -8.22763
372 1 7.20619 12.6108 12.6108 -8.04323
287 3 12.6108 10.8093 9.00773 -6.49159
288 1 10.8093 12.6108 9.00773 -8.44561
373 2 10.8093 10.8093 10.8093 -7.11349
374 2 12.6108 12.6108 10.8093 -7.04572
375 2 12.6108 10.8093 12.6108 -7.06686
376 3 10.8093 12.6108 12.6108 -6.47247
289 3 16.2139 10.8093 9.00773 -6.35731
290 3 14.4124 12.6108 9.00773 -6.54413
377 1 14.4124 10.8093 10.8093 -8.45958
378 3 16.2139 12.6108 10.8093 -6.42825
379 3 16.2139 10.8093 12.6108 -6.61903
380 2 14.4124 12.6108 12.6108 -6.98176
291 3 1.80155 14.4124 9.00773 -6.53177
292 3 0 16.2139 9.00773 -6.61272
381 2 0 14.4124 10.8093 -7.0367
382 2 1.80155 16.2139 10.8093 -7.04664
383 3 1.80155 14.4124 12.6108 -6.73116
384 1 0 16.2139 12.6108 -8.35788
293 3 5.40464 14.4124 9.00773 -6.45543
294 2 3.60309 16.2139 9.00773 -7.00329
385 2 3.60309 14.4124 10.8093 -7.08603
386 3 5.40464 16.2139 10.8093 -6.52495
387 2 5.40464 14.4124 12.6108 -7.01733
388 3 3.60309 16.2139 12.6108 -6.63327
295 3 9.00773 14.4124 9.00773 -6.40655
296 3 7.20619 16.2139 9.00773 -6.36621
389 1 7.20619 14.4124 10.8093 -8.31081
390 3 9.00773 16.2139 10.8093 -6.37964
391 2 9.00773 14.4124 12.6108 -6.90632
392 1 7.20619 16.2139 12.6108 -8.03835
297 2 12.6108 14.4124 9.00773 -7.0306
298 2 10.8093 16.2139 9.00773 -7.0018
393 3 10.8093 14.4124 10.8093 -6.48954
394 3 12.6108 16.2139 10.8093 -6.41421
395 1 12.6108 14.4124 12.6108 -8.38349
396 1 10.8093 16.2139 12.6108 -8.1583
299 3 16.2139 14.4124 9.00773 -6.36691
300 1 14.4124 16.2139 9.00773 -8.34492
397 3 14.4124 14.4124 10.8093 -6.46568
398 1 16.2139 16.2139 10.8093 -8.16307
399 2 16.2139 14.4124 12.6108 -6.96947
400 1 14.4124 16.2139 12.6108 -8.16124
401 2 0 0 14.4124 -6.95474
402 1 1.80155 1.80155 14.4124 -8.35843
403 3 1.80155 0 16.2139 -6.43603
404 2 0 1.80155 16.2139 -6.98758
405 1 3.60309 0 14.4124 -8.09795
406 3 5.40464 1.80155 14.4124 -6.41288
407 1 5.40464 0 16.2139 -8.03877
408 2 3.60309 1.80155 16.2139 -6.97081
409 1 7.20619 0 14.4124 -8.23051
410 3 9.00773 1.80155 14.4124 -6.41626
411 2 9.00773 0 16.2139 -6.97051
412 2 7.20619 1.80155 16.2139 -6.99776
413 1 10.8093 0 14.4124 -8.40301
414 1 12.6108 1.80155 14.4124 -8.03049
415 3 12.6108 0 16.2139 -6.48104
416 1 10.8093 1.80155 16.2139 -8.20295
417 2 14.4124 0 14.4124 -6.9434
418 3 16.2139 1.80155 14.4124 -6.43344
419 1 16.2139 0 16.2139 -8.65387
420 3 14.4124 1.80155 16.2139 -6.48332
421 2 0 3.60309 14.4124 -6.95173
422 3 1.80155 5.40464 14.4124 -6.56344
423 3 1.80155 3.60309 16.2139 -6.48178
424 1 0 5.40464 16.2139 -8.46369
425 3 3.60309 3.60309 14.4124 -6.44976
426 1 5.40464 5.40464 14.4124 -8.39047
427 3 5.40464 3.60309 16.2139 -6.5737
428 2 3.60309 5.40464 16.2139 -6.91407
429 3 7.20619 3.60309 14.4124 -6.53627
430 2 9.00773 5.40464 14.4124 -6.92078
431 1 9.00773 3.60309 16.2139 -8.2993
432 2 7.20619 5.40464 16.2139 -7.02449
433 2 10.8093 3.60309 14.4124 -6.95584
434 3 12.6108 5.40464 14.4124 -6.41065
435 2 12.6108 3.60309 16.2139 -6.97443
436 3 10.8093 5.40464 16.2139 -6.47227
437 1 14.4124 3.60309 14.4124 -8.33284
438 2 16.2139 5.40464 14.4124 -7.03453
439 2 16.2139 3.60309 16.2139 -6.93697
440 2 14.4124 5.40464 16.2139 -7.03586
441 3 0 7.20619 14.4124 -6.50695
442 2 1.80155 9.00773 14.4124 -7.05458
443 3 1.80155 7.20619 16.2139 -6.43259
444 1 0 9.00773 16.2139 -8.45783
445 2 3.60309 7.20619 14.4124 -7.09171
446 2 5.40464 9.00773 14.4124 -7.07169
447 3 5.40464 7.20619 16.2139 -6.53981
448 1 3.60309 9.00773 16.2139 -8.33063
449 2 7.20619 7.20619 14.4124 -7.01215
450 3 9.00773 9.00773 14.4124 -6.39681
451 1 9.00773 7.20619 16.2139 -8.36799
452 3 7.20619 9.00773 16.2139 -6.42782
453 3 10.8093 7.20619 14.4124 -6.37573
454 1 12.6108 9.00773 14.4124 -8.26987
455 1 12.6108 7.20619 16.2139 -8.49226
456 2 10.8093 9.00773 16.2139 -7.03086
457 3 14.4124 7.20619 14.4124 -6.60196
458 3 16.2139 9.00773 14.4124 -6.67601
459 2 16.2139 7.20619 16.2139 -7.0855
460 2 14.4124 9.00773 16.2139 -7.10001
461 3 0 10.8093 14.4124 -6.6467
462 2 1.80155 12.6108 14.4124 -7.10154
463 1 1.80155 10.8093 16.2139 -8.12203
464 2 0 12.6108 16.2139 -6.93029
465 2 3.60309 10.8093 14.4124 -7.14523
466 1 5.40464 12.6108 14.4124 -8.40067
467 3 5.40464 10.8093 16.2139 -6.43241
468 1 3.60309 12.6108 16.2139 -8.10119
469 3 7.20619 10.8093 14.4124 -6.38836
470 1 9.00773 12.6108 14.4124 -8.21768
471 1 9.00773 10.8093 16.2139 -8.31642
472 3 7.20619 12.6108 16.2139 -6.24203
473 3 10.8093 10.8093 14.4124 -6.46944
474 3 12.6108 12.6108 14.4124 -6.51709
475 2 12.6108 10.8093 16.2139 -7.00824
476 2 10.8093 12.6108 16.2139 -7.0219
477 2 14.4124 10.8093 14.4124 -7.07065
478 3 16.2139 12.6108 14.4124 -6.53001
479 2 16.2139 10.8093 16.2139 -7.03012
480 3 14.4124 12.6108 16.2139 -6.40222
481 2 0 14.4124 14.4124 -7.09508
482 2 1.80155 16.2139 14.4124 -6.97851
483 1 1.80155 14.4124 16.2139 -8.35808
484 1 0 16.2139 16.2139 -8.26534
485 3 3.60309 14.4124 14.4124 -6.49418
486 1 5.40464 16.2139 14.4124 -8.29272
487 2 5.40464 14.4124 16.2139 -6.92964
488 3 3.60309 16.2139 16.2139 -6.53931
489 3 7.20619 14.4124 14.4124 -6.2171
490 1 9.00773 16.2139 14.4124 -7.94742
491 1 9.00773 14.4124 16.2139 -8.07544
492 1 7.20619 16.2139 16.2139 -8.06889
493 3 10.8093 14.4124 14.4124 -6.24107
494 3 12.6108 16.2139 14.4124 -6.24565
495 1 12.6108 14.4124 16.2139 -8.30874
496 1 10.8093 16.2139 16.2139 -8.03661
497 1 14.4124 14.4124 14.4124 -8.2191
498 2 16.2139 16.2139 14.4124 -6.99358
499 1 16.2139 14.4124 16.2139 -8.46619
500 3 14.4124 16.2139 16.2139 -6.45435
501 2 0 0 18.0155 -6.9863
502 1 1.80155 1.80155 18.0155 -8.22636
503 1 1.80155 0 19.817 -7.90182
504 1 0 1.80155 19.817 -8.18839
601 1 0 0 21.6186 -8.06748
602 1 1.80155 1.80155 21.6186 -8.01873
505 1 3.60309 0 18.0155 -8.06051
506 2 5.40464 1.80155 18.0155 -7.04728
507 3 5.40464 0 19.817 -6.4537
508 2 3.60309 1.80155 19.817 -7.08288
605 1 3.60309 0 21.6186 -8.05858
606 1 5.40464 1.80155 21.6186 -8.18151
509 1 7.20619 0 18.0155 -8.39521
510 2 9.00773 1.80155 18.0155 -7.11437
511 3 9.00773 0 19.817 -6.54044
512 3 7.20619 1.80155 19.817 -6.4842
609 2 7.20619 0 21.6186 -6.92794
610 1 9.00773 1.80155 21.6186 -8.27619
513 2 10.8093 0 18.0155 -6.9876
514 2 12.6108 1.80155 18.0155 -7.0192
515 3 12.6108 0 19.817 -6.49928
516 2 10.8093 1.80155 19.817 -7.07931
613 2 10.8093 0 21.6186 -6.92379
614 3 12.6108 1.80155 21.6186 -6.47918
517 2 14.4124 0 18.0155 -6.95987
518 3 16.2139 1.80155 18.0155 -6.41677
519 2 16.2139 0 19.817 -6.94849
520 1 14.4124 1.80155 19.817 -8.49592
617 2 14.4124 0 21.6186 -6.99169
618 3 16.2139 1.80155 21.6186 -6.43267
521 2 0 3.60309 18.0155 -7.03584
522 1 1.80155 5.40464 18.0155 -8.40337
523 2 1.80155 3.60309 19.817 -7.06095
524 2 0 5.40464 19.817 -7.01752
621 2 0 3.60309 21.6186 -7.12752
622 3 1.80155 5.40464 21.6186 -6.684
525 3 3.60309 3.60309 18.0155 -6.53425
526 1 5.40464 5.40464 18.0155 -8.33589
527 2 5.40464 3.60309 19.817 -7.09066
528 2 3.60309 5.40464 19.817 -7.06244
625 3 3.60309 3.60309 21.6186 -6.39407
626 1 5.40464 5.40464 21.6186 -8.10735
529 2 7.20619 3.60309 18.0155 -7.07422
530 1 9.00773 5.40464 18.0155 -8.16832
531 2 9.00773 3.60309 19.817 -7.09581
532 1 7.20619 5.40464 19.817 -7.91958
629 1 7.20619 3.60309 21.6186 -7.96717
630 1 9.00773 5.40464 21.6186 -8.2989
533 2 10.8093 3.60309 18.0155 -7.08462
534 3 12.6108 5.40464 18.0155 -6.56981
535 3 12.6108 3.60309 19.817 -6.51864
536 3 10.8093 5.40464 19.817 -6.44867
633 2 10.8093 3.60309 21.6186 -6.99383
634 1 12.6108 5.40464 21.6186 -8.33496
537 1 14.4124 3.60309 18.0155 -8.52832
538 3 16.2139 5.40464 18.0155 -6.46143
539 3 16.2139 3.60309 19.817 -6.30176
540 3 14.4124 5.40464 19.817 -6.36896
637 3 14.4124 3.60309 21.6186 -6.37399
638 1 16.2139 5.40464 21.6186 -8.28989
541 3 0 7.20619 18.0155 -6.29623
542 1 1.80155 9.00773 18.0155 -8.32037
543 3 1.80155 7.20619 19.817 -6.56156
544 1 0 9.00773 19.817 -8.43124
641 2 0 7.20619 21.6186 -7.02022
642 2 1.80155 9.00773 21.6186 -6.92477
545 2 3.60309 7.20619 18.0155 -6.99961
546 2 5.40464 9.00773 18.0155 -6.94783
547 2 5.40464 7.20619 19.817 -7.09843
548 3 3.60309 9.00773 19.817 -6.52688
645 2 3.60309 7.20619 21.6186 -7.0619
646 3 5.40464 9.00773 21.6186 -6.33012
549 1 7.20619 7.20619 18.0155 -8.30228
550 3 9.00773 9.00773 18.0155 -6.35098
551 3 9.00773 7.20619 19.817 -6.3116
552 3 7.20619 9.00773 19.817 -6.25443
649 1 7.20619 7.20619 21.6186 -8.09486
650 1 9.00773 9.00773 21.6186 -8.27901
553 2 10.8093 7.20619 18.0155 -6.95429
554 2 12.6108 9.00773 18.0155 -7.0044
555 3 12.6108 7.20619 19.817 -6.51388
556 3 10.8093 9.00773 19.817 -6.40762
653 3 10.8093 7.20619 21.6186 -6.31796
654 3 12.6108 9.00773 21.6186 -6.39255
557 3 14.4124 7.20619 18.0155 -6.57505
558 2 16.2139 9.00773 18.0155 -7.11175
559 1 16.2139 7.20619 19.817 -8.24604
560 3 14.4124 9.00773 19.817 -6.40603
657 1 14.4124 7.20619 21.6186 -8.19958
658 2 16.2139 9.00773 21.6186 -7.10077
561 3 0 10.8093 18.0155 -6.34431
562 2 1.80155 12.6108 18.0155 -6.88353
563 3 1.80155 10.8093 19.817 -6.42167
564 1 0 12.6108 19.817 -8.38581
661 3 0 10.8093 21.6186 -6.2861
662 3 1.80155 12.6108 21.6186 -6.33873
565 2 3.60309 10.8093 18.0155 -6.9633
566 1 5.40464 12.6108 18.0155 -8.2763
567 1 5.40464 10.8093 19.817 -8.30023
568 3 3.60309 12.6108 19.817 -6.40552
665 1 3.60309 10.8093 21.6186 -8.31668
666 3 5.40464 12.6108 21.6186 -6.33223
569 1 7.20619 10.8093 18.0155 -8.19275
570 1 9.00773 12.6108 18.0155 -7.90606
571 1 9.00773 10.8093 19.817 -8.2054
572 1 7.20619 12.6108 19.817 -8.14451
669 3 7.20619 10.8093 21.6186 -6.14031
670 3 9.00773 12.6108 21.6186 -6.17628
573 2 10.8093 10.8093 18.0155 -7.03633
574 1 12.6108 12.6108 18.0155 -8.01065
575 1 12.6108 10.8093 19.817 -8.29205
576 1 10.8093 12.6108 19.817 -8.11749
673 3 10.8093 10.8093 21.6186 -6.25662
674 3 12.6108 12.6108 21.6186 -6.42912
577 1 14.4124 10.8093 18.0155 -8.23813
578 3 16.2139 12.6108 18.0155 -6.43038
579 1 16.2139 10.8093 19.817 -8.23679
580 1 14.4124 12.6108 19.817 -8.21009
677 2 14.4124 10.8093 21.6186 -6.984
678 1 16.2139 12.6108 21.6186 -8.3163
581 3 0 14.4124 18.0155 -6.30408
582 3 1.80155 16.2139 18.0155 -6.30867
583 1 1.80155 14.4124 19.817 -8.37712
584 1 0 16.2139 19.817 -8.37609
681 3 0 14.4124 21.6186 -6.2544
682 3 1.80155 16.2139 21.6186 -6.36195
585 3 3.60309 14.4124 18.0155 -6.37602
586 2 5.40464 16.2139 18.0155 -7.06011
587 2 5.40464 14.4124 19.817 -6.8982
588 1 3.60309 16.2139 19.817 -8.28205
685 3 3.60309 14.4124 21.6186 -6.39188
686 1 5.40464 16.2139 21.6186 -8.29686
589 2 7.20619 14.4124 18.0155 -7.04769
590 3 9.00773 16.2139 18.0155 -6.17212
591 1 9.00773 14.4124 19.817 -8.14016
592 1 7.20619 16.2139 19.817 -8.12931
689 3 7.20619 14.4124 21.6186 -6.27395
690 3 9.00773 16.2139 21.6186 -6.26646
593 1 10.8093 14.4124 18.0155 -7.92945
594 3 12.6108 16.2139 18.0155 -6.32128
595 2 12.6108 14.4124 19.817 -6.87686
596 1 10.8093 16.2139 19.817 -8.29102
693 2 10.8093 14.4124 21.6186 -6.94561
694 3 12.6108 16.2139 21.6186 -6.31637
597 3 14.4124 14.4124 18.0155 -6.32802
598 3 16.2139 16.2139 18.0155 -6.4865
599 3 16.2139 14.4124 19.817 -6.43593
600 1 14.4124 16.2139 19.817 -8.61279
697 3 14.4124 14.4124 21.6186 -6.36387
698 3 16.2139 16.2139 21.6186 -6.45331
603 2 1.80155 0 23.4201 -7.06303
604 1 0 1.80155 23.4201 -8.19243
701 2 0 0 25.2217 -6.98278
702 1 1.80155 1.80155 25.2217 -8.24837
607 1 5.40464 0 23.4201 -8.13961
608 3 3.60309 1.80155 23.4201 -6.22254
703 1 3.60309 0 25.2217 -8.23776
704 3 5.40464 1.80155 25.2217 -6.33271
611 3 9.00773 0 23.4201 -6.43626
612 2 7.20619 1.80155 23.4201 -7.02279
705 1 7.20619 0 25.2217 -8.24292
706 1 9.00773 1.80155 25.2217 -7.95394
615 3 12.6108 0 23.4201 -6.47119
616 1 10.8093 1.80155 23.4201 -8.17244
707 2 10.8093 0 25.2217 -7.03088
708 1 12.6108 1.80155 25.2217 -8.09603
619 2 16.2139 0 23.4201 -7.08749
620 1 14.4124 1.80155 23.4201 -8.29058
709 2 14.4124 0 25.2217 -7.12276
710 1 16.2139 1.80155 25.2217 -8.21795
623 1 1.80155 3.60309 23.4201 -8.27484
624 3 0 5.40464 23.4201 -6.56913
711 3 0 3.60309 25.2217 -6.5125
712 1 1.80155 5.40464 25.2217 -8.32898
627 1 5.40464 3.60309 23.4201 -8.20934
628 2 3.60309 5.40464 23.4201 -6.94159
713 3 3.60309 3.60309 25.2217 -6.40658
714 2 5.40464 5.40464 25.2217 -7.04425
631 2 9.00773 3.60309 23.4201 -7.06566
632 1 7.20619 5.40464 23.4201 -7.97464
715 1 7.20619 3.60309 25.2217 -8.06297
716 2 9.00773 5.40464 25.2217 -7.05313
635 1 12.6108 3.60309 23.4201 -8.22265
636 3 10.8093 5.40464 23.4201 -6.42909
717 2 10.8093 3.60309 25.2217 -7.05665
718 3 12.6108 5.40464 25.2217 -6.46545
639 2 16.2139 3.60309 23.4201 -6.96714
640 2 14.4124 5.40464 23.4201 -7.04072
719 3 14.4124 3.60309 25.2217 -6.45822
720 2 16.2139 5.40464 25.2217 -7.11884
643 3 1.80155 7.20619 23.4201 -6.47291
644 1 0 9.00773 23.4201 -8.55793
721 3 0 7.20619 25.2217 -6.39387
722 1 1.80155 9.00773 25.2217 -8.16143
647 2 5.40464 7.20619 23.4201 -7.01968
648 1 3.60309 9.00773 23.4201 -8.31577
723 3 3.60309 7.20619 25.2217 -6.34099
724 3 5.40464 9.00773 25.2217 -6.2783
651 3 9.00773 7.20619 23.4201 -6.33679
652 1 7.20619 9.00773 23.4201 -8.14359
725 1 7.20619 7.20619 25.2217 -8.22256
726 3 9.00773 9.00773 25.2217 -6.30243
655 1 12.6108 7.20619 23.4201 -8.41956
656 3 10.8093 9.00773 23.4201 -6.35356
727 3 10.8093 7.20619 25.2217 -6.44204
728 2 12.6108 9.00773 25.2217 -7.01448
659 2 16.2139 7.20619 23.4201 -7.11073
660 2 14.4124 9.00773 23.4201 -7.10576
729 2 14.4124 7.20619 25.2217 -7.11457
730 2 16.2139 9.00773 25.2217 -7.1179
663 2 1.80155 10.8093 23.4201 -6.93436
664 1 0 12.6108 23.4201 -8.38483
731 3 0 10.8093 25.2217 -6.31172
732 1 1.80155 12.6108 25.2217 -8.26556
667 1 5.40464 10.8093 23.4201 -8.29701
668 2 3.60309 12.6108 23.4201 -6.88803
733 3 3.60309 10.8093 25.2217 -6.3915
734 2 5.40464 12.6108 25.2217 -6.99331
671 1 9.00773 10.8093 23.4201 -8.38062
672 1 7.20619 12.6108 23.4201 -8.3702
735 3 7.20619 10.8093 25.2217 -6.38071
736 2 9.00773 12.6108 25.2217 -6.97121
675 1 12.6108 10.8093 23.4201 -8.54079
676 2 10.8093 12.6108 23.4201 -6.90979
737 3 10.8093 10.8093 25.2217 -6.41654
738 2 12.6108 12.6108 25.2217 -7.04514
679 1 16.2139 10.8093 23.4201 -8.39168
680 2 14.4124 12.6108 23.4201 -6.95927
739 2 14.4124 10.8093 25.2217 -7.06014
740 3 16.2139 12.6108 25.2217 -6.53733
683 1 1.80155 14.4124 23.4201 -8.30636
684 3 0 16.2139 23.4201 -6.41478
741 3 0 14.4124 25.2217 -6.39842
742 1 1.80155 16.2139 25.2217 -8.37324
687 3 5.40464 14.4124 23.4201 -6.46087
688 2 3.60309 16.2139 23.4201 -6.86599
743 1 3.60309 14.4124 25.2217 -8.19857
744 3 5.40464 16.2139 25.2217 -6.33743
691 1 9.00773 14.4124 23.4201 -8.40853
692 3 7.20619 16.2139 23.4201 -6.42953
745 2 7.20619 14.4124 25.2217 -6.91584
746 3 9.00773 16.2139 25.2217 -6.36438
695 3 12.6108 14.4124 23.4201 -6.53418
696 1 10.8093 16.2139 23.4201 -8.39086
747 3 10.8093 14.4124 25.2217 -6.49838
748 3 12.6108 16.2139 25.2217 -6.37917
699 3 16.2139 14.4124 23.4201 -6.44929
700 1 14.4124 16.2139 23.4201 -8.56205
749 3 14.4124 14.4124 25.2217 -6.52903
750 3 16.2139 16.2139 25.2217 -6.45098
751 3 1.80155 0 27.0232 -6.49723
752 2 0 1.80155 27.0232 -6.9496
801 2 0 0 28.8247 -7.01256
802 3 1.80155 1.80155 28.8247 -6.58929
803 2 1.80155 0 30.6263 -6.99652
804 1 0 1.80155 30.6263 -8.33063
753 2 5.40464 0 27.0232 -6.89408
754 3 3.60309 1.80155 27.0232 -6.48869
805 2 3.60309 0 28.8247 -6.95966
806 3 5.40464 1.80155 28.8247 -6.43651
807 1 5.40464 0 30.6263 -8.24535
808 3 3.60309 1.80155 30.6263 -6.42726
755 1 9.00773 0 27.0232 -8.17665
756 1 7.20619 1.80155 27.0232 -8.2295
809 3 7.20619 0 28.8247 -6.28939
810 3 9.00773 1.80155 28.8247 -6.29212
811 1 9.00773 0 30.6263 -8.20196
812 1 7.20619 1.80155 30.6263 -8.11546
757 1 12.6108 0 27.0232 -8.15185
758 2 10.8093 1.80155 27.0232 -6.99045
813 2 10.8093 0 28.8247 -7.04245
814 3 12.6108 1.80155 28.8247 -6.41619
815 2 12.6108 0 30.6263 -6.95362
816 1 10.8093 1.80155 30.6263 -8.20824
759 1 16.2139 0 27.0232 -8.06164
760 2 14.4124 1.80155 27.0232 -6.98747
817 3 14.4124 0 28.8247 -6.37567
818 1 16.2139 1.80155 28.8247 -8.15483
819 2 16.2139 0 30.6263 -7.03777
820 3 14.4124 1.80155 30.6263 -6.37112
761 2 1.80155 3.60309 27.0232 -6.96353
762 2 0 5.40464 27.0232 -6.96918
821 3 0 3.60309 28.8247 -6.6226
822 2 1.80155 5.40464 28.8247 -7.09464
823 2 1.80155 3.60309 30.6263 -6.99673
824 3 0 5.40464 30.6263 -6.46723
763 2 5.40464 3.60309 27.0232 -6.94377
764 1 3.60309 5.40464 27.0232 -8.24024
825 1 3.60309 3.60309 28.8247 -8.38725
826 3 5.40464 5.40464 28.8247 -6.42991
827 3 5.40464 3.60309 30.6263 -6.28137
828 1 3.60309 5.40464 30.6263 -8.02266
765 1 9.00773 3.60309 27.0232 -8.09658
766 2 7.20619 5.40464 27.0232 -7.01306
829 2 7.20619 3.60309 28.8247 -7.00857
830 2 9.00773 5.40464 28.8247 -7.15134
831 2 9.00773 3.60309 30.6263 -7.08568
832 2 7.20619 5.40464 30.6263 -7.05449
767 2 12.6108 3.60309 27.0232 -7.01333
768 1 10.8093 5.40464 27.0232 -8.1665
833 1 10.8093 3.60309 28.8247 -8.10528
834 1 12.6108 5.40464 28.8247 -7.89895
835 3 12.6108 3.60309 30.6263 -6.19115