ITEM: TIMESTEP
0
ITEM: NUMBER OF ATOMS
4000
ITEM: BOX BOUNDS pp pp pp
0.0000000000000000e+00 3.5734059999999999e+01
0.0000000000000000e+00 3.5734059999999999e+01
0.0000000000000000e+00 3.5734059999999999e+01
ITEM: ATOMS id type x y z c_peratom
1 3 0 0 0 -6.37808
2 2 1.7867 1.7867 0 -6.9488
3 3 1.7867 0 1.7867 -6.22536
4 1 0 1.7867 1.7867 -8.49532
101 1 0 0 3.57341 -8.15098
102 2 1.7867 1.7867 3.57341 -6.94148
5 3 3.57341 0 0 -6.38983
6 2 5.36011 1.7867 0 -7.03661
7 2 5.36011 0 1.7867 -7.06852
8 1 3.57341 1.7867 1.7867 -8.57487
105 1 3.57341 0 3.57341 -8.19711
106 2 5.36011 1.7867 3.57341 -6.97714
9 2 7.14681 0 0 -7.07009
10 2 8.93351 1.7867 0 -7.15998
11 2 8.93351 0 1.7867 -7.06139
12 1 7.14681 1.7867 1.7867 -8.21436
13 2 10.7202 0 0 -7.1121
16 2 10.7202 1.7867 1.7867 -6.9636
109 1 7.14681 0 3.57341 -8.27592
110 2 8.93351 1.7867 3.57341 -7.0183
113 1 10.7202 0 3.57341 -8.5749
14 3 12.5069 1.7867 0 -6.49799
15 1 12.5069 0 1.7867 -8.17161
114 3 12.5069 1.7867 3.57341 -6.28475
17 1 14.2936 0 0 -8.27388
18 2 16.0803 1.7867 0 -6.98655
19 2 16.0803 0 1.7867 -7.08183
20 1 14.2936 1.7867 1.7867 -8.22768
117 2 14.2936 0 3.57341 -6.8836
118 2 16.0803 1.7867 3.57341 -7.12437
21 3 0 3.57341 0 -6.53503
22 3 1.7867 5.36011 0 -6.45319
23 2 1.7867 3.57341 1.7867 -6.98149
24 2 0 5.36011 1.7867 -6.95257
121 1 0 3.57341 3.57341 -8.37684
122 3 1.7867 5.36011 3.57341 -6.35768
25 3 3.57341 3.57341 0 -6.50309
26 2 5.36011 5.36011 0 -6.99512
27 3 5.36011 3.57341 1.7867 -6.37903
28 1 3.57341 5.36011 1.7867 -8.56002
125 2 3.57341 3.57341 3.57341 -6.92024
126 3 5.36011 5.36011 3.57341 -6.33011
29 1 7.14681 3.57341 0 -8.47882
30 3 8.93351 5.36011 0 -6.50223
31 1 8.93351 3.57341 1.7867 -8.29708
32 2 7.14681 5.36011 1.7867 -6.89826
33 2 10.7202 3.57341 0 -7.05053
36 3 10.7202 5.36011 1.7867 -6.45989
129 1 7.14681 3.57341 3.57341 -8.19622
130 1 8.93351 5.36011 3.57341 -8.27797
133 3 10.7202 3.57341 3.57341 -6.36215
34 3 12.5069 5.36011 0 -6.50561
35 1 12.5069 3.57341 1.7867 -8.44606
134 2 12.5069 5.36011 3.57341 -6.90211
37 2 14.2936 3.57341 0 -6.97227
38 1 16.0803 5.36011 0 -8.16631
39 2 16.0803 3.57341 1.7867 -7.0441
40 1 14.2936 5.36011 1.7867 -8.25993
137 1 14.2936 3.57341 3.57341 -8.22821
138 2 16.0803 5.36011 3.57341 -7.03368
41 3 0 7.14681 0 -6.52661
42 3 1.7867 8.93351 0 -6.26173
43 1 1.7867 7.14681 1.7867 -8.38474
44 2 0 8.93351 1.7867 -6.91107
61 1 0 10.7202 0 -8.55557
63 3 1.7867 10.7202 1.7867 -6.45822
141 1 0 7.14681 3.57341 -8.54813
142 2 1.7867 8.93351 3.57341 -6.9398
161 1 0 10.7202 3.57341 -8.53709
45 3 3.57341 7.14681 0 -6.19464
46 2 5.36011 8.93351 0 -6.98532
47 1 5.36011 7.14681 1.7867 -8.2385
48 1 3.57341 8.93351 1.7867 -8.39489
65 3 3.57341 10.7202 0 -6.33429
67 1 5.36011 10.7202 1.7867 -8.36861
145 2 3.57341 7.14681 3.57341 -6.93434
146 1 5.36011 8.93351 3.57341 -8.41416
165 3 3.57341 10.7202 3.57341 -6.41379
49 1 7.14681 7.14681 0 -8.36293
50 3 8.93351 8.93351 0 -6.38689
51 3 8.93351 7.14681 1.7867 -6.47399
52 2 7.14681 8.93351 1.7867 -6.9462
53 2 10.7202 7.14681 0 -7.04652
56 3 10.7202 8.93351 1.7867 -6.46611
69 1 7.14681 10.7202 0 -8.25167
71 1 8.93351 10.7202 1.7867 -8.50569
73 2 10.7202 10.7202 0 -6.96261
149 3 7.14681 7.14681 3.57341 -6.32349
150 2 8.93351 8.93351 3.57341 -6.85419
153 1 10.7202 7.14681 3.57341 -8.63502
169 3 7.14681 10.7202 3.57341 -6.45626
173 1 10.7202 10.7202 3.57341 -8.39585
54 2 12.5069 8.93351 0 -7.0344
55 2 12.5069 7.14681 1.7867 -6.97772
75 1 12.5069 10.7202 1.7867 -8.4463
154 3 12.5069 8.93351 3.57341 -6.33918
57 2 14.2936 7.14681 0 -6.9564
58 3 16.0803 8.93351 0 -6.1906
59 3 16.0803 7.14681 1.7867 -6.31663
60 1 14.2936 8.93351 1.7867 -8.54794
77 3 14.2936 10.7202 0 -6.41016
79 3 16.0803 10.7202 1.7867 -6.43147
157 2 14.2936 7.14681 3.57341 -6.96066
158 2 16.0803 8.93351 3.57341 -7.02515
177 2 14.2936 10.7202 3.57341 -6.98963
62 3 1.7867 12.5069 0 -6.39825
64 3 0 12.5069 1.7867 -6.39657
162 2 1.7867 12.5069 3.57341 -6.93504
66 1 5.36011 12.5069 0 -8.28018
68 3 3.57341 12.5069 1.7867 -6.41045
166 2 5.36011 12.5069 3.57341 -6.91425
70 3 8.93351 12.5069 0 -6.24894
72 3 7.14681 12.5069 1.7867 -6.19537
76 2 10.7202 12.5069 1.7867 -6.94788
170 3 8.93351 12.5069 3.57341 -6.3107
74 2 12.5069 12.5069 0 -7.0542
174 2 12.5069 12.5069 3.57341 -7.00925
78 3 16.0803 12.5069 0 -6.37252
80 3 14.2936 12.5069 1.7867 -6.42924
178 1 16.0803 12.5069 3.57341 -8.50626
81 3 0 14.2936 0 -6.36367
82 2 1.7867 16.0803 0 -6.89398
83 1 1.7867 14.2936 1.7867 -8.63843
84 2 0 16.0803 1.7867 -6.99524
181 2 0 14.2936 3.57341 -6.97299
182 1 1.7867 16.0803 3.57341 -8.28194
85 3 3.57341 14.2936 0 -6.36283
86 1 5.36011 16.0803 0 -8.24493
87 2 5.36011 14.2936 1.7867 -6.88952
88 3 3.57341 16.0803 1.7867 -6.36803
185 2 3.57341 14.2936 3.57341 -6.95865
186 1 5.36011 16.0803 3.57341 -8.68132
89 1 7.14681 14.2936 0 -8.1938
90 1 8.93351 16.0803 0 -8.09842
91 1 8.93351 14.2936 1.7867 -8.19037
92 2 7.14681 16.0803 1.7867 -7.01472
93 1 10.7202 14.2936 0 -8.09948
96 2 10.7202 16.0803 1.7867 -7.10325
189 1 7.14681 14.2936 3.57341 -8.46841
190 1 8.93351 16.0803 3.57341 -8.37443
193 2 10.7202 14.2936 3.57341 -6.95698
94 1 12.5069 16.0803 0 -8.08338
95 1 12.5069 14.2936 1.7867 -8.30585
194 1 12.5069 16.0803 3.57341 -8.31115
97 2 14.2936 14.2936 0 -7.00878
98 1 16.0803 16.0803 0 -8.26043
99 1 16.0803 14.2936 1.7867 -8.43039
100 3 14.2936 16.0803 1.7867 -6.26982
197 2 14.2936 14.2936 3.57341 -6.96737
198 1 16.0803 16.0803 3.57341 -8.50929
103 3 1.7867 0 5.36011 -6.1729
104 1 0 1.7867 5.36011 -8.30931
201 3 0 0 7.14681 -6.2245
202 2 1.7867 1.7867 7.14681 -6.89592
107 3 5.36011 0 5.36011 -6.30336
108 1 3.57341 1.7867 5.36011 -8.58424
203 3 3.57341 0 7.14681 -6.29026
204 3 5.36011 1.7867 7.14681 -6.40422
111 3 8.93351 0 5.36011 -6.34367
112 1 7.14681 1.7867 5.36011 -8.40097
116 3 10.7202 1.7867 5.36011 -6.37222
205 3 7.14681 0 7.14681 -6.38942
206 3 8.93351 1.7867 7.14681 -6.21634
207 1 10.7202 0 7.14681 -8.50836
115 3 12.5069 0 5.36011 -6.35203
208 3 12.5069 1.7867 7.14681 -6.33858
119 2 16.0803 0 5.36011 -6.98688
120 1 14.2936 1.7867 5.36011 -8.57542
209 3 14.2936 0 7.14681 -6.38483
210 3 16.0803 1.7867 7.14681 -6.19228
123 3 1.7867 3.57341 5.36011 -6.32056
124 2 0 5.36011 5.36011 -6.94872
211 1 0 3.57341 7.14681 -8.14213
212 1 1.7867 5.36011 7.14681 -8.1702
127 2 5.36011 3.57341 5.36011 -6.97246
128 1 3.57341 5.36011 5.36011 -8.43299
213 2 3.57341 3.57341 7.14681 -6.96691
214 2 5.36011 5.36011 7.14681 -6.97053
131 1 8.93351 3.57341 5.36011 -8.42207
132 2 7.14681 5.36011 5.36011 -6.92218
136 3 10.7202 5.36011 5.36011 -6.33097
215 1 7.14681 3.57341 7.14681 -8.41292
216 3 8.93351 5.36011 7.14681 -6.38068
217 3 10.7202 3.57341 7.14681 -6.36435
135 3 12.5069 3.57341 5.36011 -6.42852
218 1 12.5069 5.36011 7.14681 -8.65986
139 1 16.0803 3.57341 5.36011 -8.24147
140 3 14.2936 5.36011 5.36011 -6.40048
219 3 14.2936 3.57341 7.14681 -6.30731
220 3 16.0803 5.36011 7.14681 -6.23754
143 3 1.7867 7.14681 5.36011 -6.34599
144 3 0 8.93351 5.36011 -6.41359
163 3 1.7867 10.7202 5.36011 -6.34406
221 1 0 7.14681 7.14681 -8.58258
222 3 1.7867 8.93351 7.14681 -6.33222
231 3 0 10.7202 7.14681 -6.36531
147 1 5.36011 7.14681 5.36011 -8.46857
148 3 3.57341 8.93351 5.36011 -6.3575
167 2 5.36011 10.7202 5.36011 -6.87717
223 1 3.57341 7.14681 7.14681 -8.40576
224 3 5.36011 8.93351 7.14681 -6.255
233 1 3.57341 10.7202 7.14681 -8.47236
151 1 8.93351 7.14681 5.36011 -8.57475
152 3 7.14681 8.93351 5.36011 -6.37768
156 3 10.7202 8.93351 5.36011 -6.37267
171 3 8.93351 10.7202 5.36011 -6.4408
225 3 7.14681 7.14681 7.14681 -6.42014
226 3 8.93351 8.93351 7.14681 -6.51502
227 2 10.7202 7.14681 7.14681 -6.90052
235 1 7.14681 10.7202 7.14681 -8.67778
237 2 10.7202 10.7202 7.14681 -6.86133
155 3 12.5069 7.14681 5.36011 -6.47359
175 1 12.5069 10.7202 5.36011 -8.31411
228 3 12.5069 8.93351 7.14681 -6.34485
159 1 16.0803 7.14681 5.36011 -8.4802
160 1 14.2936 8.93351 5.36011 -8.38917
179 2 16.0803 10.7202 5.36011 -7.04707
229 3 14.2936 7.14681 7.14681 -6.25675
230 1 16.0803 8.93351 7.14681 -8.44884
239 3 14.2936 10.7202 7.14681 -6.33439
164 1 0 12.5069 5.36011 -8.29801
232 1 1.7867 12.5069 7.14681 -8.23476
168 1 3.57341 12.5069 5.36011 -8.2957
234 2 5.36011 12.5069 7.14681 -6.92405
172 3 7.14681 12.5069 5.36011 -6.38151
176 1 10.7202 12.5069 5.36011 -8.46918
236 3 8.93351 12.5069 7.14681 -6.30157
238 3 12.5069 12.5069 7.14681 -6.17426
180 1 14.2936 12.5069 5.36011 -8.33432
240 2 16.0803 12.5069 7.14681 -6.90397
183 1 1.7867 14.2936 5.36011 -8.08112
184 2 0 16.0803 5.36011 -6.97965
241 3 0 14.2936 7.14681 -6.24415
242 1 1.7867 16.0803 7.14681 -8.57197
187 3 5.36011 14.2936 5.36011 -6.265
188 3 3.57341 16.0803 5.36011 -6.22189
243 1 3.57341 14.2936 7.14681 -8.26119
244 1 5.36011 16.0803 7.14681 -8.64391
191 3 8.93351 14.2936 5.36011 -6.26484
192 3 7.14681 16.0803 5.36011 -6.19778
196 2 10.7202 16.0803 5.36011 -6.95941
245 1 7.14681 14.2936 7.14681 -8.58295
246 1 8.93351 16.0803 7.14681 -8.27029
247 1 10.7202 14.2936 7.14681 -8.37793
195 3 12.5069 14.2936 5.36011 -6.28733
248 3 12.5069 16.0803 7.14681 -6.25708
199 3 16.0803 14.2936 5.36011 -6.35046
200 1 14.2936 16.0803 5.36011 -8.15787
249 1 14.2936 14.2936 7.14681 -8.49735
250 3 16.0803 16.0803 7.14681 -6.37514
251 1 1.7867 0 8.93351 -8.44512
252 3 0 1.7867 8.93351 -6.27394
301 2 0 0 10.7202 -6.96146
302 1 1.7867 1.7867 10.7202 -8.31573
303 1 1.7867 0 12.5069 -8.51238
304 2 0 1.7867 12.5069 -6.88973
253 1 5.36011 0 8.93351 -8.47893
254 3 3.57341 1.7867 8.93351 -6.33223
305 2 3.57341 0 10.7202 -6.91063
306 1 5.36011 1.7867 10.7202 -8.61153
307 3 5.36011 0 12.5069 -6.55463
308 3 3.57341 1.7867 12.5069 -6.3215
255 1 8.93351 0 8.93351 -8.32095
256 2 7.14681 1.7867 8.93351 -6.93586
258 1 10.7202 1.7867 8.93351 -8.48074
309 2 7.14681 0 10.7202 -7.06917
310 2 8.93351 1.7867 10.7202 -7.04046
311 3 8.93351 0 12.5069 -6.54744
312 2 7.14681 1.7867 12.5069 -7.04513
313 2 10.7202 0 10.7202 -7.01394
316 2 10.7202 1.7867 12.5069 -6.96685
257 2 12.5069 0 8.93351 -6.92726
314 3 12.5069 1.7867 10.7202 -6.43447
315 3 12.5069 0 12.5069 -6.36671
259 1 16.0803 0 8.93351 -8.55706
260 1 14.2936 1.7867 8.93351 -8.55578
317 2 14.2936 0 10.7202 -6.94215
318 2 16.0803 1.7867 10.7202 -6.92716
319 2 16.0803 0 12.5069 -6.96197
320 1 14.2936 1.7867 12.5069 -8.52559
261 1 1.7867 3.57341 8.93351 -8.21497
262 2 0 5.36011 8.93351 -7.04079
321 2 0 3.57341 10.7202 -6.99133
322 1 1.7867 5.36011 10.7202 -8.25341
323 1 1.7867 3.57341 12.5069 -8.36278
324 1 0 5.36011 12.5069 -8.35086
263 3 5.36011 3.57341 8.93351 -6.47943
264 2 3.57341 5.36011 8.93351 -6.90607
325 3 3.57341 3.57341 10.7202 -6.19299
326 1 5.36011 5.36011 10.7202 -8.34692
327 2 5.36011 3.57341 12.5069 -6.90597
328 1 3.57341 5.36011 12.5069 -8.29465
265 1 8.93351 3.57341 8.93351 -8.36771
266 3 7.14681 5.36011 8.93351 -6.34396
268 2 10.7202 5.36011 8.93351 -6.88361
329 2 7.14681 3.57341 10.7202 -7.01998
330 1 8.93351 5.36011 10.7202 -8.45072
331 1 8.93351 3.57341 12.5069 -8.28239
332 1 7.14681 5.36011 12.5069 -8.23169
333 3 10.7202 3.57341 10.7202 -6.39969
336 3 10.7202 5.36011 12.5069 -6.32265
267 2 12.5069 3.57341 8.93351 -6.86123
334 1 12.5069 5.36011 10.7202 -8.59261
335 3 12.5069 3.57341 12.5069 -6.39966
269 1 16.0803 3.57341 8.93351 -8.42038
270 2 14.2936 5.36011 8.93351 -6.90376
337 3 14.2936 3.57341 10.7202 -6.35696
338 1 16.0803 5.36011 10.7202 -8.22914
339 1 16.0803 3.57341 12.5069 -8.49636
340 2 14.2936 5.36011 12.5069 -6.95443
271 3 1.7867 7.14681 8.93351 -6.25135
272 3 0 8.93351 8.93351 -6.42139
281 3 1.7867 10.7202 8.93351 -6.37588
341 1 0 7.14681 10.7202 -8.47301
342 1 1.7867 8.93351 10.7202 -8.64104
343 3 1.7867 7.14681 12.5069 -6.27556
344 3 0 8.93351 12.5069 -6.33339
361 2 0 10.7202 10.7202 -6.94515
363 2 1.7867 10.7202 12.5069 -7.01791
273 1 5.36011 7.14681 8.93351 -8.49091
274 3 3.57341 8.93351 8.93351 -6.29812
283 1 5.36011 10.7202 8.93351 -8.45143
345 3 3.57341 7.14681 10.7202 -6.27371
346 3 5.36011 8.93351 10.7202 -6.421
347 1 5.36011 7.14681 12.5069 -8.34796
348 2 3.57341 8.93351 12.5069 -6.94093
365 2 3.57341 10.7202 10.7202 -6.91985
367 3 5.36011 10.7202 12.5069 -6.51877
275 3 8.93351 7.14681 8.93351 -6.54884
276 2 7.14681 8.93351 8.93351 -6.96033
278 2 10.7202 8.93351 8.93351 -6.9481
285 2 8.93351 10.7202 8.93351 -6.92616
349 2 7.14681 7.14681 10.7202 -6.95734
350 1 8.93351 8.93351 10.7202 -8.31596
351 3 8.93351 7.14681 12.5069 -6.38204
352 2 7.14681 8.93351 12.5069 -6.96639
353 3 10.7202 7.14681 10.7202 -6.36361
356 1 10.7202 8.93351 12.5069 -8.44838
369 1 7.14681 10.7202 10.7202 -8.38554
371 2 8.93351 10.7202 12.5069 -7.0102
373 1 10.7202 10.7202 10.7202 -8.12059
277 1 12.5069 7.14681 8.93351 -8.54014
287 1 12.5069 10.7202 8.93351 -8.49552
354 3 12.5069 8.93351 10.7202 -6.42529
355 2 12.5069 7.14681 12.5069 -6.97389
375 2 12.5069 10.7202 12.5069 -6.98852
279 1 16.0803 7.14681 8.93351 -8.47656
280 3 14.2936 8.93351 8.93351 -6.31505
289 3 16.0803 10.7202 8.93351 -6.43112
357 2 14.2936 7.14681 10.7202 -7.01188
358 2 16.0803 8.93351 10.7202 -6.93071
359 2 16.0803 7.14681 12.5069 -6.94082
360 2 14.2936 8.93351 12.5069 -7.03581
377 1 14.2936 10.7202 10.7202 -8.38791
379 1 16.0803 10.7202 12.5069 -8.24411
282 1 0 12.5069 8.93351 -8.53182
362 3 1.7867 12.5069 10.7202 -6.48626
364 3 0 12.5069 12.5069 -6.47982
284 2 3.57341 12.5069 8.93351 -6.90658
366 3 5.36011 12.5069 10.7202 -6.30091
368 1 3.57341 12.5069 12.5069 -8.6121
286 3 7.14681 12.5069 8.93351 -6.27896
288 1 10.7202 12.5069 8.93351 -8.313
370 3 8.93351 12.5069 10.7202 -6.21651
372 1 7.14681 12.5069 12.5069 -8.43474
376 1 10.7202 12.5069 12.5069 -8.20063
374 2 12.5069 12.5069 10.7202 -6.97499
290 3 14.2936 12.5069 8.93351 -6.28118
378 1 16.0803 12.5069 10.7202 -8.35621
380 2 14.2936 12.5069 12.5069 -7.07127
291 3 1.7867 14.2936 8.93351 -6.22952
292 3 0 16.0803 8.93351 -6.2401
381 3 0 14.2936 10.7202 -6.39854
382 1 1.7867 16.0803 10.7202 -8.56011
383 2 1.7867 14.2936 12.5069 -6.99164
384 2 0 16.0803 12.5069 -7.0127
293 2 5.36011 14.2936 8.93351 -6.9033
294 3 3.57341 16.0803 8.93351 -6.16562
385 1 3.57341 14.2936 10.7202 -8.41371
386 1 5.36011 16.0803 10.7202 -8.2972
387 3 5.36011 14.2936 12.5069 -6.26912
388 2 3.57341 16.0803 12.5069 -6.99485
295 2 8.93351 14.2936 8.93351 -6.86739
296 3 7.14681 16.0803 8.93351 -6.29322
298 3 10.7202 16.0803 8.93351 -6.2612
389 1 7.14681 14.2936 10.7202 -8.38018
390 2 8.93351 16.0803 10.7202 -6.90242
391 1 8.93351 14.2936 12.5069 -8.27007
392 1 7.14681 16.0803 12.5069 -8.05588
393 3 10.7202 14.2936 10.7202 -6.28707
396 3 10.7202 16.0803 12.5069 -6.41856
297 1 12.5069 14.2936 8.93351 -8.35531
394 1 12.5069 16.0803 10.7202 -8.4617
395 1 12.5069 14.2936 12.5069 -8.46831
299 3 16.0803 14.2936 8.93351 -6.33425
300 3 14.2936 16.0803 8.93351 -6.33603
397 3 14.2936 14.2936 10.7202 -6.25466
398 1 16.0803 16.0803 10.7202 -8.68793
399 1 16.0803 14.2936 12.5069 -8.34937
400 2 14.2936 16.0803 12.5069 -6.99541
401 3 0 0 14.2936 -6.36091
402 3 1.7867 1.7867 14.2936 -6.32713
403 3 1.7867 0 16.0803 -6.39361
404 3 0 1.7867 16.0803 -6.34593
405 2 3.57341 0 14.2936 -6.86771
406 1 5.36011 1.7867 14.2936 -8.50603
407 3 5.36011 0 16.0803 -6.49917
408 1 3.57341 1.7867 16.0803 -8.55728
409 3 7.14681 0 14.2936 -6.48543
410 2 8.93351 1.7867 14.2936 -7.06443
411 1 8.93351 0 16.0803 -8.43637
412 2 7.14681 1.7867 16.0803 -6.90489
413 1 10.7202 0 14.2936 -8.35942
416 1 10.7202 1.7867 16.0803 -8.08415
414 2 12.5069 1.7867 14.2936 -6.9632
415 2 12.5069 0 16.0803 -7.05642
417 1 14.2936 0 14.2936 -8.35749
418 3 16.0803 1.7867 14.2936 -6.34558
419 2 16.0803 0 16.0803 -7.02985
420 1 14.2936 1.7867 16.0803 -8.34333
421 3 0 3.57341 14.2936 -6.29959
422 2 1.7867 5.36011 14.2936 -6.8166
423 1 1.7867 3.57341 16.0803 -8.46506
424 3 0 5.36011 16.0803 -6.37162
425 3 3.57341 3.57341 14.2936 -6.13487
426 1 5.36011 5.36011 14.2936 -8.13613
427 1 5.36011 3.57341 16.0803 -8.24824
428 1 3.57341 5.36011 16.0803 -8.22055
429 2 7.14681 3.57341 14.2936 -7.02913
430 3 8.93351 5.36011 14.2936 -6.45532
431 1 8.93351 3.57341 16.0803 -8.32084
432 2 7.14681 5.36011 16.0803 -6.95724
433 1 10.7202 3.57341 14.2936 -8.16523
436 2 10.7202 5.36011 16.0803 -6.97148
434 1 12.5069 5.36011 14.2936 -8.40362
435 1 12.5069 3.57341 16.0803 -8.08188
437 3 14.2936 3.57341 14.2936 -6.33625
438 3 16.0803 5.36011 14.2936 -6.45138
439 3 16.0803 3.57341 16.0803 -6.53258
440 3 14.2936 5.36011 16.0803 -6.38294
441 2 0 7.14681 14.2936 -6.79844
442 1 1.7867 8.93351 14.2936 -8.39726
443 3 1.7867 7.14681 16.0803 -6.22921
444 1 0 8.93351 16.0803 -8.1981
461 1 0 10.7202 14.2936 -8.43978
463 1 1.7867 10.7202 16.0803 -8.07199
445 3 3.57341 7.14681 14.2936 -6.18288
446 2 5.36011 8.93351 14.2936 -6.95274
447 1 5.36011 7.14681 16.0803 -8.13195
448 1 3.57341 8.93351 16.0803 -8.1986
465 2 3.57341 10.7202 14.2936 -7.02513
467 1 5.36011 10.7202 16.0803 -8.28934
449 3 7.14681 7.14681 14.2936 -6.41009
450 2 8.93351 8.93351 14.2936 -6.97765
451 3 8.93351 7.14681 16.0803 -6.52649
452 2 7.14681 8.93351 16.0803 -7.01632
453 3 10.7202 7.14681 14.2936 -6.4447
456 1 10.7202 8.93351 16.0803 -8.43365
469 3 7.14681 10.7202 14.2936 -6.52995
471 3 8.93351 10.7202 16.0803 -6.52
473 1 10.7202 10.7202 14.2936 -8.19552
454 3 12.5069 8.93351 14.2936 -6.42858
455 2 12.5069 7.14681 16.0803 -6.92599
475 1 12.5069 10.7202 16.0803 -8.53057
457 1 14.2936 7.14681 14.2936 -8.6384
458 3 16.0803 8.93351 14.2936 -6.34694
459 3 16.0803 7.14681 16.0803 -6.29617
460 3 14.2936 8.93351 16.0803 -6.41741
477 2 14.2936 10.7202 14.2936 -6.96552
479 3 16.0803 10.7202 16.0803 -6.42634
462 2 1.7867 12.5069 14.2936 -7.03476
464 2 0 12.5069 16.0803 -6.89031
466 3 5.36011 12.5069 14.2936 -6.4404
468 2 3.57341 12.5069 16.0803 -7.00552
470 2 8.93351 12.5069 14.2936 -7.01164
472 3 7.14681 12.5069 16.0803 -6.4746
476 2 10.7202 12.5069 16.0803 -6.99681
474 2 12.5069 12.5069 14.2936 -7.06059
478 1 16.0803 12.5069 14.2936 -8.18733
480 2 14.2936 12.5069 16.0803 -6.94459
481 1 0 14.2936 14.2936 -8.17807
482 1 1.7867 16.0803 14.2936 -8.14641
483 1 1.7867 14.2936 16.0803 -8.40721
484 1 0 16.0803 16.0803 -8.16776
485 2 3.57341 14.2936 14.2936 -7.04056
486 1 5.36011 16.0803 14.2936 -8.25779
487 1 5.36011 14.2936 16.0803 -8.45174
488 2 3.57341 16.0803 16.0803 -7.03288
489 2 7.14681 14.2936 14.2936 -6.97199
490 1 8.93351 16.0803 14.2936 -8.46557
491 2 8.93351 14.2936 16.0803 -6.97348
492 3 7.14681 16.0803 16.0803 -6.50387
493 3 10.7202 14.2936 14.2936 -6.42207
496 2 10.7202 16.0803 16.0803 -6.98211
494 2 12.5069 16.0803 14.2936 -7.01138
495 1 12.5069 14.2936 16.0803 -8.63632
497 2 14.2936 14.2936 14.2936 -7.02016
498 3 16.0803 16.0803 14.2936 -6.3747
499 1 16.0803 14.2936 16.0803 -8.51694
500 1 14.2936 16.0803 16.0803 -8.27252
501 1 0 0 17.867 -8.50591
502 3 1.7867 1.7867 17.867 -6.40652
503 3 1.7867 0 19.6537 -6.48872
504 2 0 1.7867 19.6537 -7.00065
601 2 0 0 21.4404 -7.03267
602 2 1.7867 1.7867 21.4404 -7.08129
505 3 3.57341 0 17.867 -6.35979
506 3 5.36011 1.7867 17.867 -6.39098
507 3 5.36011 0 19.6537 -6.603
508 2 3.57341 1.7867 19.6537 -6.97002
605 2 3.57341 0 21.4404 -7.07352
606 3 5.36011 1.7867 21.4404 -6.66032
509 2 7.14681 0 17.867 -6.99008
510 3 8.93351 1.7867 17.867 -6.39845
511 3 8.93351 0 19.6537 -6.66208
512 1 7.14681 1.7867 19.6537 -8.70838
513 2 10.7202 0 17.867 -7.05371
516 1 10.7202 1.7867 19.6537 -8.61931
609 2 7.14681 0 21.4404 -7.09557
610 2 8.93351 1.7867 21.4404 -7.02984
613 2 10.7202 0 21.4404 -7.02701
514 1 12.5069 1.7867 17.867 -8.30692
515 3 12.5069 0 19.6537 -6.52597
614 2 12.5069 1.7867 21.4404 -6.95899
517 2 14.2936 0 17.867 -7.031
518 2 16.0803 1.7867 17.867 -6.99303
519 1 16.0803 0 19.6537 -8.46612
520 2 14.2936 1.7867 19.6537 -6.98836
617 2 14.2936 0 21.4404 -6.9904
618 3 16.0803 1.7867 21.4404 -6.50013
521 2 0 3.57341 17.867 -6.90185
522 1 1.7867 5.36011 17.867 -8.21751
523 1 1.7867 3.57341 19.6537 -8.35202
524 1 0 5.36011 19.6537 -8.23477
621 2 0 3.57341 21.4404 -7.08553
622 2 1.7867 5.36011 21.4404 -7.04057
525 3 3.57341 3.57341 17.867 -6.19438
526 1 5.36011 5.36011 17.867 -8.15852
527 1 5.36011 3.57341 19.6537 -8.44471
528 2 3.57341 5.36011 19.6537 -7.02549
625 2 3.57341 3.57341 21.4404 -7.07835
626 2 5.36011 5.36011 21.4404 -7.01194
529 3 7.14681 3.57341 17.867 -6.30639
530 1 8.93351 5.36011 17.867 -8.35188
531 2 8.93351 3.57341 19.6537 -6.96427
532 2 7.14681 5.36011 19.6537 -7.01087
533 2 10.7202 3.57341 17.867 -7.02641
536 1 10.7202 5.36011 19.6537 -8.31945
629 3 7.14681 3.57341 21.4404 -6.54855
630 2 8.93351 5.36011 21.4404 -7.01997
633 3 10.7202 3.57341 21.4404 -6.45972
534 1 12.5069 5.36011 17.867 -8.35476
535 3 12.5069 3.57341 19.6537 -6.35096
634 1 12.5069 5.36011 21.4404 -8.48946
537 3 14.2936 3.57341 17.867 -6.35435
538 2 16.0803 5.36011 17.867 -6.93029
539 1 16.0803 3.57341 19.6537 -8.63124
540 3 14.2936 5.36011 19.6537 -6.34421
637 3 14.2936 3.57341 21.4404 -6.33776
638 1 16.0803 5.36011 21.4404 -8.54728
541 1 0 7.14681 17.867 -8.4521
542 3 1.7867 8.93351 17.867 -6.31067
543 3 1.7867 7.14681 19.6537 -6.45846
544 2 0 8.93351 19.6537 -6.97914
561 1 0 10.7202 17.867 -8.3571
563 2 1.7867 10.7202 19.6537 -7.01866
641 2 0 7.14681 21.4404 -7.07939
642 1 1.7867 8.93351 21.4404 -8.29764
661 2 0 10.7202 21.4404 -7.06057
545 2 3.57341 7.14681 17.867 -7.03854
546 1 5.36011 8.93351 17.867 -8.0357
547 1 5.36011 7.14681 19.6537 -8.25499
548 2 3.57341 8.93351 19.6537 -7.09431
565 1 3.57341 10.7202 17.867 -8.11699
567 1 5.36011 10.7202 19.6537 -8.12109
645 2 3.57341 7.14681 21.4404 -7.01774
646 1 5.36011 8.93351 21.4404 -8.18167
665 1 3.57341 10.7202 21.4404 -8.26559
549 2 7.14681 7.14681 17.867 -7.08172
550 1 8.93351 8.93351 17.867 -8.45381
551 2 8.93351 7.14681 19.6537 -7.10063
552 2 7.14681 8.93351 19.6537 -7.06977
553 2 10.7202 7.14681 17.867 -7.03764
556 2 10.7202 8.93351 19.6537 -7.07362
569 2 7.14681 10.7202 17.867 -7.03682
571 2 8.93351 10.7202 19.6537 -7.06681
573 2 10.7202 10.7202 17.867 -6.99843
649 3 7.14681 7.14681 21.4404 -6.45725
650 1 8.93351 8.93351 21.4404 -8.47082
653 2 10.7202 7.14681 21.4404 -7.06726
669 2 7.14681 10.7202 21.4404 -7.06438
673 3 10.7202 10.7202 21.4404 -6.54236
554 3 12.5069 8.93351 17.867 -6.46565
555 2 12.5069 7.14681 19.6537 -7.02484
575 1 12.5069 10.7202 19.6537 -8.87147
654 2 12.5069 8.93351 21.4404 -6.98814
557 1 14.2936 7.14681 17.867 -8.65373
558 3 16.0803 8.93351 17.867 -6.3523
559 2 16.0803 7.14681 19.6537 -6.93056
560 3 14.2936 8.93351 19.6537 -6.41213
577 3 14.2936 10.7202 17.867 -6.40739
579 1 16.0803 10.7202 19.6537 -8.55057
657 3 14.2936 7.14681 21.4404 -6.38089
658 1 16.0803 8.93351 21.4404 -8.54087
677 3 14.2936 10.7202 21.4404 -6.33758
562 2 1.7867 12.5069 17.867 -7.07088
564 1 0 12.5069 19.6537 -8.37185
662 2 1.7867 12.5069 21.4404 -7.07764
566 1 5.36011 12.5069 17.867 -8.1288
568 2 3.57341 12.5069 19.6537 -7.08168
666 3 5.36011 12.5069 21.4404 -6.38339
570 1 8.93351 12.5069 17.867 -8.61811
572 2 7.14681 12.5069 19.6537 -7.0906
576 3 10.7202 12.5069 19.6537 -6.54628
670 2 8.93351 12.5069 21.4404 -7.09231
574 3 12.5069 12.5069 17.867 -6.45522
674 3 12.5069 12.5069 21.4404 -6.3389
578 3 16.0803 12.5069 17.867 -6.38173
580 3 14.2936 12.5069 19.6537 -6.3736
678 3 16.0803 12.5069 21.4404 -6.40712
581 3 0 14.2936 17.867 -6.35143
582 3 1.7867 16.0803 17.867 -6.44793
583 2 1.7867 14.2936 19.6537 -7.07962
584 2 0 16.0803 19.6537 -7.03619
681 2 0 14.2936 21.4404 -7.07502
682 2 1.7867 16.0803 21.4404 -7.01141
585 3 3.57341 14.2936 17.867 -6.46734
586 2 5.36011 16.0803 17.867 -6.99951
587 1 5.36011 14.2936 19.6537 -8.37188
588 2 3.57341 16.0803 19.6537 -7.05355
685 3 3.57341 14.2936 21.4404 -6.45518
686 1 5.36011 16.0803 21.4404 -8.1295
589 2 7.14681 14.2936 17.867 -7.05566
590 3 8.93351 16.0803 17.867 -6.64311
591 2 8.93351 14.2936 19.6537 -7.03348
592 1 7.14681 16.0803 19.6537 -8.44042
593 3 10.7202 14.2936 17.867 -6.61377
596 3 10.7202 16.0803 19.6537 -6.54599
689 2 7.14681 14.2936 21.4404 -7.06008
690 2 8.93351 16.0803 21.4404 -6.98131
693 1 10.7202 14.2936 21.4404 -8.63504
594 3 12.5069 16.0803 17.867 -6.47145
595 2 12.5069 14.2936 19.6537 -6.86873
694 3 12.5069 16.0803 21.4404 -6.32132
597 3 14.2936 14.2936 17.867 -6.40496
598 2 16.0803 16.0803 17.867 -6.83722
599 1 16.0803 14.2936 19.6537 -8.82531
600 3 14.2936 16.0803 19.6537 -6.36692
697 2 14.2936 14.2936 21.4404 -6.82733
698 3 16.0803 16.0803 21.4404 -6.39742
603 1 1.7867 0 23.2271 -8.40645
604 2 0 1.7867 23.2271 -7.04133
701 2 0 0 25.0138 -6.98734
702 1 1.7867 1.7867 25.0138 -8.41466
607 2 5.36011 0 23.2271 -7.12813
608 2 3.57341 1.7867 23.2271 -7.10081
703 2 3.57341 0 25.0138 -7.00467
704 2 5.36011 1.7867 25.0138 -7.05656
611 1 8.93351 0 23.2271 -8.69385
612 2 7.14681 1.7867 23.2271 -7.09088
616 2 10.7202 1.7867 23.2271 -6.93118
705 3 7.14681 0 25.0138 -6.57274
706 3 8.93351 1.7867 25.0138 -6.53857
707 3 10.7202 0 25.0138 -6.47477
615 3 12.5069 0 23.2271 -6.53896
708 1 12.5069 1.7867 25.0138 -8.48609
619 3 16.0803 0 23.2271 -6.46377
620 3 14.2936 1.7867 23.2271 -6.44905
709 2 14.2936 0 25.0138 -6.94082
710 1 16.0803 1.7867 25.0138 -8.3324
623 1 1.7867 3.57341 23.2271 -8.49126
624 2 0 5.36011 23.2271 -7.0107
711 3 0 3.57341 25.0138 -6.29775
712 3 1.7867 5.36011 25.0138 -6.38405
627 3 5.36011 3.57341 23.2271 -6.6571
628 3 3.57341 5.36011 23.2271 -6.47911
713 3 3.57341 3.57341 25.0138 -6.36444
714 1 5.36011 5.36011 25.0138 -8.29668
631 3 8.93351 3.57341 23.2271 -6.61755
632 1 7.14681 5.36011 23.2271 -8.5376
636 3 10.7202 5.36011 23.2271 -6.45498
715 2 7.14681 3.57341 25.0138 -7.06865
716 2 8.93351 5.36011 25.0138 -7.00423
717 1 10.7202 3.57341 25.0138 -8.5379
635 1 12.5069 3.57341 23.2271 -8.22705
718 3 12.5069 5.36011 25.0138 -6.17328
639 2 16.0803 3.57341 23.2271 -6.8446
640 1 14.2936 5.36011 23.2271 -8.20494
719 1 14.2936 3.57341 25.0138 -8.41363
720 3 16.0803 5.36011 25.0138 -6.37446
643 1 1.7867 7.14681 23.2271 -8.3897
644 2 0 8.93351 23.2271 -7.07119
663 1 1.7867 10.7202 23.2271 -8.31034
721 2 0 7.14681 25.0138 -6.9928
722 2 1.7867 8.93351 25.0138 -6.941
731 3 0 10.7202 25.0138 -6.32253
647 2 5.36011 7.14681 23.2271 -6.96782
648 3 3.57341 8.93351 23.2271 -6.30603
667 3 5.36011 10.7202 23.2271 -6.37578
723 1 3.57341 7.14681 25.0138 -8.48978
724 3 5.36011 8.93351 25.0138 -6.40516
733 1 3.57341 10.7202 25.0138 -8.52134
651 2 8.93351 7.14681 23.2271 -7.09468
652 1 7.14681 8.93351 23.2271 -8.33411
656 2 10.7202 8.93351 23.2271 -7.0071
671 2 8.93351 10.7202 23.2271 -7.01317
725 2 7.14681 7.14681 25.0138 -6.97234
726 1 8.93351 8.93351 25.0138 -8.01417
727 1 10.7202 7.14681 25.0138 -8.40548
735 2 7.14681 10.7202 25.0138 -6.93251
737 1 10.7202 10.7202 25.0138 -8.24274
655 3 12.5069 7.14681 23.2271 -6.39596
675 1 12.5069 10.7202 23.2271 -8.52868
728 3 12.5069 8.93351 25.0138 -6.26501
659 3 16.0803 7.14681 23.2271 -6.26579
660 2 14.2936 8.93351 23.2271 -6.85227
679 3 16.0803 10.7202 23.2271 -6.38077
729 1 14.2936 7.14681 25.0138 -8.34394
730 1 16.0803 8.93351 25.0138 -8.47823
739 3 14.2936 10.7202 25.0138 -6.36618
664 2 0 12.5069 23.2271 -7.04517
732 2 1.7867 12.5069 25.0138 -7.00801
668 2 3.57341 12.5069 23.2271 -6.95421
734 3 5.36011 12.5069 25.0138 -6.35914
672 1 7.14681 12.5069 23.2271 -8.47343
676 3 10.7202 12.5069 23.2271 -6.3253
736 3 8.93351 12.5069 25.0138 -6.21957
738 3 12.5069 12.5069 25.0138 -6.2282
680 1 14.2936 12.5069 23.2271 -8.44518
740 2 16.0803 12.5069 25.0138 -6.89146
683 1 1.7867 14.2936 23.2271 -8.64471
684 2 0 16.0803 23.2271 -6.98858
741 2 0 14.2936 25.0138 -7.03203
742 3 1.7867 16.0803 25.0138 -6.52458
687 1 5.36011 14.2936 23.2271 -8.41114
688 3 3.57341 16.0803 23.2271 -6.29829
743 3 3.57341 14.2936 25.0138 -6.43833
744 3 5.36011 16.0803 25.0138 -6.33635
691 2 8.93351 14.2936 23.2271 -6.96461
692 1 7.14681 16.0803 23.2271 -8.25281
696 3 10.7202 16.0803 23.2271 -6.30649
745 1 7.14681 14.2936 25.0138 -8.29972
746 1 8.93351 16.0803 25.0138 -8.46039
747 1 10.7202 14.2936 25.0138 -8.39351
695 1 12.5069 14.2936 23.2271 -8.36977
748 1 12.5069 16.0803 25.0138 -8.45885
699 1 16.0803 14.2936 23.2271 -8.48364
700 3 14.2936 16.0803 23.2271 -6.33906
749 2 14.2936 14.2936 25.0138 -6.89246
750 3 16.0803 16.0803 25.0138 -6.45741
751 3 1.7867 0 26.8005 -6.36296
752 3 0 1.7867 26.8005 -6.50482
801 2 0 0 28.5872 -6.95931
802 2 1.7867 1.7867 28.5872 -6.89383
803 1 1.7867 0 30.374 -8.56457
804 1 0 1.7867 30.374 -8.45528
753 3 5.36011 0 26.8005 -6.34598
754 1 3.57341 1.7867 26.8005 -8.50331
805 3 3.57341 0 28.5872 -6.27081
806 1 5.36011 1.7867 28.5872 -8.27552
807 1 5.36011 0 30.374 -8.4036
808 3 3.57341 1.7867 30.374 -6.26755
755 1 8.93351 0 26.8005 -8.69415
756 2 7.14681 1.7867 26.8005 -7.03967
758 3 10.7202 1.7867 26.8005 -6.40549
809 1 7.14681 0 28.5872 -8.16709
810 2 8.93351 1.7867 28.5872 -6.96117
811 1 8.93351 0 30.374 -8.45255
812 3 7.14681 1.7867 30.374 -6.31077
813 3 10.7202 0 28.5872 -6.45656
816 2 10.7202 1.7867 30.374 -7.03362
757 3 12.5069 0 26.8005 -6.48732
814 3 12.5069 1.7867 28.5872 -6.55917
815 2 12.5069 0 30.374 -7.00406
759 2 16.0803 0 26.8005 -6.92592
760 2 14.2936 1.7867 26.8005 -6.91544
817 3 14.2936 0 28.5872 -6.42779
818 3 16.0803 1.7867 28.5872 -6.43498
819 3 16.0803 0 30.374 -6.19156
820 1 14.2936 1.7867 30.374 -8.53391
761 3 1.7867 3.57341 26.8005 -6.38058
762 1 0 5.36011 26.8005 -8.70344
821 3 0 3.57341 28.5872 -6.47591
822 3 1.7867 5.36011 28.5872 -6.41387
823 1 1.7867 3.57341 30.374 -8.53247
824 2 0 5.36011 30.374 -6.97932
763 2 5.36011 3.57341 26.8005 -7.06565
764 1 3.57341 5.36011 26.8005 -8.48463
825 2 3.57341 3.57341 28.5872 -6.96029
826 1 5.36011 5.36011 28.5872 -8.16311
827 2 5.36011 3.57341 30.374 -6.92703
828 2 3.57341 5.36011 30.374 -6.89571
765 2 8.93351 3.57341 26.8005 -7.05558
766 1 7.14681 5.36011 26.8005 -8.24167
768 2 10.7202 5.36011 26.8005 -6.9309
829 1 7.14681 3.57341 28.5872 -8.23726
830 1 8.93351 5.36011 28.5872 -8.33201
831 2 8.93351 3.57341 30.374 -7.04437
832 2 7.14681 5.36011 30.374 -7.0234
833 1 10.7202 3.57341 28.5872 -8.51157
836 2 10.7202 5.36011 30.374 -7.05356
767 3 12.5069 3.57341 26.8005 -6.36036
834 3 12.5069 5.36011 28.5872 -6.3786
835 2 12.5069 3.57341 30.374 -7.00612
769 3 16.0803 3.57341 26.8005 -6.37412
770 3 14.2936 5.36011 26.8005 -6.20572
837 3 14.2936 3.57341 28.5872 -6.51132
838 1 16.0803 5.36011 28.5872 -8.47273
839 2 16.0803 3.57341 30.374 -6.89327