ITEM: TIMESTEP
0
ITEM: NUMBER OF ATOMS
4000
ITEM: BOX BOUNDS pp pp pp
0.0000000000000000e+00 3.5680830000000000e+01
0.0000000000000000e+00 3.5680830000000000e+01
0.0000000000000000e+00 3.5680830000000000e+01
ITEM: ATOMS id type x y z c_peratom
1 2 0 0 0 -6.94653
2 2 1.78404 1.78404 0 -6.95763
3 2 1.78404 0 1.78404 -6.96732
4 1 0 1.78404 1.78404 -8.49309
101 3 0 0 3.56808 -6.54131
102 2 1.78404 1.78404 3.56808 -7.01483
5 1 3.56808 0 0 -8.32156
6 3 5.35212 1.78404 0 -6.28888
7 1 5.35212 0 1.78404 -8.34499
8 3 3.56808 1.78404 1.78404 -6.3612
105 2 3.56808 0 3.56808 -6.98862
106 1 5.35212 1.78404 3.56808 -8.31494
9 3 7.13617 0 0 -6.49529
10 2 8.92021 1.78404 0 -7.07081
11 2 8.92021 0 1.78404 -6.91319
12 3 7.13617 1.78404 1.78404 -6.34541
109 2 7.13617 0 3.56808 -6.93841
110 3 8.92021 1.78404 3.56808 -6.4504
13 2 10.7042 0 0 -6.96146
14 3 12.4883 1.78404 0 -6.36499
15 1 12.4883 0 1.78404 -8.66908
16 3 10.7042 1.78404 1.78404 -6.35959
113 1 10.7042 0 3.56808 -8.48396
114 2 12.4883 1.78404 3.56808 -6.98706
17 2 14.2723 0 0 -7.00416
18 3 16.0564 1.78404 0 -6.42798
19 2 16.0564 0 1.78404 -7.09994
20 2 14.2723 1.78404 1.78404 -7.03621
117 3 14.2723 0 3.56808 -6.60689
118 2 16.0564 1.78404 3.56808 -7.07255
21 1 0 3.56808 0 -8.67535
22 3 1.78404 5.35212 0 -6.30222
23 2 1.78404 3.56808 1.78404 -6.94795
24 2 0 5.35212 1.78404 -6.91035
121 1 0 3.56808 3.56808 -8.39141
122 3 1.78404 5.35212 3.56808 -6.2988
25 1 3.56808 3.56808 0 -8.30512
26 1 5.35212 5.35212 0 -8.14523
27 1 5.35212 3.56808 1.78404 -8.40062
28 3 3.56808 5.35212 1.78404 -6.21576
125 3 3.56808 3.56808 3.56808 -6.45098
126 2 5.35212 5.35212 3.56808 -6.89921
29 2 7.13617 3.56808 0 -6.9513
30 2 8.92021 5.35212 0 -6.98023
31 1 8.92021 3.56808 1.78404 -8.59765
32 3 7.13617 5.35212 1.78404 -6.24629
129 1 7.13617 3.56808 3.56808 -8.5059
130 3 8.92021 5.35212 3.56808 -6.42737
33 1 10.7042 3.56808 0 -8.3595
34 2 12.4883 5.35212 0 -6.98572
35 1 12.4883 3.56808 1.78404 -8.51731
36 3 10.7042 5.35212 1.78404 -6.29267
133 3 10.7042 3.56808 3.56808 -6.45662
134 3 12.4883 5.35212 3.56808 -6.44588
37 1 14.2723 3.56808 0 -8.52567
38 3 16.0564 5.35212 0 -6.38726
39 2 16.0564 3.56808 1.78404 -7.04491
40 2 14.2723 5.35212 1.78404 -7.02874
137 2 14.2723 3.56808 3.56808 -7.03719
138 2 16.0564 5.35212 3.56808 -7.04588
41 1 0 7.13617 0 -8.35855
42 3 1.78404 8.92021 0 -6.30205
43 1 1.78404 7.13617 1.78404 -8.4465
44 1 0 8.92021 1.78404 -8.1963
141 1 0 7.13617 3.56808 -8.25251
142 2 1.78404 8.92021 3.56808 -7.00018
45 3 3.56808 7.13617 0 -6.34904
46 1 5.35212 8.92021 0 -8.26082
47 1 5.35212 7.13617 1.78404 -8.35985
48 3 3.56808 8.92021 1.78404 -6.24732
145 1 3.56808 7.13617 3.56808 -8.15275
146 1 5.35212 8.92021 3.56808 -8.52302
49 2 7.13617 7.13617 0 -6.9651
50 1 8.92021 8.92021 0 -8.11689
51 1 8.92021 7.13617 1.78404 -8.42841
52 3 7.13617 8.92021 1.78404 -6.24913
149 2 7.13617 7.13617 3.56808 -6.9873
150 1 8.92021 8.92021 3.56808 -8.49535
53 1 10.7042 7.13617 0 -8.27866
54 3 12.4883 8.92021 0 -6.55685
55 1 12.4883 7.13617 1.78404 -8.60331
56 2 10.7042 8.92021 1.78404 -7.09873
153 2 10.7042 7.13617 3.56808 -7.00544
154 2 12.4883 8.92021 3.56808 -7.11262
57 3 14.2723 7.13617 0 -6.67713
58 3 16.0564 8.92021 0 -6.4734
59 2 16.0564 7.13617 1.78404 -7.01556
60 2 14.2723 8.92021 1.78404 -7.02107
157 2 14.2723 7.13617 3.56808 -7.0608
158 1 16.0564 8.92021 3.56808 -8.35247
61 3 0 10.7042 0 -6.24804
62 1 1.78404 12.4883 0 -8.24565
63 2 1.78404 10.7042 1.78404 -6.8906
64 2 0 12.4883 1.78404 -6.97434
161 1 0 10.7042 3.56808 -8.21825
162 1 1.78404 12.4883 3.56808 -8.3231
65 1 3.56808 10.7042 0 -8.28394
66 3 5.35212 12.4883 0 -6.27937
67 2 5.35212 10.7042 1.78404 -6.91773
68 3 3.56808 12.4883 1.78404 -6.32481
165 3 3.56808 10.7042 3.56808 -6.40835
166 1 5.35212 12.4883 3.56808 -8.41396
69 1 7.13617 10.7042 0 -8.30026
70 3 8.92021 12.4883 0 -6.25981
71 2 8.92021 10.7042 1.78404 -7.01019
72 1 7.13617 12.4883 1.78404 -8.38556
169 2 7.13617 10.7042 3.56808 -6.98637
170 3 8.92021 12.4883 3.56808 -6.46904
73 1 10.7042 10.7042 0 -8.46414
74 2 12.4883 12.4883 0 -6.99784
75 2 12.4883 10.7042 1.78404 -7.09144
76 2 10.7042 12.4883 1.78404 -6.98691
173 2 10.7042 10.7042 3.56808 -7.12854
174 3 12.4883 12.4883 3.56808 -6.57634
77 3 14.2723 10.7042 0 -6.58619
78 3 16.0564 12.4883 0 -6.29904
79 1 16.0564 10.7042 1.78404 -8.57487
80 3 14.2723 12.4883 1.78404 -6.456
177 2 14.2723 10.7042 3.56808 -6.99109
178 3 16.0564 12.4883 3.56808 -6.29096
81 2 0 14.2723 0 -6.94796
82 1 1.78404 16.0564 0 -8.33726
83 2 1.78404 14.2723 1.78404 -7.01444
84 1 0 16.0564 1.78404 -8.12787
181 1 0 14.2723 3.56808 -8.26322
182 2 1.78404 16.0564 3.56808 -6.94333
85 1 3.56808 14.2723 0 -8.31531
86 3 5.35212 16.0564 0 -6.22898
87 3 5.35212 14.2723 1.78404 -6.25593
88 1 3.56808 16.0564 1.78404 -8.27957
185 2 3.56808 14.2723 3.56808 -6.9898
186 1 5.35212 16.0564 3.56808 -8.41317
89 3 7.13617 14.2723 0 -6.30134
90 2 8.92021 16.0564 0 -6.98206
91 1 8.92021 14.2723 1.78404 -8.39965
92 1 7.13617 16.0564 1.78404 -8.4246
189 2 7.13617 14.2723 3.56808 -7.00828
190 2 8.92021 16.0564 3.56808 -6.90022
93 1 10.7042 14.2723 0 -8.36749
94 2 12.4883 16.0564 0 -6.83859
95 3 12.4883 14.2723 1.78404 -6.39147
96 3 10.7042 16.0564 1.78404 -6.4028
193 3 10.7042 14.2723 3.56808 -6.48605
194 1 12.4883 16.0564 3.56808 -8.67675
97 1 14.2723 14.2723 0 -8.68082
98 1 16.0564 16.0564 0 -8.68999
99 3 16.0564 14.2723 1.78404 -6.21348
100 3 14.2723 16.0564 1.78404 -6.3377
197 1 14.2723 14.2723 3.56808 -8.58568
198 3 16.0564 16.0564 3.56808 -6.30685
103 1 1.78404 0 5.35212 -8.30309
104 2 0 1.78404 5.35212 -6.97765
201 1 0 0 7.13617 -8.3372
202 2 1.78404 1.78404 7.13617 -7.09869
107 3 5.35212 0 5.35212 -6.47304
108 1 3.56808 1.78404 5.35212 -8.43056
203 2 3.56808 0 7.13617 -6.97795
204 2 5.35212 1.78404 7.13617 -7.04274
111 3 8.92021 0 5.35212 -6.5602
112 2 7.13617 1.78404 5.35212 -7.02114
205 3 7.13617 0 7.13617 -6.59354
206 2 8.92021 1.78404 7.13617 -6.98118
115 2 12.4883 0 5.35212 -7.02434
116 3 10.7042 1.78404 5.35212 -6.53273
207 1 10.7042 0 7.13617 -8.58216
208 2 12.4883 1.78404 7.13617 -6.8429
119 2 16.0564 0 5.35212 -7.04466
120 1 14.2723 1.78404 5.35212 -8.46579
209 1 14.2723 0 7.13617 -8.3548
210 3 16.0564 1.78404 7.13617 -6.17987
123 2 1.78404 3.56808 5.35212 -7.03261
124 2 0 5.35212 5.35212 -7.05103
211 1 0 3.56808 7.13617 -8.36965
212 2 1.78404 5.35212 7.13617 -7.04339
127 3 5.35212 3.56808 5.35212 -6.51783
128 1 3.56808 5.35212 5.35212 -8.52287
213 2 3.56808 3.56808 7.13617 -6.9977
214 2 5.35212 5.35212 7.13617 -7.03394
131 3 8.92021 3.56808 5.35212 -6.58377
132 2 7.13617 5.35212 5.35212 -7.00571
215 2 7.13617 3.56808 7.13617 -7.07148
216 3 8.92021 5.35212 7.13617 -6.51279
135 3 12.4883 3.56808 5.35212 -6.40354
136 1 10.7042 5.35212 5.35212 -8.65456
217 3 10.7042 3.56808 7.13617 -6.50592
218 1 12.4883 5.35212 7.13617 -8.47945
139 3 16.0564 3.56808 5.35212 -6.28678
140 1 14.2723 5.35212 5.35212 -8.53299
219 1 14.2723 3.56808 7.13617 -8.32845
220 2 16.0564 5.35212 7.13617 -6.95799
143 1 1.78404 7.13617 5.35212 -8.236
144 2 0 8.92021 5.35212 -7.03185
221 1 0 7.13617 7.13617 -8.29509
222 2 1.78404 8.92021 7.13617 -7.06626
147 3 5.35212 7.13617 5.35212 -6.41796
148 2 3.56808 8.92021 5.35212 -7.01464
223 3 3.56808 7.13617 7.13617 -6.49863
224 1 5.35212 8.92021 7.13617 -8.53568
151 2 8.92021 7.13617 5.35212 -7.01393
152 2 7.13617 8.92021 5.35212 -6.98933
225 1 7.13617 7.13617 7.13617 -8.38753
226 1 8.92021 8.92021 7.13617 -8.34572
155 2 12.4883 7.13617 5.35212 -7.0323
156 3 10.7042 8.92021 5.35212 -6.64676
227 2 10.7042 7.13617 7.13617 -7.03613
228 2 12.4883 8.92021 7.13617 -7.08704
159 3 16.0564 7.13617 5.35212 -6.33296
160 1 14.2723 8.92021 5.35212 -8.4301
229 3 14.2723 7.13617 7.13617 -6.37467
230 1 16.0564 8.92021 7.13617 -8.44249
163 1 1.78404 10.7042 5.35212 -8.26123
164 2 0 12.4883 5.35212 -7.01567
231 1 0 10.7042 7.13617 -8.28087
232 1 1.78404 12.4883 7.13617 -7.98968
167 2 5.35212 10.7042 5.35212 -7.03566
168 2 3.56808 12.4883 5.35212 -7.01745
233 2 3.56808 10.7042 7.13617 -6.98967
234 1 5.35212 12.4883 7.13617 -8.20665
171 3 8.92021 10.7042 5.35212 -6.4018
172 1 7.13617 12.4883 5.35212 -8.16212
235 1 7.13617 10.7042 7.13617 -8.28805
236 1 8.92021 12.4883 7.13617 -8.27649
175 3 12.4883 10.7042 5.35212 -6.59535
176 2 10.7042 12.4883 5.35212 -7.02027
237 2 10.7042 10.7042 7.13617 -7.01102
238 1 12.4883 12.4883 7.13617 -8.39377
179 3 16.0564 10.7042 5.35212 -6.45371
180 1 14.2723 12.4883 5.35212 -8.51036
239 2 14.2723 10.7042 7.13617 -6.98681
240 2 16.0564 12.4883 7.13617 -6.97482
183 2 1.78404 14.2723 5.35212 -7.08258
184 2 0 16.0564 5.35212 -6.97512
241 1 0 14.2723 7.13617 -8.25493
242 1 1.78404 16.0564 7.13617 -8.31017
187 2 5.35212 14.2723 5.35212 -7.07054
188 1 3.56808 16.0564 5.35212 -8.35502
243 1 3.56808 14.2723 7.13617 -8.15268
244 2 5.35212 16.0564 7.13617 -6.96183
191 1 8.92021 14.2723 5.35212 -8.34809
192 2 7.13617 16.0564 5.35212 -7.00491
245 1 7.13617 14.2723 7.13617 -8.40559
246 2 8.92021 16.0564 7.13617 -6.94747
195 2 12.4883 14.2723 5.35212 -6.93498
196 3 10.7042 16.0564 5.35212 -6.36253
247 1 10.7042 14.2723 7.13617 -8.26148
248 3 12.4883 16.0564 7.13617 -6.43369
199 3 16.0564 14.2723 5.35212 -6.34265
200 1 14.2723 16.0564 5.35212 -8.54729
249 2 14.2723 14.2723 7.13617 -6.96317
250 2 16.0564 16.0564 7.13617 -6.93029
251 1 1.78404 0 8.92021 -8.02904
252 1 0 1.78404 8.92021 -8.33682
301 1 0 0 10.7042 -8.30453
302 3 1.78404 1.78404 10.7042 -6.32222
303 1 1.78404 0 12.4883 -8.14401
304 2 0 1.78404 12.4883 -6.98952
253 3 5.35212 0 8.92021 -6.40792
254 1 3.56808 1.78404 8.92021 -8.53444
305 2 3.56808 0 10.7042 -6.95038
306 3 5.35212 1.78404 10.7042 -6.44513
307 2 5.35212 0 12.4883 -7.01388
308 1 3.56808 1.78404 12.4883 -8.47571
255 3 8.92021 0 8.92021 -6.43241
256 2 7.13617 1.78404 8.92021 -6.95081
309 1 7.13617 0 10.7042 -8.49524
310 1 8.92021 1.78404 10.7042 -8.3872
311 2 8.92021 0 12.4883 -6.97857
312 3 7.13617 1.78404 12.4883 -6.50244
257 3 12.4883 0 8.92021 -6.28541
258 3 10.7042 1.78404 8.92021 -6.35805
313 1 10.7042 0 10.7042 -8.37551
314 1 12.4883 1.78404 10.7042 -8.62435
315 1 12.4883 0 12.4883 -8.17219
316 2 10.7042 1.78404 12.4883 -7.03606
259 2 16.0564 0 8.92021 -6.85709
260 3 14.2723 1.78404 8.92021 -6.35752
317 3 14.2723 0 10.7042 -6.34377
318 3 16.0564 1.78404 10.7042 -6.32481
319 1 16.0564 0 12.4883 -8.57003
320 2 14.2723 1.78404 12.4883 -6.8913
261 3 1.78404 3.56808 8.92021 -6.37218
262 2 0 5.35212 8.92021 -6.99394
321 2 0 3.56808 10.7042 -7.00546
322 1 1.78404 5.35212 10.7042 -8.44865
323 2 1.78404 3.56808 12.4883 -6.95654
324 3 0 5.35212 12.4883 -6.39086
263 1 5.35212 3.56808 8.92021 -8.46068
264 1 3.56808 5.35212 8.92021 -8.46478
325 3 3.56808 3.56808 10.7042 -6.38331
326 3 5.35212 5.35212 10.7042 -6.54834
327 2 5.35212 3.56808 12.4883 -7.04316
328 3 3.56808 5.35212 12.4883 -6.61393
265 1 8.92021 3.56808 8.92021 -8.6166
266 2 7.13617 5.35212 8.92021 -6.94982
329 3 7.13617 3.56808 10.7042 -6.52336
330 3 8.92021 5.35212 10.7042 -6.49239
331 2 8.92021 3.56808 12.4883 -7.00048
332 2 7.13617 5.35212 12.4883 -7.01472
267 3 12.4883 3.56808 8.92021 -6.41954
268 2 10.7042 5.35212 8.92021 -6.94779
333 3 10.7042 3.56808 10.7042 -6.45986
334 2 12.4883 5.35212 10.7042 -6.96644
335 2 12.4883 3.56808 12.4883 -6.95573
336 1 10.7042 5.35212 12.4883 -8.66061
269 1 16.0564 3.56808 8.92021 -8.51835
270 3 14.2723 5.35212 8.92021 -6.35733
337 3 14.2723 3.56808 10.7042 -6.45201
338 2 16.0564 5.35212 10.7042 -6.88411
339 1 16.0564 3.56808 12.4883 -8.75613
340 3 14.2723 5.35212 12.4883 -6.31673
271 2 1.78404 7.13617 8.92021 -7.06113
272 2 0 8.92021 8.92021 -7.06332
341 1 0 7.13617 10.7042 -8.28776
342 1 1.78404 8.92021 10.7042 -8.49114
343 3 1.78404 7.13617 12.4883 -6.40897
344 2 0 8.92021 12.4883 -7.01817
273 2 5.35212 7.13617 8.92021 -6.95342
274 3 3.56808 8.92021 8.92021 -6.41145
345 2 3.56808 7.13617 10.7042 -6.89564
346 1 5.35212 8.92021 10.7042 -8.46316
347 3 5.35212 7.13617 12.4883 -6.49397
348 3 3.56808 8.92021 12.4883 -6.35717
275 1 8.92021 7.13617 8.92021 -8.36168
276 3 7.13617 8.92021 8.92021 -6.11378
349 1 7.13617 7.13617 10.7042 -8.38305
350 1 8.92021 8.92021 10.7042 -8.30798
351 2 8.92021 7.13617 12.4883 -6.8895
352 2 7.13617 8.92021 12.4883 -6.94607
277 2 12.4883 7.13617 8.92021 -7.03664
278 2 10.7042 8.92021 8.92021 -7.10908
353 3 10.7042 7.13617 10.7042 -6.53173
354 2 12.4883 8.92021 10.7042 -6.96199
355 3 12.4883 7.13617 12.4883 -6.3998
356 3 10.7042 8.92021 12.4883 -6.29839
279 1 16.0564 7.13617 8.92021 -8.23539
280 3 14.2723 8.92021 8.92021 -6.41951
357 1 14.2723 7.13617 10.7042 -8.39824
358 1 16.0564 8.92021 10.7042 -8.05063
359 1 16.0564 7.13617 12.4883 -8.20767
360 2 14.2723 8.92021 12.4883 -6.98703
281 2 1.78404 10.7042 8.92021 -7.08304
282 1 0 12.4883 8.92021 -8.03271
361 1 0 10.7042 10.7042 -8.05387
362 1 1.78404 12.4883 10.7042 -8.19505
363 2 1.78404 10.7042 12.4883 -6.94578
364 1 0 12.4883 12.4883 -8.34332
283 3 5.35212 10.7042 8.92021 -6.18252
284 1 3.56808 12.4883 8.92021 -8.32553
365 3 3.56808 10.7042 10.7042 -6.25413
366 3 5.35212 12.4883 10.7042 -6.33607
367 1 5.35212 10.7042 12.4883 -8.15997
368 1 3.56808 12.4883 12.4883 -8.39497
285 2 8.92021 10.7042 8.92021 -6.95818
286 3 7.13617 12.4883 8.92021 -6.16923
369 1 7.13617 10.7042 10.7042 -8.30806
370 1 8.92021 12.4883 10.7042 -8.30984
371 3 8.92021 10.7042 12.4883 -6.30294
372 1 7.13617 12.4883 12.4883 -8.42512
287 2 12.4883 10.7042 8.92021 -7.03525
288 2 10.7042 12.4883 8.92021 -6.99391
373 1 10.7042 10.7042 10.7042 -8.29269
374 3 12.4883 12.4883 10.7042 -6.43015
375 1 12.4883 10.7042 12.4883 -8.28229
376 2 10.7042 12.4883 12.4883 -6.84818
289 1 16.0564 10.7042 8.92021 -8.39268
290 3 14.2723 12.4883 8.92021 -6.50868
377 1 14.2723 10.7042 10.7042 -8.3216
378 3 16.0564 12.4883 10.7042 -6.40808
379 2 16.0564 10.7042 12.4883 -6.93799
380 1 14.2723 12.4883 12.4883 -8.4923
291 2 1.78404 14.2723 8.92021 -7.05526
292 3 0 16.0564 8.92021 -6.28516
381 2 0 14.2723 10.7042 -6.95845
382 1 1.78404 16.0564 10.7042 -8.71388
383 3 1.78404 14.2723 12.4883 -6.29494
384 3 0 16.0564 12.4883 -6.44762
293 3 5.35212 14.2723 8.92021 -6.30692
294 2 3.56808 16.0564 8.92021 -6.91646
385 2 3.56808 14.2723 10.7042 -6.91445
386 1 5.35212 16.0564 10.7042 -8.76258
387 3 5.35212 14.2723 12.4883 -6.38341
388 3 3.56808 16.0564 12.4883 -6.31552
295 3 8.92021 14.2723 8.92021 -6.25542
296 3 7.13617 16.0564 8.92021 -6.41711
389 2 7.13617 14.2723 10.7042 -6.90054
390 1 8.92021 16.0564 10.7042 -8.40954
391 1 8.92021 14.2723 12.4883 -8.30369
392 2 7.13617 16.0564 12.4883 -6.95001
297 2 12.4883 14.2723 8.92021 -6.99226
298 1 10.7042 16.0564 8.92021 -8.30375
393 3 10.7042 14.2723 10.7042 -6.35003
394 2 12.4883 16.0564 10.7042 -6.91919
395 1 12.4883 14.2723 12.4883 -8.58928
396 3 10.7042 16.0564 12.4883 -6.20679
299 3 16.0564 14.2723 8.92021 -6.55699
300 3 14.2723 16.0564 8.92021 -6.63625
397 3 14.2723 14.2723 10.7042 -6.46484
398 1 16.0564 16.0564 10.7042 -8.72756
399 3 16.0564 14.2723 12.4883 -6.37998
400 3 14.2723 16.0564 12.4883 -6.37122
401 3 0 0 14.2723 -6.28747
402 1 1.78404 1.78404 14.2723 -8.20916
403 2 1.78404 0 16.0564 -6.96191
404 2 0 1.78404 16.0564 -6.87147
405 2 3.56808 0 14.2723 -7.04505
406 2 5.35212 1.78404 14.2723 -6.98288
407 3 5.35212 0 16.0564 -6.37751
408 1 3.56808 1.78404 16.0564 -8.37023
409 1 7.13617 0 14.2723 -8.60034
410 1 8.92021 1.78404 14.2723 -8.47388
411 3 8.92021 0 16.0564 -6.36905
412 3 7.13617 1.78404 16.0564 -6.45993
413 1 10.7042 0 14.2723 -8.29708
414 1 12.4883 1.78404 14.2723 -8.38681
415 3 12.4883 0 16.0564 -6.33137
416 3 10.7042 1.78404 16.0564 -6.31729
417 3 14.2723 0 14.2723 -6.23919
418 3 16.0564 1.78404 14.2723 -6.3025
419 1 16.0564 0 16.0564 -8.5876
420 3 14.2723 1.78404 16.0564 -6.28613
421 1 0 3.56808 14.2723 -8.52287
422 3 1.78404 5.35212 14.2723 -6.51178
423 3 1.78404 3.56808 16.0564 -6.33249
424 2 0 5.35212 16.0564 -6.96355
425 2 3.56808 3.56808 14.2723 -6.97686
426 3 5.35212 5.35212 14.2723 -6.65001
427 3 5.35212 3.56808 16.0564 -6.55673
428 1 3.56808 5.35212 16.0564 -8.4727
429 2 7.13617 3.56808 14.2723 -7.0784
430 1 8.92021 5.35212 14.2723 -8.29618
431 2 8.92021 3.56808 16.0564 -6.96832
432 2 7.13617 5.35212 16.0564 -7.01525
433 2 10.7042 3.56808 14.2723 -6.99221
434 3 12.4883 5.35212 14.2723 -6.39307
435 2 12.4883 3.56808 16.0564 -6.96663
436 1 10.7042 5.35212 16.0564 -8.48333
437 1 14.2723 3.56808 14.2723 -8.40649
438 3 16.0564 5.35212 14.2723 -6.13947
439 1 16.0564 3.56808 16.0564 -8.57882
440 2 14.2723 5.35212 16.0564 -6.89605
441 1 0 7.13617 14.2723 -8.52459
442 3 1.78404 8.92021 14.2723 -6.49501
443 2 1.78404 7.13617 16.0564 -6.94061
444 3 0 8.92021 16.0564 -6.29188
445 2 3.56808 7.13617 14.2723 -6.93628
446 1 5.35212 8.92021 14.2723 -8.39635
447 1 5.35212 7.13617 16.0564 -8.43801
448 3 3.56808 8.92021 16.0564 -6.29701
449 3 7.13617 7.13617 14.2723 -6.39349
450 1 8.92021 8.92021 14.2723 -8.69745
451 1 8.92021 7.13617 16.0564 -8.29026
452 2 7.13617 8.92021 16.0564 -6.97939
453 3 10.7042 7.13617 14.2723 -6.31346
454 1 12.4883 8.92021 14.2723 -8.62112
455 3 12.4883 7.13617 16.0564 -6.31597
456 3 10.7042 8.92021 16.0564 -6.36716
457 1 14.2723 7.13617 14.2723 -8.4461
458 2 16.0564 8.92021 14.2723 -7.06064
459 1 16.0564 7.13617 16.0564 -8.24259
460 3 14.2723 8.92021 16.0564 -6.31263
461 3 0 10.7042 14.2723 -6.32126
462 1 1.78404 12.4883 14.2723 -8.26722
463 1 1.78404 10.7042 16.0564 -8.54542
464 3 0 12.4883 16.0564 -6.30886
465 3 3.56808 10.7042 14.2723 -6.22994
466 2 5.35212 12.4883 14.2723 -6.90806
467 1 5.35212 10.7042 16.0564 -8.29503
468 2 3.56808 12.4883 16.0564 -6.94238
469 2 7.13617 10.7042 14.2723 -6.9836
470 3 8.92021 12.4883 14.2723 -6.32865
471 3 8.92021 10.7042 16.0564 -6.44828
472 1 7.13617 12.4883 16.0564 -8.56964
473 3 10.7042 10.7042 14.2723 -6.39732
474 2 12.4883 12.4883 14.2723 -6.88957
475 2 12.4883 10.7042 16.0564 -6.98447
476 1 10.7042 12.4883 16.0564 -8.57747
477 2 14.2723 10.7042 14.2723 -6.96486
478 3 16.0564 12.4883 14.2723 -6.28913
479 1 16.0564 10.7042 16.0564 -8.23837
480 1 14.2723 12.4883 16.0564 -8.48452
481 2 0 14.2723 14.2723 -6.95076
482 1 1.78404 16.0564 14.2723 -8.68813
483 1 1.78404 14.2723 16.0564 -8.3701
484 3 0 16.0564 16.0564 -6.31715
485 2 3.56808 14.2723 14.2723 -6.96776
486 1 5.35212 16.0564 14.2723 -8.55022
487 1 5.35212 14.2723 16.0564 -8.30509
488 2 3.56808 16.0564 16.0564 -6.95604
489 3 7.13617 14.2723 14.2723 -6.24443
490 1 8.92021 16.0564 14.2723 -8.50122
491 3 8.92021 14.2723 16.0564 -6.36567
492 3 7.13617 16.0564 16.0564 -6.31047
493 3 10.7042 14.2723 14.2723 -6.32198
494 1 12.4883 16.0564 14.2723 -8.63652
495 3 12.4883 14.2723 16.0564 -6.48163
496 2 10.7042 16.0564 16.0564 -6.89206
497 3 14.2723 14.2723 14.2723 -6.4321
498 2 16.0564 16.0564 14.2723 -6.92857
499 3 16.0564 14.2723 16.0564 -6.59474
500 3 14.2723 16.0564 16.0564 -6.68293
501 1 0 0 17.8404 -8.4863
502 1 1.78404 1.78404 17.8404 -8.24463
503 1 1.78404 0 19.6245 -8.34134
504 3 0 1.78404 19.6245 -6.38719
601 2 0 0 21.4085 -6.99077
602 2 1.78404 1.78404 21.4085 -6.9614
505 2 3.56808 0 17.8404 -6.96962
506 1 5.35212 1.78404 17.8404 -8.57091
507 3 5.35212 0 19.6245 -6.48591
508 2 3.56808 1.78404 19.6245 -6.9856
605 1 3.56808 0 21.4085 -8.33118
606 1 5.35212 1.78404 21.4085 -8.3623
509 2 7.13617 0 17.8404 -6.91714
510 1 8.92021 1.78404 17.8404 -8.54641
511 3 8.92021 0 19.6245 -6.37362
512 2 7.13617 1.78404 19.6245 -6.99019
609 1 7.13617 0 21.4085 -8.5641
610 2 8.92021 1.78404 21.4085 -6.97443
513 2 10.7042 0 17.8404 -6.90784
514 1 12.4883 1.78404 17.8404 -8.53251
515 1 12.4883 0 19.6245 -8.11591
516 1 10.7042 1.78404 19.6245 -8.33324
613 2 10.7042 0 21.4085 -7.00303
614 2 12.4883 1.78404 21.4085 -7.00928
517 2 14.2723 0 17.8404 -6.96182
518 1 16.0564 1.78404 17.8404 -8.25009
519 1 16.0564 0 19.6245 -8.4237
520 2 14.2723 1.78404 19.6245 -7.0051
617 2 14.2723 0 21.4085 -7.05378
618 1 16.0564 1.78404 21.4085 -8.11739
521 3 0 3.56808 17.8404 -6.47868
522 1 1.78404 5.35212 17.8404 -8.37721
523 1 1.78404 3.56808 19.6245 -8.29866
524 2 0 5.35212 19.6245 -6.9803
621 2 0 3.56808 21.4085 -7.00434
622 2 1.78404 5.35212 21.4085 -7.04977
525 2 3.56808 3.56808 17.8404 -7.03057
526 2 5.35212 5.35212 17.8404 -6.98691
527 2 5.35212 3.56808 19.6245 -7.02783
528 1 3.56808 5.35212 19.6245 -8.39638
625 3 3.56808 3.56808 21.4085 -6.39968
626 1 5.35212 5.35212 21.4085 -8.54127
529 2 7.13617 3.56808 17.8404 -7.07556
530 3 8.92021 5.35212 17.8404 -6.37713
531 1 8.92021 3.56808 19.6245 -8.41618
532 1 7.13617 5.35212 19.6245 -8.50043
629 2 7.13617 3.56808 21.4085 -7.01264
630 3 8.92021 5.35212 21.4085 -6.50958
533 3 10.7042 3.56808 17.8404 -6.35161
534 3 12.4883 5.35212 17.8404 -6.47956
535 3 12.4883 3.56808 19.6245 -6.5845
536 3 10.7042 5.35212 19.6245 -6.5745
633 3 10.7042 3.56808 21.4085 -6.48645
634 2 12.4883 5.35212 21.4085 -7.17438
537 2 14.2723 3.56808 17.8404 -6.9985
538 3 16.0564 5.35212 17.8404 -6.30725
539 1 16.0564 3.56808 19.6245 -8.26128
540 2 14.2723 5.35212 19.6245 -7.02466
637 2 14.2723 3.56808 21.4085 -7.135
638 1 16.0564 5.35212 21.4085 -8.40693
541 2 0 7.13617 17.8404 -6.9481
542 1 1.78404 8.92021 17.8404 -8.3927
543 3 1.78404 7.13617 19.6245 -6.43006
544 3 0 8.92021 19.6245 -6.39353
641 1 0 7.13617 21.4085 -8.59089
642 2 1.78404 8.92021 21.4085 -6.94727
545 2 3.56808 7.13617 17.8404 -6.97667
546 3 5.35212 8.92021 17.8404 -6.35557
547 3 5.35212 7.13617 19.6245 -6.27713
548 1 3.56808 8.92021 19.6245 -8.4182
645 2 3.56808 7.13617 21.4085 -6.95288
646 1 5.35212 8.92021 21.4085 -8.29173
549 2 7.13617 7.13617 17.8404 -6.97301
550 2 8.92021 8.92021 17.8404 -7.00487
551 3 8.92021 7.13617 19.6245 -6.5132
552 1 7.13617 8.92021 19.6245 -8.60198
649 3 7.13617 7.13617 21.4085 -6.29808
650 3 8.92021 8.92021 21.4085 -6.47356
553 1 10.7042 7.13617 17.8404 -8.60562
554 2 12.4883 8.92021 17.8404 -6.90908
555 3 12.4883 7.13617 19.6245 -6.63469
556 2 10.7042 8.92021 19.6245 -7.09142
653 2 10.7042 7.13617 21.4085 -7.14616
654 2 12.4883 8.92021 21.4085 -7.11589
557 1 14.2723 7.13617 17.8404 -8.6631
558 2 16.0564 8.92021 17.8404 -7.0008
559 2 16.0564 7.13617 19.6245 -6.94664
560 3 14.2723 8.92021 19.6245 -6.51273
657 3 14.2723 7.13617 21.4085 -6.60305
658 1 16.0564 8.92021 21.4085 -8.63513
561 2 0 10.7042 17.8404 -6.87679
562 3 1.78404 12.4883 17.8404 -6.24345
563 2 1.78404 10.7042 19.6245 -6.91729
564 1 0 12.4883 19.6245 -8.26698
661 1 0 10.7042 21.4085 -8.41984
662 2 1.78404 12.4883 21.4085 -6.95437
565 1 3.56808 10.7042 17.8404 -8.20997
566 2 5.35212 12.4883 17.8404 -6.98483
567 3 5.35212 10.7042 19.6245 -6.16072
568 1 3.56808 12.4883 19.6245 -8.50852
665 3 3.56808 10.7042 21.4085 -6.24635
666 3 5.35212 12.4883 21.4085 -6.1288
569 2 7.13617 10.7042 17.8404 -6.95196
570 2 8.92021 12.4883 17.8404 -6.93496
571 2 8.92021 10.7042 19.6245 -7.04567
572 1 7.13617 12.4883 19.6245 -8.5386
669 1 7.13617 10.7042 21.4085 -8.17771
670 2 8.92021 12.4883 21.4085 -7.04727
573 1 10.7042 10.7042 17.8404 -8.56312
574 2 12.4883 12.4883 17.8404 -6.98707
575 2 12.4883 10.7042 19.6245 -7.04796
576 3 10.7042 12.4883 19.6245 -6.49545
673 2 10.7042 10.7042 21.4085 -7.04289
674 3 12.4883 12.4883 21.4085 -6.39324
577 1 14.2723 10.7042 17.8404 -8.53864
578 2 16.0564 12.4883 17.8404 -7.00368
579 3 16.0564 10.7042 19.6245 -6.44284
580 3 14.2723 12.4883 19.6245 -6.55839
677 3 14.2723 10.7042 21.4085 -6.50613
678 2 16.0564 12.4883 21.4085 -6.94776
581 2 0 14.2723 17.8404 -6.92758
582 3 1.78404 16.0564 17.8404 -6.41979
583 1 1.78404 14.2723 19.6245 -8.33794
584 2 0 16.0564 19.6245 -6.92235
681 2 0 14.2723 21.4085 -7.00438
682 2 1.78404 16.0564 21.4085 -6.96037
585 1 3.56808 14.2723 17.8404 -8.23327
586 3 5.35212 16.0564 17.8404 -6.21985
587 3 5.35212 14.2723 19.6245 -6.13501
588 1 3.56808 16.0564 19.6245 -8.53518
685 3 3.56808 14.2723 21.4085 -6.2624
686 3 5.35212 16.0564 21.4085 -6.21896
589 3 7.13617 14.2723 17.8404 -6.35208
590 3 8.92021 16.0564 17.8404 -6.36645
591 3 8.92021 14.2723 19.6245 -6.31002
592 1 7.13617 16.0564 19.6245 -8.53994
689 1 7.13617 14.2723 21.4085 -8.30514
690 2 8.92021 16.0564 21.4085 -6.93535
593 1 10.7042 14.2723 17.8404 -8.67275
594 2 12.4883 16.0564 17.8404 -7.01869
595 3 12.4883 14.2723 19.6245 -6.47271
596 3 10.7042 16.0564 19.6245 -6.47012
693 1 10.7042 14.2723 21.4085 -8.47778
694 2 12.4883 16.0564 21.4085 -6.93008
597 2 14.2723 14.2723 17.8404 -7.04132
598 2 16.0564 16.0564 17.8404 -7.14836
599 3 16.0564 14.2723 19.6245 -6.69575
600 2 14.2723 16.0564 19.6245 -7.08022
697 1 14.2723 14.2723 21.4085 -8.63998
698 2 16.0564 16.0564 21.4085 -7.15393
603 3 1.78404 0 23.1925 -6.45658
604 1 0 1.78404 23.1925 -8.5016
701 2 0 0 24.9766 -6.94203
702 3 1.78404 1.78404 24.9766 -6.39741
607 2 5.35212 0 23.1925 -7.03294
608 1 3.56808 1.78404 23.1925 -8.3999
703 1 3.56808 0 24.9766 -8.47257
704 1 5.35212 1.78404 24.9766 -8.43843
611 3 8.92021 0 23.1925 -6.36004
612 2 7.13617 1.78404 23.1925 -7.00697
705 1 7.13617 0 24.9766 -8.28554
706 2 8.92021 1.78404 24.9766 -6.94508
615 1 12.4883 0 23.1925 -8.28491
616 1 10.7042 1.78404 23.1925 -8.48974
707 2 10.7042 0 24.9766 -6.9534
708 3 12.4883 1.78404 24.9766 -6.34256
619 2 16.0564 0 23.1925 -6.93065
620 1 14.2723 1.78404 23.1925 -8.32936
709 2 14.2723 0 24.9766 -6.99295
710 3 16.0564 1.78404 24.9766 -6.4678
623 3 1.78404 3.56808 23.1925 -6.47097
624 2 0 5.35212 23.1925 -6.97494
711 1 0 3.56808 24.9766 -8.77739
712 3 1.78404 5.35212 24.9766 -6.48103
627 2 5.35212 3.56808 23.1925 -6.92835
628 2 3.56808 5.35212 23.1925 -6.93905
713 3 3.56808 3.56808 24.9766 -6.41636
714 1 5.35212 5.35212 24.9766 -8.67082
631 1 8.92021 3.56808 23.1925 -8.52369
632 3 7.13617 5.35212 23.1925 -6.38674
715 3 7.13617 3.56808 24.9766 -6.35256
716 1 8.92021 5.35212 24.9766 -8.29428
635 2 12.4883 3.56808 23.1925 -7.05103
636 2 10.7042 5.35212 23.1925 -7.07979
717 3 10.7042 3.56808 24.9766 -6.37134
718 2 12.4883 5.35212 24.9766 -7.03577
639 1 16.0564 3.56808 23.1925 -8.14786
640 2 14.2723 5.35212 23.1925 -7.06662
719 2 14.2723 3.56808 24.9766 -6.97382
720 1 16.0564 5.35212 24.9766 -8.40272
643 2 1.78404 7.13617 23.1925 -7.00844
644 3 0 8.92021 23.1925 -6.33737
721 1 0 7.13617 24.9766 -8.79966
722 3 1.78404 8.92021 24.9766 -6.3505
647 3 5.35212 7.13617 23.1925 -6.27722
648 1 3.56808 8.92021 23.1925 -8.75911
723 3 3.56808 7.13617 24.9766 -6.35932
724 3 5.35212 8.92021 24.9766 -6.2343
651 2 8.92021 7.13617 23.1925 -6.93899
652 1 7.13617 8.92021 23.1925 -8.50208
725 3 7.13617 7.13617 24.9766 -6.36179
726 3 8.92021 8.92021 24.9766 -6.3147
655 2 12.4883 7.13617 23.1925 -7.13399
656 2 10.7042 8.92021 23.1925 -7.05516
727 1 10.7042 7.13617 24.9766 -8.45666
728 2 12.4883 8.92021 24.9766 -7.05382
659 3 16.0564 7.13617 23.1925 -6.34084
660 3 14.2723 8.92021 23.1925 -6.46558
729 1 14.2723 7.13617 24.9766 -8.64894
730 3 16.0564 8.92021 24.9766 -6.35179
663 3 1.78404 10.7042 23.1925 -6.37855
664 3 0 12.4883 23.1925 -6.28362
731 1 0 10.7042 24.9766 -8.74325
732 2 1.78404 12.4883 24.9766 -6.92907
667 3 5.35212 10.7042 23.1925 -6.13369
668 1 3.56808 12.4883 23.1925 -8.6736
733 3 3.56808 10.7042 24.9766 -6.2521
734 2 5.35212 12.4883 24.9766 -7.05727
671 1 8.92021 10.7042 23.1925 -8.20896
672 1 7.13617 12.4883 23.1925 -8.19611
735 1 7.13617 10.7042 24.9766 -8.24604
736 2 8.92021 12.4883 24.9766 -7.052
675 1 12.4883 10.7042 23.1925 -8.58016
676 1 10.7042 12.4883 23.1925 -8.09404
737 2 10.7042 10.7042 24.9766 -6.99345
738 2 12.4883 12.4883 24.9766 -7.0589
679 1 16.0564 10.7042 23.1925 -8.4138
680 3 14.2723 12.4883 23.1925 -6.40808
739 2 14.2723 10.7042 24.9766 -7.00766
740 1 16.0564 12.4883 24.9766 -8.46149
683 1 1.78404 14.2723 23.1925 -8.40249
684 1 0 16.0564 23.1925 -8.28423
741 3 0 14.2723 24.9766 -6.32144
742 3 1.78404 16.0564 24.9766 -6.28778
687 2 5.35212 14.2723 23.1925 -6.95458
688 1 3.56808 16.0564 23.1925 -8.63857
743 2 3.56808 14.2723 24.9766 -6.99001
744 2 5.35212 16.0564 24.9766 -7.06401
691 2 8.92021 14.2723 23.1925 -7.04147
692 1 7.13617 16.0564 23.1925 -8.2273
745 1 7.13617 14.2723 24.9766 -8.14347
746 2 8.92021 16.0564 24.9766 -7.07017
695 1 12.4883 14.2723 23.1925 -8.16455
696 1 10.7042 16.0564 23.1925 -8.26363
747 1 10.7042 14.2723 24.9766 -8.23761
748 2 12.4883 16.0564 24.9766 -7.02058
699 3 16.0564 14.2723 23.1925 -6.67802
700 2 14.2723 16.0564 23.1925 -7.01179
749 2 14.2723 14.2723 24.9766 -7.02458
750 2 16.0564 16.0564 24.9766 -7.05748
751 3 1.78404 0 26.7606 -6.4405
752 3 0 1.78404 26.7606 -6.42847
801 2 0 0 28.5447 -6.86828
802 1 1.78404 1.78404 28.5447 -8.72682
803 3 1.78404 0 30.3287 -6.40437
804 1 0 1.78404 30.3287 -8.61498
753 2 5.35212 0 26.7606 -7.00564
754 3 3.56808 1.78404 26.7606 -6.4303
805 3 3.56808 0 28.5447 -6.48201
806 2 5.35212 1.78404 28.5447 -7.00406
807 1 5.35212 0 30.3287 -8.54579
808 2 3.56808 1.78404 30.3287 -6.92454
755 2 8.92021 0 26.7606 -6.94724
756 3 7.13617 1.78404 26.7606 -6.43415
809 3 7.13617 0 28.5447 -6.47001
810 3 8.92021 1.78404 28.5447 -6.51931
811 2 8.92021 0 30.3287 -7.03474
812 2 7.13617 1.78404 30.3287 -7.01515
757 1 12.4883 0 26.7606 -8.63383
758 1 10.7042 1.78404 26.7606 -8.31803
813 2 10.7042 0 28.5447 -7.017
814 2 12.4883 1.78404 28.5447 -7.0065
815 2 12.4883 0 30.3287 -7.02045
816 3 10.7042 1.78404 30.3287 -6.60491
759 3 16.0564 0 26.7606 -6.48764
760 3 14.2723 1.78404 26.7606 -6.52299
817 3 14.2723 0 28.5447 -6.48114
818 1 16.0564 1.78404 28.5447 -8.5903
819 3 16.0564 0 30.3287 -6.40884
820 2 14.2723 1.78404 30.3287 -7.02684
761 3 1.78404 3.56808 26.7606 -6.36252
762 3 0 5.35212 26.7606 -6.39377
821 3 0 3.56808 28.5447 -6.33338
822 1 1.78404 5.35212 28.5447 -8.66333
823 3 1.78404 3.56808 30.3287 -6.4654
824 3 0 5.35212 30.3287 -6.35026
763 2 5.35212 3.56808 26.7606 -6.94714
764 1 3.56808 5.35212 26.7606 -8.64151
825 2 3.56808 3.56808 28.5447 -6.96532
826 3 5.35212 5.35212 28.5447 -6.41909
827 1 5.35212 3.56808 30.3287 -8.47044
828 2 3.56808 5.35212 30.3287 -6.96409
765 1 8.92021 3.56808 26.7606 -8.42983
766 2 7.13617 5.35212 26.7606 -6.94751
829 1 7.13617 3.56808 28.5447 -8.46204
830 3 8.92021 5.35212 28.5447 -6.36744
831 2 8.92021 3.56808 30.3287 -7.03202
832 2 7.13617 5.35212 30.3287 -7.01852
767 1 12.4883 3.56808 26.7606 -8.59285
768 2 10.7042 5.35212 26.7606 -6.98573
833 2 10.7042 3.56808 28.5447 -6.97935
834 3 12.4883 5.35212 28.5447 -6.45766