ITEM: TIMESTEP
0
ITEM: NUMBER OF ATOMS
4000
ITEM: BOX BOUNDS pp pp pp
0.0000000000000000e+00 3.5477780000000003e+01
0.0000000000000000e+00 3.5477780000000003e+01
0.0000000000000000e+00 3.5477780000000003e+01
ITEM: ATOMS id type x y z c_peratom
1 3 0 0 0 -6.41929
2 3 1.77389 1.77389 0 -6.37821
3 3 1.77389 0 1.77389 -6.39273
4 1 0 1.77389 1.77389 -8.6894
5 3 3.54778 0 0 -6.46443
8 1 3.54778 1.77389 1.77389 -8.78754
21 1 0 3.54778 0 -8.92396
23 2 1.77389 3.54778 1.77389 -6.91453
25 2 3.54778 3.54778 0 -6.97496
101 3 0 0 3.54778 -6.32566
102 3 1.77389 1.77389 3.54778 -6.34582
105 3 3.54778 0 3.54778 -6.35191
121 1 0 3.54778 3.54778 -8.27221
125 3 3.54778 3.54778 3.54778 -6.28908
6 1 5.32167 1.77389 0 -8.63194
7 2 5.32167 0 1.77389 -6.90473
9 2 7.09556 0 0 -6.95314
12 3 7.09556 1.77389 1.77389 -6.45381
27 2 5.32167 3.54778 1.77389 -6.95646
29 2 7.09556 3.54778 0 -7.04511
106 3 5.32167 1.77389 3.54778 -6.35601
109 1 7.09556 0 3.54778 -8.46111
129 3 7.09556 3.54778 3.54778 -6.38593
10 1 8.86945 1.77389 0 -8.52384
11 2 8.86945 0 1.77389 -7.01268
13 1 10.6433 0 0 -8.46986
16 2 10.6433 1.77389 1.77389 -6.95133
31 1 8.86945 3.54778 1.77389 -8.53257
33 2 10.6433 3.54778 0 -6.94473
110 2 8.86945 1.77389 3.54778 -6.94678
113 1 10.6433 0 3.54778 -8.37452
133 3 10.6433 3.54778 3.54778 -6.4218
14 3 12.4172 1.77389 0 -6.43553
15 2 12.4172 0 1.77389 -6.88628
17 3 14.1911 0 0 -6.25377
20 1 14.1911 1.77389 1.77389 -8.7474
35 3 12.4172 3.54778 1.77389 -6.47597
37 2 14.1911 3.54778 0 -6.99577
114 3 12.4172 1.77389 3.54778 -6.31645
117 3 14.1911 0 3.54778 -6.25616
137 3 14.1911 3.54778 3.54778 -6.3341
18 1 15.965 1.77389 0 -8.56641
19 1 15.965 0 1.77389 -8.45945
39 2 15.965 3.54778 1.77389 -7.06142
118 3 15.965 1.77389 3.54778 -6.29447
22 2 1.77389 5.32167 0 -6.96054
24 3 0 5.32167 1.77389 -6.18725
28 1 3.54778 5.32167 1.77389 -8.38136
41 1 0 7.09556 0 -8.76368
43 2 1.77389 7.09556 1.77389 -7.03872
45 2 3.54778 7.09556 0 -7.05005
122 1 1.77389 5.32167 3.54778 -8.41136
141 1 0 7.09556 3.54778 -8.14851
145 3 3.54778 7.09556 3.54778 -6.24515
26 1 5.32167 5.32167 0 -8.34418
32 2 7.09556 5.32167 1.77389 -6.92975
47 2 5.32167 7.09556 1.77389 -6.98792
49 2 7.09556 7.09556 0 -7.05287
126 1 5.32167 5.32167 3.54778 -8.82401
149 3 7.09556 7.09556 3.54778 -6.39365
30 1 8.86945 5.32167 0 -8.50069
36 3 10.6433 5.32167 1.77389 -6.44911
51 2 8.86945 7.09556 1.77389 -6.99917
53 2 10.6433 7.09556 0 -7.03821
130 1 8.86945 5.32167 3.54778 -8.7109
153 2 10.6433 7.09556 3.54778 -6.98234
34 2 12.4172 5.32167 0 -7.04507
40 1 14.1911 5.32167 1.77389 -8.54349
55 2 12.4172 7.09556 1.77389 -7.06041
57 2 14.1911 7.09556 0 -7.08489
134 1 12.4172 5.32167 3.54778 -8.57972
157 2 14.1911 7.09556 3.54778 -7.06775
38 2 15.965 5.32167 0 -7.09909
59 2 15.965 7.09556 1.77389 -7.06706
138 2 15.965 5.32167 3.54778 -7.02551
42 2 1.77389 8.86945 0 -7.08481
44 1 0 8.86945 1.77389 -8.34988
48 1 3.54778 8.86945 1.77389 -8.47444
61 2 0 10.6433 0 -7.01843
63 2 1.77389 10.6433 1.77389 -7.04761
65 2 3.54778 10.6433 0 -7.02962
142 1 1.77389 8.86945 3.54778 -8.32442
161 2 0 10.6433 3.54778 -6.91412
165 2 3.54778 10.6433 3.54778 -6.92427
46 1 5.32167 8.86945 0 -8.44674
52 1 7.09556 8.86945 1.77389 -8.52862
67 3 5.32167 10.6433 1.77389 -6.12887
69 2 7.09556 10.6433 0 -6.92291
146 2 5.32167 8.86945 3.54778 -6.85204
169 3 7.09556 10.6433 3.54778 -6.35129
50 1 8.86945 8.86945 0 -8.56154
56 2 10.6433 8.86945 1.77389 -7.0101
71 3 8.86945 10.6433 1.77389 -6.2359
73 3 10.6433 10.6433 0 -6.39369
150 1 8.86945 8.86945 3.54778 -8.56513
173 1 10.6433 10.6433 3.54778 -8.2933
54 2 12.4172 8.86945 0 -6.99126
60 1 14.1911 8.86945 1.77389 -8.29436
75 1 12.4172 10.6433 1.77389 -8.23942
77 2 14.1911 10.6433 0 -7.06885
154 1 12.4172 8.86945 3.54778 -8.29799
177 2 14.1911 10.6433 3.54778 -7.03923
58 2 15.965 8.86945 0 -7.05653
79 1 15.965 10.6433 1.77389 -8.37853
158 2 15.965 8.86945 3.54778 -6.98541
62 2 1.77389 12.4172 0 -7.00801
64 1 0 12.4172 1.77389 -8.51639
68 1 3.54778 12.4172 1.77389 -8.34578
81 2 0 14.1911 0 -6.96488
83 2 1.77389 14.1911 1.77389 -6.96152
85 2 3.54778 14.1911 0 -7.08064
162 1 1.77389 12.4172 3.54778 -8.49443
181 3 0 14.1911 3.54778 -6.28254
185 2 3.54778 14.1911 3.54778 -6.95011
66 1 5.32167 12.4172 0 -8.29399
72 1 7.09556 12.4172 1.77389 -8.37729
87 2 5.32167 14.1911 1.77389 -7.07848
89 2 7.09556 14.1911 0 -7.00936
166 1 5.32167 12.4172 3.54778 -8.35874
189 1 7.09556 14.1911 3.54778 -8.36111
70 1 8.86945 12.4172 0 -8.38905
76 2 10.6433 12.4172 1.77389 -6.96928
91 2 8.86945 14.1911 1.77389 -7.07652
93 1 10.6433 14.1911 0 -8.19671
170 2 8.86945 12.4172 3.54778 -6.92605
193 1 10.6433 14.1911 3.54778 -8.48735
74 2 12.4172 12.4172 0 -7.07292
80 1 14.1911 12.4172 1.77389 -8.40773
95 2 12.4172 14.1911 1.77389 -7.0748
97 2 14.1911 14.1911 0 -7.0836
174 2 12.4172 12.4172 3.54778 -6.99661
197 2 14.1911 14.1911 3.54778 -7.01154
78 2 15.965 12.4172 0 -7.06775
99 2 15.965 14.1911 1.77389 -7.04738
178 2 15.965 12.4172 3.54778 -7.02332
82 1 1.77389 15.965 0 -8.38833
84 3 0 15.965 1.77389 -6.36138
88 1 3.54778 15.965 1.77389 -8.25227
182 1 1.77389 15.965 3.54778 -8.48501
86 1 5.32167 15.965 0 -8.19384
92 2 7.09556 15.965 1.77389 -6.98613
186 1 5.32167 15.965 3.54778 -8.17432
90 1 8.86945 15.965 0 -8.1932
96 1 10.6433 15.965 1.77389 -8.22012
190 2 8.86945 15.965 3.54778 -6.94127
94 2 12.4172 15.965 0 -7.00848
100 1 14.1911 15.965 1.77389 -8.47503
194 2 12.4172 15.965 3.54778 -6.97951
98 3 15.965 15.965 0 -6.40579
198 1 15.965 15.965 3.54778 -8.60888
103 2 1.77389 0 5.32167 -6.93336
104 2 0 1.77389 5.32167 -6.82501
108 1 3.54778 1.77389 5.32167 -8.81135
123 2 1.77389 3.54778 5.32167 -6.86915
201 1 0 0 7.09556 -8.69238
202 1 1.77389 1.77389 7.09556 -8.6426
203 2 3.54778 0 7.09556 -7.02981
211 3 0 3.54778 7.09556 -6.3588
213 3 3.54778 3.54778 7.09556 -6.35407
107 3 5.32167 0 5.32167 -6.22004
112 1 7.09556 1.77389 5.32167 -8.63744
127 3 5.32167 3.54778 5.32167 -6.36866
204 2 5.32167 1.77389 7.09556 -6.9091
205 1 7.09556 0 7.09556 -8.70923
215 3 7.09556 3.54778 7.09556 -6.45332
111 3 8.86945 0 5.32167 -6.08677
116 1 10.6433 1.77389 5.32167 -8.54727
131 2 8.86945 3.54778 5.32167 -6.90953
206 2 8.86945 1.77389 7.09556 -6.92961
207 1 10.6433 0 7.09556 -8.72011
217 1 10.6433 3.54778 7.09556 -8.41291
115 2 12.4172 0 5.32167 -6.8964
120 1 14.1911 1.77389 5.32167 -8.62785
135 2 12.4172 3.54778 5.32167 -6.84458
208 3 12.4172 1.77389 7.09556 -6.20498
209 1 14.1911 0 7.09556 -8.64654
219 3 14.1911 3.54778 7.09556 -6.21888
119 2 15.965 0 5.32167 -6.94341
139 1 15.965 3.54778 5.32167 -8.52907
210 2 15.965 1.77389 7.09556 -6.96259
124 1 0 5.32167 5.32167 -8.41757
128 3 3.54778 5.32167 5.32167 -6.31289
143 2 1.77389 7.09556 5.32167 -6.89573
212 1 1.77389 5.32167 7.09556 -8.68181
221 3 0 7.09556 7.09556 -6.39678
223 1 3.54778 7.09556 7.09556 -8.68119
132 3 7.09556 5.32167 5.32167 -6.46158
147 3 5.32167 7.09556 5.32167 -6.35536
214 3 5.32167 5.32167 7.09556 -6.41362
225 1 7.09556 7.09556 7.09556 -8.85075
136 2 10.6433 5.32167 5.32167 -6.96193
151 2 8.86945 7.09556 5.32167 -6.97298
216 3 8.86945 5.32167 7.09556 -6.3724
227 1 10.6433 7.09556 7.09556 -8.77212
140 3 14.1911 5.32167 5.32167 -6.36126
155 1 12.4172 7.09556 5.32167 -8.42201
218 3 12.4172 5.32167 7.09556 -6.25996
229 3 14.1911 7.09556 7.09556 -6.30531
159 1 15.965 7.09556 5.32167 -8.67083
220 2 15.965 5.32167 7.09556 -6.99631
144 2 0 8.86945 5.32167 -6.90005
148 1 3.54778 8.86945 5.32167 -8.65465
163 3 1.77389 10.6433 5.32167 -6.2537
222 3 1.77389 8.86945 7.09556 -6.41525
231 1 0 10.6433 7.09556 -8.8084
233 3 3.54778 10.6433 7.09556 -6.41817
152 2 7.09556 8.86945 5.32167 -6.94252
167 3 5.32167 10.6433 5.32167 -6.3344
224 2 5.32167 8.86945 7.09556 -6.89967
235 1 7.09556 10.6433 7.09556 -8.79016
156 2 10.6433 8.86945 5.32167 -6.96493
171 3 8.86945 10.6433 5.32167 -6.30561
226 3 8.86945 8.86945 7.09556 -6.36167
237 1 10.6433 10.6433 7.09556 -8.66146
160 2 14.1911 8.86945 5.32167 -6.93583
175 3 12.4172 10.6433 5.32167 -6.33327
228 2 12.4172 8.86945 7.09556 -6.90518
239 3 14.1911 10.6433 7.09556 -6.3322
179 1 15.965 10.6433 5.32167 -8.5677
230 2 15.965 8.86945 7.09556 -6.89664
164 3 0 12.4172 5.32167 -6.33009
168 1 3.54778 12.4172 5.32167 -8.55014
183 3 1.77389 14.1911 5.32167 -6.19005
232 3 1.77389 12.4172 7.09556 -6.19181
241 1 0 14.1911 7.09556 -8.64513
243 1 3.54778 14.1911 7.09556 -8.5973
172 2 7.09556 12.4172 5.32167 -6.90345
187 2 5.32167 14.1911 5.32167 -6.96818
234 3 5.32167 12.4172 7.09556 -6.32079
245 1 7.09556 14.1911 7.09556 -8.75626
176 1 10.6433 12.4172 5.32167 -8.60084
191 2 8.86945 14.1911 5.32167 -6.94771
236 3 8.86945 12.4172 7.09556 -6.32561
247 3 10.6433 14.1911 7.09556 -6.3789
180 1 14.1911 12.4172 5.32167 -8.75075
195 3 12.4172 14.1911 5.32167 -6.32704
238 3 12.4172 12.4172 7.09556 -6.19832
249 3 14.1911 14.1911 7.09556 -6.32298
199 2 15.965 14.1911 5.32167 -6.92578
240 3 15.965 12.4172 7.09556 -6.30246
184 2 0 15.965 5.32167 -6.89183
188 1 3.54778 15.965 5.32167 -8.52972
242 3 1.77389 15.965 7.09556 -6.23464
192 3 7.09556 15.965 5.32167 -6.22341
244 3 5.32167 15.965 7.09556 -6.25543
196 3 10.6433 15.965 5.32167 -6.2834
246 1 8.86945 15.965 7.09556 -8.51162
200 3 14.1911 15.965 5.32167 -6.33552
248 1 12.4172 15.965 7.09556 -8.80142
250 1 15.965 15.965 7.09556 -8.68967
251 2 1.77389 0 8.86945 -7.07209
252 3 0 1.77389 8.86945 -6.41293
254 3 3.54778 1.77389 8.86945 -6.55119
261 3 1.77389 3.54778 8.86945 -6.28683
301 2 0 0 10.6433 -6.97006
302 3 1.77389 1.77389 10.6433 -6.46197
303 2 1.77389 0 12.4172 -6.97398
304 1 0 1.77389 12.4172 -8.55635
305 2 3.54778 0 10.6433 -7.08616
308 1 3.54778 1.77389 12.4172 -8.57118
321 1 0 3.54778 10.6433 -8.41691
323 3 1.77389 3.54778 12.4172 -6.26344
325 3 3.54778 3.54778 10.6433 -6.30869
253 2 5.32167 0 8.86945 -7.02927
256 3 7.09556 1.77389 8.86945 -6.41719
263 1 5.32167 3.54778 8.86945 -8.8156
306 2 5.32167 1.77389 10.6433 -6.99104
307 2 5.32167 0 12.4172 -7.04809
309 1 7.09556 0 10.6433 -8.58161
312 2 7.09556 1.77389 12.4172 -7.0044
327 1 5.32167 3.54778 12.4172 -8.65626
329 3 7.09556 3.54778 10.6433 -6.28991
255 3 8.86945 0 8.86945 -6.35012
258 2 10.6433 1.77389 8.86945 -6.90842
265 1 8.86945 3.54778 8.86945 -8.65624
310 2 8.86945 1.77389 10.6433 -6.93656
311 2 8.86945 0 12.4172 -6.95356
313 3 10.6433 0 10.6433 -6.49433
316 2 10.6433 1.77389 12.4172 -6.9746
331 1 8.86945 3.54778 12.4172 -8.63267
333 3 10.6433 3.54778 10.6433 -6.30722
257 3 12.4172 0 8.86945 -6.2991
260 3 14.1911 1.77389 8.86945 -6.22853
267 1 12.4172 3.54778 8.86945 -8.5756
314 1 12.4172 1.77389 10.6433 -8.68278
315 2 12.4172 0 12.4172 -6.87627
317 1 14.1911 0 10.6433 -8.71414
320 3 14.1911 1.77389 12.4172 -6.2626
335 3 12.4172 3.54778 12.4172 -6.33349
337 3 14.1911 3.54778 10.6433 -6.24218
259 3 15.965 0 8.86945 -6.30329
269 1 15.965 3.54778 8.86945 -8.35693
318 1 15.965 1.77389 10.6433 -8.74189
319 3 15.965 0 12.4172 -6.31118
339 3 15.965 3.54778 12.4172 -6.31013
262 2 0 5.32167 8.86945 -6.84691
264 3 3.54778 5.32167 8.86945 -6.13831
271 3 1.77389 7.09556 8.86945 -6.15149
322 1 1.77389 5.32167 10.6433 -8.66515
324 3 0 5.32167 12.4172 -6.16313
328 3 3.54778 5.32167 12.4172 -6.10987
341 1 0 7.09556 10.6433 -8.37307
343 3 1.77389 7.09556 12.4172 -6.07503
345 1 3.54778 7.09556 10.6433 -8.55204
266 2 7.09556 5.32167 8.86945 -6.92381
273 3 5.32167 7.09556 8.86945 -6.16362
326 1 5.32167 5.32167 10.6433 -8.41841
332 2 7.09556 5.32167 12.4172 -6.91774
347 3 5.32167 7.09556 12.4172 -6.05234
349 1 7.09556 7.09556 10.6433 -8.32769
268 3 10.6433 5.32167 8.86945 -6.20373
275 2 8.86945 7.09556 8.86945 -6.90777
330 1 8.86945 5.32167 10.6433 -8.31014
336 3 10.6433 5.32167 12.4172 -6.26452
351 2 8.86945 7.09556 12.4172 -6.8989
353 1 10.6433 7.09556 10.6433 -8.71431
270 1 14.1911 5.32167 8.86945 -8.57727
277 3 12.4172 7.09556 8.86945 -6.35564
334 3 12.4172 5.32167 10.6433 -6.28002
340 1 14.1911 5.32167 12.4172 -8.71452
355 3 12.4172 7.09556 12.4172 -6.26873
357 2 14.1911 7.09556 10.6433 -6.77277
279 1 15.965 7.09556 8.86945 -8.41792
338 3 15.965 5.32167 10.6433 -6.15609
359 3 15.965 7.09556 12.4172 -6.23836
272 3 0 8.86945 8.86945 -6.31103
274 3 3.54778 8.86945 8.86945 -6.34804
281 2 1.77389 10.6433 8.86945 -6.88431
342 1 1.77389 8.86945 10.6433 -8.63749
344 2 0 8.86945 12.4172 -7.00098
348 3 3.54778 8.86945 12.4172 -6.16476
361 2 0 10.6433 10.6433 -6.91956
363 2 1.77389 10.6433 12.4172 -6.94189
365 3 3.54778 10.6433 10.6433 -6.44317
276 2 7.09556 8.86945 8.86945 -6.98763
283 2 5.32167 10.6433 8.86945 -6.98614
346 1 5.32167 8.86945 10.6433 -8.55212
352 2 7.09556 8.86945 12.4172 -6.95887
367 2 5.32167 10.6433 12.4172 -7.00173
369 1 7.09556 10.6433 10.6433 -8.43752
278 3 10.6433 8.86945 8.86945 -6.36839
285 2 8.86945 10.6433 8.86945 -6.92924
350 1 8.86945 8.86945 10.6433 -8.40965
356 3 10.6433 8.86945 12.4172 -6.50397
371 2 8.86945 10.6433 12.4172 -7.01092
373 3 10.6433 10.6433 10.6433 -6.52235
280 1 14.1911 8.86945 8.86945 -8.82138
287 3 12.4172 10.6433 8.86945 -6.3107
354 2 12.4172 8.86945 10.6433 -6.90727
360 1 14.1911 8.86945 12.4172 -8.65028
375 2 12.4172 10.6433 12.4172 -6.95388
377 3 14.1911 10.6433 10.6433 -6.30668
289 3 15.965 10.6433 8.86945 -6.30738
358 3 15.965 8.86945 10.6433 -6.30639
379 3 15.965 10.6433 12.4172 -6.30173
282 1 0 12.4172 8.86945 -8.46138
284 1 3.54778 12.4172 8.86945 -8.87385
291 3 1.77389 14.1911 8.86945 -6.25257
362 3 1.77389 12.4172 10.6433 -6.42827
364 3 0 12.4172 12.4172 -6.38199
368 1 3.54778 12.4172 12.4172 -8.90856
381 3 0 14.1911 10.6433 -6.29628
383 3 1.77389 14.1911 12.4172 -6.33777
385 3 3.54778 14.1911 10.6433 -6.35382
286 2 7.09556 12.4172 8.86945 -6.89857
293 3 5.32167 14.1911 8.86945 -6.24672
366 2 5.32167 12.4172 10.6433 -6.92323
372 2 7.09556 12.4172 12.4172 -6.9354
387 3 5.32167 14.1911 12.4172 -6.36938
389 1 7.09556 14.1911 10.6433 -8.6141
288 1 10.6433 12.4172 8.86945 -8.85203
295 2 8.86945 14.1911 8.86945 -6.9413
370 3 8.86945 12.4172 10.6433 -6.45845
376 1 10.6433 12.4172 12.4172 -8.83537
391 2 8.86945 14.1911 12.4172 -6.95992
393 2 10.6433 14.1911 10.6433 -6.90431
290 1 14.1911 12.4172 8.86945 -9.07731
297 3 12.4172 14.1911 8.86945 -6.23856
374 3 12.4172 12.4172 10.6433 -6.30327
380 1 14.1911 12.4172 12.4172 -8.96946
395 3 12.4172 14.1911 12.4172 -6.32256
397 3 14.1911 14.1911 10.6433 -6.23326
299 3 15.965 14.1911 8.86945 -6.23511
378 2 15.965 12.4172 10.6433 -6.77141
399 3 15.965 14.1911 12.4172 -6.24793
292 3 0 15.965 8.86945 -6.32305
294 2 3.54778 15.965 8.86945 -6.81802
382 1 1.77389 15.965 10.6433 -8.78255
384 2 0 15.965 12.4172 -6.79912
388 3 3.54778 15.965 12.4172 -6.3893
296 3 7.09556 15.965 8.86945 -6.09434
386 1 5.32167 15.965 10.6433 -8.58862
392 3 7.09556 15.965 12.4172 -6.18674
298 3 10.6433 15.965 8.86945 -6.17108
390 1 8.86945 15.965 10.6433 -8.35849
396 2 10.6433 15.965 12.4172 -6.98283
300 3 14.1911 15.965 8.86945 -6.14401
394 1 12.4172 15.965 10.6433 -8.55903
400 1 14.1911 15.965 12.4172 -8.34526
398 1 15.965 15.965 10.6433 -8.6485
401 1 0 0 14.1911 -8.55668
402 3 1.77389 1.77389 14.1911 -6.42144
403 2 1.77389 0 15.965 -7.00552
404 2 0 1.77389 15.965 -6.92397
405 1 3.54778 0 14.1911 -8.47544
408 3 3.54778 1.77389 15.965 -6.57204
421 3 0 3.54778 14.1911 -6.3322
423 2 1.77389 3.54778 15.965 -6.89434
425 3 3.54778 3.54778 14.1911 -6.44199
406 2 5.32167 1.77389 14.1911 -7.0267
407 2 5.32167 0 15.965 -6.9994
409 1 7.09556 0 14.1911 -8.46063
412 2 7.09556 1.77389 15.965 -6.93425
427 2 5.32167 3.54778 15.965 -6.92522
429 3 7.09556 3.54778 14.1911 -6.47137
410 3 8.86945 1.77389 14.1911 -6.3441
411 1 8.86945 0 15.965 -8.36098
413 1 10.6433 0 14.1911 -8.40497
416 2 10.6433 1.77389 15.965 -6.88874
431 3 8.86945 3.54778 15.965 -6.38562
433 1 10.6433 3.54778 14.1911 -8.71588
414 2 12.4172 1.77389 14.1911 -6.94713
415 1 12.4172 0 15.965 -8.36814
417 1 14.1911 0 14.1911 -8.52707
420 1 14.1911 1.77389 15.965 -8.4834
435 2 12.4172 3.54778 15.965 -6.89723
437 1 14.1911 3.54778 14.1911 -8.4821
418 2 15.965 1.77389 14.1911 -6.82039
419 3 15.965 0 15.965 -6.27932
439 3 15.965 3.54778 15.965 -6.21362
422 1 1.77389 5.32167 14.1911 -8.69945
424 2 0 5.32167 15.965 -6.95188
428 3 3.54778 5.32167 15.965 -6.3318
441 2 0 7.09556 14.1911 -6.91578
443 1 1.77389 7.09556 15.965 -8.13665
445 1 3.54778 7.09556 14.1911 -8.56191
426 3 5.32167 5.32167 14.1911 -6.35094
432 1 7.09556 5.32167 15.965 -8.72704
447 3 5.32167 7.09556 15.965 -6.21623
449 1 7.09556 7.09556 14.1911 -8.53064
430 3 8.86945 5.32167 14.1911 -6.29742
436 3 10.6433 5.32167 15.965 -6.40668
451 2 8.86945 7.09556 15.965 -6.87576
453 1 10.6433 7.09556 14.1911 -8.96704
434 2 12.4172 5.32167 14.1911 -6.86291
440 1 14.1911 5.32167 15.965 -8.73303
455 3 12.4172 7.09556 15.965 -6.35905
457 1 14.1911 7.09556 14.1911 -8.37121
438 2 15.965 5.32167 14.1911 -6.78796
459 3 15.965 7.09556 15.965 -6.23866
442 1 1.77389 8.86945 14.1911 -8.39721
444 2 0 8.86945 15.965 -7.02758
448 2 3.54778 8.86945 15.965 -7.01904
461 2 0 10.6433 14.1911 -6.96162
463 1 1.77389 10.6433 15.965 -8.43009
465 2 3.54778 10.6433 14.1911 -6.96938
446 1 5.32167 8.86945 14.1911 -8.35258
452 1 7.09556 8.86945 15.965 -8.4621
467 2 5.32167 10.6433 15.965 -6.97778
469 1 7.09556 10.6433 14.1911 -8.56333
450 3 8.86945 8.86945 14.1911 -6.39166
456 3 10.6433 8.86945 15.965 -6.46269
471 3 8.86945 10.6433 15.965 -6.33053
473 2 10.6433 10.6433 14.1911 -7.01062
454 2 12.4172 8.86945 14.1911 -6.95643
460 1 14.1911 8.86945 15.965 -8.62078
475 1 12.4172 10.6433 15.965 -8.42053
477 2 14.1911 10.6433 14.1911 -6.88367
458 1 15.965 8.86945 14.1911 -8.70903
479 3 15.965 10.6433 15.965 -6.30469
462 3 1.77389 12.4172 14.1911 -6.417
464 3 0 12.4172 15.965 -6.25169
468 1 3.54778 12.4172 15.965 -8.57351
481 1 0 14.1911 14.1911 -8.6622
483 2 1.77389 14.1911 15.965 -6.93154
485 3 3.54778 14.1911 14.1911 -6.33699
466 3 5.32167 12.4172 14.1911 -6.37779
472 2 7.09556 12.4172 15.965 -6.97698
487 1 5.32167 14.1911 15.965 -8.35964
489 1 7.09556 14.1911 14.1911 -8.5494
470 2 8.86945 12.4172 14.1911 -6.99675
476 1 10.6433 12.4172 15.965 -8.30975
491 1 8.86945 14.1911 15.965 -8.36904
493 3 10.6433 14.1911 14.1911 -6.44104
474 2 12.4172 12.4172 14.1911 -6.95694
480 1 14.1911 12.4172 15.965 -8.52183
495 1 12.4172 14.1911 15.965 -8.50145
497 3 14.1911 14.1911 14.1911 -6.22771
478 3 15.965 12.4172 14.1911 -6.38916
499 1 15.965 14.1911 15.965 -8.55602
482 1 1.77389 15.965 14.1911 -8.64
484 2 0 15.965 15.965 -6.87094
488 1 3.54778 15.965 15.965 -8.29102
486 2 5.32167 15.965 14.1911 -6.9647
492 2 7.09556 15.965 15.965 -6.99397
490 3 8.86945 15.965 14.1911 -6.31088
496 2 10.6433 15.965 15.965 -6.96174
494 2 12.4172 15.965 14.1911 -6.92141
500 3 14.1911 15.965 15.965 -6.38867
498 1 15.965 15.965 14.1911 -8.46725
501 2 0 0 17.7389 -6.93835
502 1 1.77389 1.77389 17.7389 -8.64542
503 1 1.77389 0 19.5128 -8.43165
504 2 0 1.77389 19.5128 -6.90295
505 3 3.54778 0 17.7389 -6.51975
508 2 3.54778 1.77389 19.5128 -6.89124
521 2 0 3.54778 17.7389 -6.98458
523 3 1.77389 3.54778 19.5128 -6.42467
525 3 3.54778 3.54778 17.7389 -6.48224
601 1 0 0 21.2867 -8.11472
602 2 1.77389 1.77389 21.2867 -6.97753
605 3 3.54778 0 21.2867 -6.36359
621 1 0 3.54778 21.2867 -8.62215
625 2 3.54778 3.54778 21.2867 -6.93808
506 3 5.32167 1.77389 17.7389 -6.50526
507 1 5.32167 0 19.5128 -8.83912
509 3 7.09556 0 17.7389 -6.42962
512 3 7.09556 1.77389 19.5128 -6.30739
527 1 5.32167 3.54778 19.5128 -8.80591
529 3 7.09556 3.54778 17.7389 -6.38615
606 3 5.32167 1.77389 21.2867 -6.32882
609 1 7.09556 0 21.2867 -8.62041
629 1 7.09556 3.54778 21.2867 -8.60058
510 1 8.86945 1.77389 17.7389 -8.87978
511 3 8.86945 0 19.5128 -6.4038
513 3 10.6433 0 17.7389 -6.28926
516 3 10.6433 1.77389 19.5128 -6.30189
531 3 8.86945 3.54778 19.5128 -6.3243
533 3 10.6433 3.54778 17.7389 -6.41364
610 2 8.86945 1.77389 21.2867 -6.84032
613 1 10.6433 0 21.2867 -8.56992
633 1 10.6433 3.54778 21.2867 -8.68261
514 3 12.4172 1.77389 17.7389 -6.27515
515 3 12.4172 0 19.5128 -6.29591
517 1 14.1911 0 17.7389 -8.77649
520 3 14.1911 1.77389 19.5128 -6.38396
535 1 12.4172 3.54778 19.5128 -8.93713
537 3 14.1911 3.54778 17.7389 -6.30663
614 3 12.4172 1.77389 21.2867 -6.31811
617 3 14.1911 0 21.2867 -6.42718
637 3 14.1911 3.54778 21.2867 -6.33823
518 3 15.965 1.77389 17.7389 -6.29897
519 2 15.965 0 19.5128 -6.87768
539 1 15.965 3.54778 19.5128 -8.98284
618 3 15.965 1.77389 21.2867 -6.44427
522 1 1.77389 5.32167 17.7389 -8.38535
524 1 0 5.32167 19.5128 -8.49537
528 2 3.54778 5.32167 19.5128 -6.92587
541 2 0 7.09556 17.7389 -6.98196
543 2 1.77389 7.09556 19.5128 -6.91556
545 1 3.54778 7.09556 17.7389 -8.40854
622 3 1.77389 5.32167 21.2867 -6.28764
641 1 0 7.09556 21.2867 -8.44164
645 1 3.54778 7.09556 21.2867 -8.47761
526 3 5.32167 5.32167 17.7389 -6.34624
532 3 7.09556 5.32167 19.5128 -6.29674
547 1 5.32167 7.09556 19.5128 -8.55041
549 3 7.09556 7.09556 17.7389 -6.30603
626 2 5.32167 5.32167 21.2867 -6.97957
649 1 7.09556 7.09556 21.2867 -8.68441
530 1 8.86945 5.32167 17.7389 -8.91787
536 3 10.6433 5.32167 19.5128 -6.30198
551 3 8.86945 7.09556 19.5128 -6.36241
553 3 10.6433 7.09556 17.7389 -6.41176
630 2 8.86945 5.32167 21.2867 -6.92185
653 1 10.6433 7.09556 21.2867 -8.54966
534 3 12.4172 5.32167 17.7389 -6.3371
540 3 14.1911 5.32167 19.5128 -6.20287
555 1 12.4172 7.09556 19.5128 -8.72332
557 3 14.1911 7.09556 17.7389 -6.20166
634 2 12.4172 5.32167 21.2867 -6.85902
657 3 14.1911 7.09556 21.2867 -6.30484
538 3 15.965 5.32167 17.7389 -6.25269
559 1 15.965 7.09556 19.5128 -8.77077
638 1 15.965 5.32167 21.2867 -8.59588
542 1 1.77389 8.86945 17.7389 -8.45516
544 3 0 8.86945 19.5128 -6.18875
548 3 3.54778 8.86945 19.5128 -6.26617
561 2 0 10.6433 17.7389 -6.91975
563 3 1.77389 10.6433 19.5128 -6.34693
565 2 3.54778 10.6433 17.7389 -6.96776
642 1 1.77389 8.86945 21.2867 -8.70477
661 3 0 10.6433 21.2867 -6.30917
665 3 3.54778 10.6433 21.2867 -6.26577
546 2 5.32167 8.86945 17.7389 -6.8844
552 3 7.09556 8.86945 19.5128 -6.36432
567 1 5.32167 10.6433 19.5128 -8.65418
569 3 7.09556 10.6433 17.7389 -6.28184
646 3 5.32167 8.86945 21.2867 -6.23109
669 3 7.09556 10.6433 21.2867 -6.26669
550 1 8.86945 8.86945 17.7389 -8.84932
556 2 10.6433 8.86945 19.5128 -6.89382
571 3 8.86945 10.6433 19.5128 -6.34448
573 2 10.6433 10.6433 17.7389 -6.95529
650 2 8.86945 8.86945 21.2867 -6.96524
673 1 10.6433 10.6433 21.2867 -8.3807
554 3 12.4172 8.86945 17.7389 -6.30722
560 1 14.1911 8.86945 19.5128 -8.75824
575 2 12.4172 10.6433 19.5128 -6.93478
577 3 14.1911 10.6433 17.7389 -6.20898
654 3 12.4172 8.86945 21.2867 -6.27142
677 2 14.1911 10.6433 21.2867 -6.94508
558 3 15.965 8.86945 17.7389 -6.27081
579 3 15.965 10.6433 19.5128 -6.34214
658 3 15.965 8.86945 21.2867 -6.25055
562 3 1.77389 12.4172 17.7389 -6.32698
564 1 0 12.4172 19.5128 -8.43725
568 1 3.54778 12.4172 19.5128 -8.58591
581 1 0 14.1911 17.7389 -8.56441
583 2 1.77389 14.1911 19.5128 -6.98796
585 2 3.54778 14.1911 17.7389 -7.01339
662 2 1.77389 12.4172 21.2867 -6.84349
681 2 0 14.1911 21.2867 -6.95628
685 3 3.54778 14.1911 21.2867 -6.2445
566 2 5.32167 12.4172 17.7389 -7.00914
572 1 7.09556 12.4172 19.5128 -8.39602
587 1 5.32167 14.1911 19.5128 -8.37427
589 2 7.09556 14.1911 17.7389 -7.0302
666 2 5.32167 12.4172 21.2867 -6.84678
689 3 7.09556 14.1911 21.2867 -6.20063
570 1 8.86945 12.4172 17.7389 -8.34003
576 1 10.6433 12.4172 19.5128 -8.2969
591 1 8.86945 14.1911 19.5128 -8.31286
593 2 10.6433 14.1911 17.7389 -7.07164
670 2 8.86945 12.4172 21.2867 -6.92538
693 3 10.6433 14.1911 21.2867 -6.27587
574 2 12.4172 12.4172 17.7389 -6.97203
580 1 14.1911 12.4172 19.5128 -8.56797
595 1 12.4172 14.1911 19.5128 -8.46761
597 2 14.1911 14.1911 17.7389 -6.93051
674 2 12.4172 12.4172 21.2867 -7.04386
697 3 14.1911 14.1911 21.2867 -6.33703
578 3 15.965 12.4172 17.7389 -6.27837
599 1 15.965 14.1911 19.5128 -8.58519
678 2 15.965 12.4172 21.2867 -6.9524
582 2 1.77389 15.965 17.7389 -6.95859
584 3 0 15.965 19.5128 -6.3527
588 2 3.54778 15.965 19.5128 -7.03158
682 1 1.77389 15.965 21.2867 -8.58467
586 2 5.32167 15.965 17.7389 -7.08137
592 2 7.09556 15.965 19.5128 -7.04442
686 1 5.32167 15.965 21.2867 -8.49909
590 2 8.86945 15.965 17.7389 -7.03866
596 1 10.6433 15.965 19.5128 -8.43516
690 2 8.86945 15.965 21.2867 -7.01002
594 2 12.4172 15.965 17.7389 -7.00616
600 3 14.1911 15.965 19.5128 -6.41373
694 3 12.4172 15.965 21.2867 -6.38675
598 2 15.965 15.965 17.7389 -6.93629
698 2 15.965 15.965 21.2867 -6.93065
603 1 1.77389 0 23.0606 -8.36747
604 1 0 1.77389 23.0606 -8.1308
608 1 3.54778 1.77389 23.0606 -8.81137
623 3 1.77389 3.54778 23.0606 -6.22248
701 2 0 0 24.8344 -6.99654
702 2 1.77389 1.77389 24.8344 -6.93109
703 1 1.77389 0 26.6083 -8.48138
704 2 0 1.77389 26.6083 -7.01042
705 3 3.54778 0 24.8344 -6.3245
708 1 3.54778 1.77389 26.6083 -8.60439
721 1 0 3.54778 24.8344 -8.39255
723 2 1.77389 3.54778 26.6083 -6.90951
725 3 3.54778 3.54778 24.8344 -6.26683
607 3 5.32167 0 23.0606 -6.41
612 2 7.09556 1.77389 23.0606 -6.87194
627 2 5.32167 3.54778 23.0606 -6.93016
706 3 5.32167 1.77389 24.8344 -6.26428
707 3 5.32167 0 26.6083 -6.37769
709 1 7.09556 0 24.8344 -8.69665
712 3 7.09556 1.77389 26.6083 -6.29181
727 1 5.32167 3.54778 26.6083 -8.34034
729 1 7.09556 3.54778 24.8344 -8.43526
611 1 8.86945 0 23.0606 -8.51606
616 3 10.6433 1.77389 23.0606 -6.281
631 1 8.86945 3.54778 23.0606 -8.40712
710 3 8.86945 1.77389 24.8344 -6.22185
711 2 8.86945 0 26.6083 -6.84642
713 3 10.6433 0 24.8344 -6.33504
716 1 10.6433 1.77389 26.6083 -8.4276
731 1 8.86945 3.54778 26.6083 -8.27692
733 2 10.6433 3.54778 24.8344 -6.92371
615 3 12.4172 0 23.0606 -6.25793
620 1 14.1911 1.77389 23.0606 -8.80408
635 3 12.4172 3.54778 23.0606 -6.381
714 1 12.4172 1.77389 24.8344 -8.58201
715 2 12.4172 0 26.6083 -6.86849
717 3 14.1911 0 24.8344 -6.21213
720 1 14.1911 1.77389 26.6083 -8.41061
735 3 12.4172 3.54778 26.6083 -6.33016
737 3 14.1911 3.54778 24.8344 -6.42173
619 2 15.965 0 23.0606 -6.88322
639 2 15.965 3.54778 23.0606 -6.89549
718 2 15.965 1.77389 24.8344 -6.94502
719 1 15.965 0 26.6083 -8.47804
739 2 15.965 3.54778 26.6083 -6.98058
624 3 0 5.32167 23.0606 -6.30887
628 1 3.54778 5.32167 23.0606 -8.59344
643 2 1.77389 7.09556 23.0606 -6.87691
722 1 1.77389 5.32167 24.8344 -8.55566
724 3 0 5.32167 26.6083 -6.29434
728 1 3.54778 5.32167 26.6083 -8.59315
741 3 0 7.09556 24.8344 -6.42255
743 3 1.77389 7.09556 26.6083 -6.32817
745 3 3.54778 7.09556 24.8344 -6.41286
632 2 7.09556 5.32167 23.0606 -7.02217
647 3 5.32167 7.09556 23.0606 -6.39031
726 2 5.32167 5.32167 24.8344 -6.99254
732 2 7.09556 5.32167 26.6083 -7.00434
747 2 5.32167 7.09556 26.6083 -6.93828
749 1 7.09556 7.09556 24.8344 -8.71545
636 2 10.6433 5.32167 23.0606 -7.00944
651 2 8.86945 7.09556 23.0606 -7.03475
730 2 8.86945 5.32167 24.8344 -7.08892
736 2 10.6433 5.32167 26.6083 -6.98125
751 3 8.86945 7.09556 26.6083 -6.39738
753 2 10.6433 7.09556 24.8344 -6.98769
640 3 14.1911 5.32167 23.0606 -6.48463
655 3 12.4172 7.09556 23.0606 -6.41951
734 1 12.4172 5.32167 24.8344 -8.96372
740 3 14.1911 5.32167 26.6083 -6.5193
755 3 12.4172 7.09556 26.6083 -6.42729
757 2 14.1911 7.09556 24.8344 -6.95617
659 3 15.965 7.09556 23.0606 -6.32292
738 2 15.965 5.32167 24.8344 -6.95616
759 1 15.965 7.09556 26.6083 -8.66025
644 2 0 8.86945 23.0606 -6.9474
648 3 3.54778 8.86945 23.0606 -6.33712
663 3 1.77389 10.6433 23.0606 -6.36225
742 1 1.77389 8.86945 24.8344 -8.9656
744 3 0 8.86945 26.6083 -6.32198
748 3 3.54778 8.86945 26.6083 -6.45689
761 2 0 10.6433 24.8344 -6.98724
763 2 1.77389 10.6433 26.6083 -6.90529
765 3 3.54778 10.6433 24.8344 -6.29759
652 2 7.09556 8.86945 23.0606 -6.91707
667 1 5.32167 10.6433 23.0606 -8.5784
746 3 5.32167 8.86945 24.8344 -6.36957
752 2 7.09556 8.86945 26.6083 -6.91431
767 1 5.32167 10.6433 26.6083 -8.49308
769 1 7.09556 10.6433 24.8344 -8.14534
656 1 10.6433 8.86945 23.0606 -8.38313
671 1 8.86945 10.6433 23.0606 -8.21399
750 2 8.86945 8.86945 24.8344 -7.07117
756 1 10.6433 8.86945 26.6083 -8.50771
771 1 8.86945 10.6433 26.6083 -8.21126
773 1 10.6433 10.6433 24.8344 -8.30278
660 1 14.1911 8.86945 23.0606 -8.73275
675 2 12.4172 10.6433 23.0606 -7.01246
754 2 12.4172 8.86945 24.8344 -6.93875
760 1 14.1911 8.86945 26.6083 -8.49729
775 3 12.4172 10.6433 26.6083 -6.36763
777 1 14.1911 10.6433 24.8344 -8.55751
679 2 15.965 10.6433 23.0606 -6.9741
758 2 15.965 8.86945 24.8344 -6.99045
779 2 15.965 10.6433 26.6083 -7.02198
664 1 0 12.4172 23.0606 -8.80434
668 1 3.54778 12.4172 23.0606 -8.53609
683 1 1.77389 14.1911 23.0606 -8.4027
762 2 1.77389 12.4172 24.8344 -6.89407
764 1 0 12.4172 26.6083 -8.60005
768 1 3.54778 12.4172 26.6083 -8.44585
781 3 0 14.1911 24.8344 -6.32646
783 1 1.77389 14.1911 26.6083 -8.41732
785 3 3.54778 14.1911 24.8344 -6.15741
672 1 7.09556 12.4172 23.0606 -8.33781
687 1 5.32167 14.1911 23.0606 -8.46464
766 2 5.32167 12.4172 24.8344 -6.95451
772 2 7.09556 12.4172 26.6083 -7.00817
787 1 5.32167 14.1911 26.6083 -8.3696
789 3 7.09556 14.1911 24.8344 -6.30422
676 2 10.6433 12.4172 23.0606 -6.96561
691 1 8.86945 14.1911 23.0606 -8.72247
770 2 8.86945 12.4172 24.8344 -6.9705
776 3 10.6433 12.4172 26.6083 -6.19937
791 1 8.86945 14.1911 26.6083 -8.6545
793 3 10.6433 14.1911 24.8344 -6.40745
680 2 14.1911 12.4172 23.0606 -7.01751
695 1 12.4172 14.1911 23.0606 -8.84188
774 2 12.4172 12.4172 24.8344 -6.95912
780 3 14.1911 12.4172 26.6083 -6.43051
795 1 12.4172 14.1911 26.6083 -8.72193
797 3 14.1911 14.1911 24.8344 -6.35619
699 1 15.965 14.1911 23.0606 -8.65236
778 3 15.965 12.4172 24.8344 -6.42359
799 1 15.965 14.1911 26.6083 -8.67761
684 2 0 15.965 23.0606 -7.01004
688 2 3.54778 15.965 23.0606 -6.99985
782 2 1.77389 15.965 24.8344 -7.01635
784 1 0 15.965 26.6083 -8.34515
788 1 3.54778 15.965 26.6083 -8.24227
692 2 7.09556 15.965 23.0606 -7.04201
786 2 5.32167 15.965 24.8344 -7.01459
792 2 7.09556 15.965 26.6083 -7.01601
696 2 10.6433 15.965 23.0606 -7.02808
790 3 8.86945 15.965 24.8344 -6.45324
796 2 10.6433 15.965 26.6083 -6.99575
700 2 14.1911 15.965 23.0606 -6.99506
794 2 12.4172 15.965 24.8344 -7.02815
800 2 14.1911 15.965 26.6083 -6.9551
798 1 15.965 15.965 24.8344 -8.259
801 2 0 0 28.3822 -7.02601
802 2 1.77389 1.77389 28.3822 -7.04052
803 1 1.77389 0 30.1561 -8.48316
804 3 0 1.77389 30.1561 -6.3528
805 2 3.54778 0 28.3822 -6.99898
808 2 3.54778 1.77389 30.1561 -6.97545