ITEM: TIMESTEP
0
ITEM: NUMBER OF ATOMS
4000
ITEM: BOX BOUNDS pp pp pp
0.0000000000000000e+00 3.5384799999999998e+01
0.0000000000000000e+00 3.5384799999999998e+01
0.0000000000000000e+00 3.5384799999999998e+01
ITEM: ATOMS id type x y z c_peratom
1 1 0 0 0 -8.41785
2 2 1.76924 1.76924 0 -6.95558
3 2 1.76924 0 1.76924 -7.00266
4 1 0 1.76924 1.76924 -8.45475
101 1 0 0 3.53848 -8.36854
102 2 1.76924 1.76924 3.53848 -6.9381
5 1 3.53848 0 0 -8.59435
6 2 5.30772 1.76924 0 -6.97875
7 1 5.30772 0 1.76924 -8.30271
8 2 3.53848 1.76924 1.76924 -6.97904
105 1 3.53848 0 3.53848 -8.45862
106 2 5.30772 1.76924 3.53848 -7.00547
9 3 7.07696 0 0 -6.55634
10 3 8.8462 1.76924 0 -6.39612
11 1 8.8462 0 1.76924 -8.82383
12 2 7.07696 1.76924 1.76924 -6.915
109 1 7.07696 0 3.53848 -8.24681
110 3 8.8462 1.76924 3.53848 -6.20858
13 3 10.6154 0 0 -6.48905
14 1 12.3847 1.76924 0 -8.55573
15 1 12.3847 0 1.76924 -8.79026
16 3 10.6154 1.76924 1.76924 -6.29739
113 3 10.6154 0 3.53848 -6.16161
114 3 12.3847 1.76924 3.53848 -6.30847
17 3 14.1539 0 0 -6.332
18 1 15.9232 1.76924 0 -8.62773
19 1 15.9232 0 1.76924 -8.76149
20 2 14.1539 1.76924 1.76924 -6.90765
117 2 14.1539 0 3.53848 -6.78151
118 3 15.9232 1.76924 3.53848 -6.3367
21 2 0 3.53848 0 -6.86786
22 3 1.76924 5.30772 0 -6.24921
23 3 1.76924 3.53848 1.76924 -6.20006
24 1 0 5.30772 1.76924 -8.50732
121 1 0 3.53848 3.53848 -8.35787
122 1 1.76924 5.30772 3.53848 -8.43042
25 1 3.53848 3.53848 0 -8.90673
26 2 5.30772 5.30772 0 -6.954
27 1 5.30772 3.53848 1.76924 -8.34803
28 3 3.53848 5.30772 1.76924 -6.18325
125 1 3.53848 3.53848 3.53848 -8.39486
126 2 5.30772 5.30772 3.53848 -7.00257
29 2 7.07696 3.53848 0 -6.96919
30 2 8.8462 5.30772 0 -7.00691
31 1 8.8462 3.53848 1.76924 -8.73897
32 2 7.07696 5.30772 1.76924 -6.99953
129 1 7.07696 3.53848 3.53848 -8.28348
130 2 8.8462 5.30772 3.53848 -6.96054
33 2 10.6154 3.53848 0 -6.98795
34 2 12.3847 5.30772 0 -7.01631
35 3 12.3847 3.53848 1.76924 -6.44606
36 3 10.6154 5.30772 1.76924 -6.43433
133 3 10.6154 3.53848 3.53848 -6.37548
134 3 12.3847 5.30772 3.53848 -6.32113
37 1 14.1539 3.53848 0 -8.4117
38 1 15.9232 5.30772 0 -8.42917
39 3 15.9232 3.53848 1.76924 -6.30487
40 2 14.1539 5.30772 1.76924 -6.94541
137 1 14.1539 3.53848 3.53848 -8.95073
138 1 15.9232 5.30772 3.53848 -8.53995
41 3 0 7.07696 0 -6.20915
42 3 1.76924 8.8462 0 -6.28033
43 3 1.76924 7.07696 1.76924 -6.27127
44 1 0 8.8462 1.76924 -8.76804
141 2 0 7.07696 3.53848 -6.9405
142 2 1.76924 8.8462 3.53848 -6.96036
45 1 3.53848 7.07696 0 -8.92512
46 2 5.30772 8.8462 0 -6.96138
47 1 5.30772 7.07696 1.76924 -8.32308
48 2 3.53848 8.8462 1.76924 -6.9337
145 1 3.53848 7.07696 3.53848 -8.62534
146 2 5.30772 8.8462 3.53848 -6.96542
49 2 7.07696 7.07696 0 -6.9419
50 3 8.8462 8.8462 0 -6.33413
51 1 8.8462 7.07696 1.76924 -8.70803
52 2 7.07696 8.8462 1.76924 -6.95404
149 1 7.07696 7.07696 3.53848 -8.24769
150 2 8.8462 8.8462 3.53848 -7.00572
53 2 10.6154 7.07696 0 -6.99699
54 2 12.3847 8.8462 0 -7.01803
55 1 12.3847 7.07696 1.76924 -8.64992
56 3 10.6154 8.8462 1.76924 -6.34932
153 3 10.6154 7.07696 3.53848 -6.35106
154 3 12.3847 8.8462 3.53848 -6.34067
57 1 14.1539 7.07696 0 -8.35852
58 2 15.9232 8.8462 0 -6.97781
59 2 15.9232 7.07696 1.76924 -6.96752
60 2 14.1539 8.8462 1.76924 -6.97393
157 1 14.1539 7.07696 3.53848 -8.51541
158 1 15.9232 8.8462 3.53848 -8.53643
61 2 0 10.6154 0 -6.84336
62 2 1.76924 12.3847 0 -6.87617
63 2 1.76924 10.6154 1.76924 -6.9641
64 1 0 12.3847 1.76924 -8.66214
161 3 0 10.6154 3.53848 -6.34299
162 2 1.76924 12.3847 3.53848 -6.99249
65 1 3.53848 10.6154 0 -8.53957
66 2 5.30772 12.3847 0 -7.02961
67 1 5.30772 10.6154 1.76924 -8.07861
68 1 3.53848 12.3847 1.76924 -8.15925
165 1 3.53848 10.6154 3.53848 -8.40263
166 2 5.30772 12.3847 3.53848 -7.01905
69 1 7.07696 10.6154 0 -8.23223
70 2 8.8462 12.3847 0 -7.07403
71 1 8.8462 10.6154 1.76924 -8.48161
72 1 7.07696 12.3847 1.76924 -8.05302
169 1 7.07696 10.6154 3.53848 -8.17639
170 2 8.8462 12.3847 3.53848 -7.09546
73 2 10.6154 10.6154 0 -7.02475
74 1 12.3847 12.3847 0 -8.48512
75 1 12.3847 10.6154 1.76924 -8.66526
76 2 10.6154 12.3847 1.76924 -6.98386
173 2 10.6154 10.6154 3.53848 -6.95393
174 3 12.3847 12.3847 3.53848 -6.44215
77 1 14.1539 10.6154 0 -8.37436
78 2 15.9232 12.3847 0 -6.89064
79 1 15.9232 10.6154 1.76924 -8.39423
80 2 14.1539 12.3847 1.76924 -6.84437
177 3 14.1539 10.6154 3.53848 -6.38856
178 3 15.9232 12.3847 3.53848 -6.30422
81 3 0 14.1539 0 -6.14036
82 3 1.76924 15.9232 0 -6.18414
83 2 1.76924 14.1539 1.76924 -6.94582
84 1 0 15.9232 1.76924 -8.58154
181 1 0 14.1539 3.53848 -8.32315
182 2 1.76924 15.9232 3.53848 -6.9785
85 1 3.53848 14.1539 0 -8.48974
86 2 5.30772 15.9232 0 -6.99767
87 2 5.30772 14.1539 1.76924 -6.9827
88 1 3.53848 15.9232 1.76924 -8.31981
185 1 3.53848 14.1539 3.53848 -8.23965
186 2 5.30772 15.9232 3.53848 -7.03902
89 1 7.07696 14.1539 0 -8.29031
90 2 8.8462 15.9232 0 -6.98382
91 1 8.8462 14.1539 1.76924 -8.30747
92 1 7.07696 15.9232 1.76924 -8.17567
189 1 7.07696 14.1539 3.53848 -8.16132
190 2 8.8462 15.9232 3.53848 -7.05492
93 2 10.6154 14.1539 0 -6.98385
94 3 12.3847 15.9232 0 -6.13017
95 1 12.3847 14.1539 1.76924 -8.56247
96 2 10.6154 15.9232 1.76924 -6.92894
193 2 10.6154 14.1539 3.53848 -7.00267
194 2 12.3847 15.9232 3.53848 -7.0074
97 3 14.1539 14.1539 0 -6.15271
98 3 15.9232 15.9232 0 -6.10468
99 1 15.9232 14.1539 1.76924 -8.79697
100 1 14.1539 15.9232 1.76924 -8.3628
197 3 14.1539 14.1539 3.53848 -6.31853
198 3 15.9232 15.9232 3.53848 -6.11979
103 3 1.76924 0 5.30772 -6.25695
104 1 0 1.76924 5.30772 -8.53942
201 3 0 0 7.07696 -6.29369
202 3 1.76924 1.76924 7.07696 -6.2372
107 3 5.30772 0 5.30772 -6.193
108 1 3.53848 1.76924 5.30772 -8.62087
203 3 3.53848 0 7.07696 -6.36406
204 2 5.30772 1.76924 7.07696 -6.97312
111 2 8.8462 0 5.30772 -6.82901
112 1 7.07696 1.76924 5.30772 -8.47033
205 1 7.07696 0 7.07696 -8.60598
206 2 8.8462 1.76924 7.07696 -6.91986
115 1 12.3847 0 5.30772 -8.54818
116 1 10.6154 1.76924 5.30772 -8.65242
207 1 10.6154 0 7.07696 -8.76478
208 1 12.3847 1.76924 7.07696 -8.53802
119 1 15.9232 0 5.30772 -8.54356
120 3 14.1539 1.76924 5.30772 -6.28396
209 2 14.1539 0 7.07696 -6.82567
210 3 15.9232 1.76924 7.07696 -6.27242
123 2 1.76924 3.53848 5.30772 -6.99194
124 3 0 5.30772 5.30772 -6.36497
211 1 0 3.53848 7.07696 -8.74422
212 1 1.76924 5.30772 7.07696 -8.78161
127 2 5.30772 3.53848 5.30772 -7.02515
128 2 3.53848 5.30772 5.30772 -7.02804
213 2 3.53848 3.53848 7.07696 -6.98336
214 2 5.30772 5.30772 7.07696 -7.03494
131 3 8.8462 3.53848 5.30772 -6.25779
132 1 7.07696 5.30772 5.30772 -8.56941
215 2 7.07696 3.53848 7.07696 -6.99136
216 3 8.8462 5.30772 7.07696 -6.38936
135 3 12.3847 3.53848 5.30772 -6.237
136 1 10.6154 5.30772 5.30772 -8.77842
217 2 10.6154 3.53848 7.07696 -6.86397
218 1 12.3847 5.30772 7.07696 -8.76254
139 3 15.9232 3.53848 5.30772 -6.31631
140 3 14.1539 5.30772 5.30772 -6.18725
219 3 14.1539 3.53848 7.07696 -6.23774
220 1 15.9232 5.30772 7.07696 -8.92182
143 2 1.76924 7.07696 5.30772 -6.93472
144 1 0 8.8462 5.30772 -8.45362
221 3 0 7.07696 7.07696 -6.27724
222 1 1.76924 8.8462 7.07696 -8.65484
147 3 5.30772 7.07696 5.30772 -6.43922
148 3 3.53848 8.8462 5.30772 -6.44813
223 2 3.53848 7.07696 7.07696 -6.94441
224 3 5.30772 8.8462 7.07696 -6.38842
151 2 8.8462 7.07696 5.30772 -6.89153
152 1 7.07696 8.8462 5.30772 -8.63961
225 2 7.07696 7.07696 7.07696 -6.92875
226 3 8.8462 8.8462 7.07696 -6.36947
155 3 12.3847 7.07696 5.30772 -6.21032
156 1 10.6154 8.8462 5.30772 -8.67056
227 1 10.6154 7.07696 7.07696 -8.41948
228 1 12.3847 8.8462 7.07696 -8.50755
159 2 15.9232 7.07696 5.30772 -6.80879
160 3 14.1539 8.8462 5.30772 -6.2392
229 3 14.1539 7.07696 7.07696 -6.27255
230 1 15.9232 8.8462 7.07696 -8.73265
163 2 1.76924 10.6154 5.30772 -6.907
164 1 0 12.3847 5.30772 -8.57672
231 1 0 10.6154 7.07696 -8.47281
232 3 1.76924 12.3847 7.07696 -6.26394
167 3 5.30772 10.6154 5.30772 -6.25621
168 1 3.53848 12.3847 5.30772 -8.49738
233 3 3.53848 10.6154 7.07696 -6.39651
234 3 5.30772 12.3847 7.07696 -6.25191
171 2 8.8462 10.6154 5.30772 -6.93651
172 1 7.07696 12.3847 5.30772 -8.45273
235 3 7.07696 10.6154 7.07696 -6.38603
236 2 8.8462 12.3847 7.07696 -7.03255
175 3 12.3847 10.6154 5.30772 -6.46947
176 1 10.6154 12.3847 5.30772 -8.82519
237 2 10.6154 10.6154 7.07696 -6.97411
238 3 12.3847 12.3847 7.07696 -6.47408
179 3 15.9232 10.6154 5.30772 -6.3658
180 3 14.1539 12.3847 5.30772 -6.60072
239 3 14.1539 10.6154 7.07696 -6.34132
240 3 15.9232 12.3847 7.07696 -6.45138
183 2 1.76924 14.1539 5.30772 -6.95795
184 1 0 15.9232 5.30772 -8.47455
241 1 0 14.1539 7.07696 -8.72166
242 3 1.76924 15.9232 7.07696 -6.33416
187 2 5.30772 14.1539 5.30772 -6.98603
188 1 3.53848 15.9232 5.30772 -8.34286
243 1 3.53848 14.1539 7.07696 -8.65533
244 2 5.30772 15.9232 7.07696 -7.00769
191 2 8.8462 14.1539 5.30772 -7.03496
192 1 7.07696 15.9232 5.30772 -8.43973
245 1 7.07696 14.1539 7.07696 -8.48891
246 2 8.8462 15.9232 7.07696 -7.01855
195 3 12.3847 14.1539 5.30772 -6.49085
196 1 10.6154 15.9232 5.30772 -8.63107
247 2 10.6154 14.1539 7.07696 -7.0147
248 2 12.3847 15.9232 7.07696 -7.01814
199 3 15.9232 14.1539 5.30772 -6.40134
200 1 14.1539 15.9232 5.30772 -8.6254
249 2 14.1539 14.1539 7.07696 -6.9491
250 2 15.9232 15.9232 7.07696 -6.99568
251 1 1.76924 0 8.8462 -8.88198
252 3 0 1.76924 8.8462 -6.31269
301 3 0 0 10.6154 -6.27399
302 3 1.76924 1.76924 10.6154 -6.24406
303 1 1.76924 0 12.3847 -8.75969
304 3 0 1.76924 12.3847 -6.15894
253 2 5.30772 0 8.8462 -6.9484
254 1 3.53848 1.76924 8.8462 -8.75444
305 2 3.53848 0 10.6154 -6.87936
306 3 5.30772 1.76924 10.6154 -6.28432
307 3 5.30772 0 12.3847 -6.29831
308 1 3.53848 1.76924 12.3847 -8.75098
255 3 8.8462 0 8.8462 -6.27345
256 2 7.07696 1.76924 8.8462 -6.91092
309 1 7.07696 0 10.6154 -8.85401
310 3 8.8462 1.76924 10.6154 -6.31545
311 3 8.8462 0 12.3847 -6.243
312 3 7.07696 1.76924 12.3847 -6.29537
257 3 12.3847 0 8.8462 -6.24569
258 3 10.6154 1.76924 8.8462 -6.32422
313 1 10.6154 0 10.6154 -8.99938
314 3 12.3847 1.76924 10.6154 -6.31154
315 3 12.3847 0 12.3847 -6.34228
316 3 10.6154 1.76924 12.3847 -6.3064
259 1 15.9232 0 8.8462 -8.23717
260 1 14.1539 1.76924 8.8462 -8.70788
317 2 14.1539 0 10.6154 -6.91097
318 2 15.9232 1.76924 10.6154 -6.92122
319 1 15.9232 0 12.3847 -8.45011
320 1 14.1539 1.76924 12.3847 -8.54209
261 3 1.76924 3.53848 8.8462 -6.28086
262 3 0 5.30772 8.8462 -6.26919
321 1 0 3.53848 10.6154 -8.87722
322 1 1.76924 5.30772 10.6154 -8.95299
323 3 1.76924 3.53848 12.3847 -6.22203
324 3 0 5.30772 12.3847 -6.22169
263 1 5.30772 3.53848 8.8462 -8.78827
264 2 3.53848 5.30772 8.8462 -6.89307
325 3 3.53848 3.53848 10.6154 -6.24705
326 3 5.30772 5.30772 10.6154 -6.28566
327 1 5.30772 3.53848 12.3847 -8.95852
328 3 3.53848 5.30772 12.3847 -6.33489
265 1 8.8462 3.53848 8.8462 -8.88293
266 3 7.07696 5.30772 8.8462 -6.40248
329 3 7.07696 3.53848 10.6154 -6.29499
330 2 8.8462 5.30772 10.6154 -6.94035
331 1 8.8462 3.53848 12.3847 -9.06385
332 3 7.07696 5.30772 12.3847 -6.32693
267 3 12.3847 3.53848 8.8462 -6.38712
268 2 10.6154 5.30772 8.8462 -6.94534
333 3 10.6154 3.53848 10.6154 -6.40177
334 3 12.3847 5.30772 10.6154 -6.41934
335 1 12.3847 3.53848 12.3847 -8.76048
336 2 10.6154 5.30772 12.3847 -6.91149
269 3 15.9232 3.53848 8.8462 -6.37935
270 3 14.1539 5.30772 8.8462 -6.3984
337 3 14.1539 3.53848 10.6154 -6.33095
338 3 15.9232 5.30772 10.6154 -6.35435
339 1 15.9232 3.53848 12.3847 -8.48921
340 3 14.1539 5.30772 12.3847 -6.34064
271 3 1.76924 7.07696 8.8462 -6.28911
272 1 0 8.8462 8.8462 -8.70559
341 3 0 7.07696 10.6154 -6.18202
342 3 1.76924 8.8462 10.6154 -6.28184
343 3 1.76924 7.07696 12.3847 -6.2654
344 1 0 8.8462 12.3847 -8.82891
273 1 5.30772 7.07696 8.8462 -8.84019
274 3 3.53848 8.8462 8.8462 -6.38961
345 3 3.53848 7.07696 10.6154 -6.33784
346 3 5.30772 8.8462 10.6154 -6.20128
347 3 5.30772 7.07696 12.3847 -6.34535
348 1 3.53848 8.8462 12.3847 -8.9305
275 2 8.8462 7.07696 8.8462 -6.942
276 3 7.07696 8.8462 8.8462 -6.31457
349 1 7.07696 7.07696 10.6154 -8.67035
350 2 8.8462 8.8462 10.6154 -7.01745
351 2 8.8462 7.07696 12.3847 -6.96743
352 1 7.07696 8.8462 12.3847 -8.30758
277 2 12.3847 7.07696 8.8462 -6.9274
278 2 10.6154 8.8462 8.8462 -6.98351
353 1 10.6154 7.07696 10.6154 -8.63769
354 3 12.3847 8.8462 10.6154 -6.34121
355 2 12.3847 7.07696 12.3847 -6.94349
356 1 10.6154 8.8462 12.3847 -8.45202
279 2 15.9232 7.07696 8.8462 -6.9118
280 2 14.1539 8.8462 8.8462 -6.91786
357 1 14.1539 7.07696 10.6154 -8.71331
358 2 15.9232 8.8462 10.6154 -6.97691
359 2 15.9232 7.07696 12.3847 -6.94774
360 1 14.1539 8.8462 12.3847 -8.4502
281 3 1.76924 10.6154 8.8462 -6.27365
282 2 0 12.3847 8.8462 -6.84136
361 3 0 10.6154 10.6154 -6.27264
362 1 1.76924 12.3847 10.6154 -8.70097
363 3 1.76924 10.6154 12.3847 -6.14781
364 3 0 12.3847 12.3847 -6.30777
283 1 5.30772 10.6154 8.8462 -8.98546
284 3 3.53848 12.3847 8.8462 -6.36208
365 3 3.53848 10.6154 10.6154 -6.33063
366 2 5.30772 12.3847 10.6154 -6.94986
367 2 5.30772 10.6154 12.3847 -6.92396
368 1 3.53848 12.3847 12.3847 -8.33387
285 1 8.8462 10.6154 8.8462 -8.75102
286 3 7.07696 12.3847 8.8462 -6.37058
369 1 7.07696 10.6154 10.6154 -8.29803
370 2 8.8462 12.3847 10.6154 -7.05216
371 2 8.8462 10.6154 12.3847 -7.00541
372 1 7.07696 12.3847 12.3847 -8.19598
287 1 12.3847 10.6154 8.8462 -8.74318
288 2 10.6154 12.3847 8.8462 -6.98895
373 2 10.6154 10.6154 10.6154 -6.9661
374 2 12.3847 12.3847 10.6154 -6.94614
375 3 12.3847 10.6154 12.3847 -6.29678
376 1 10.6154 12.3847 12.3847 -8.29926
289 1 15.9232 10.6154 8.8462 -8.67675
290 3 14.1539 12.3847 8.8462 -6.25625
377 3 14.1539 10.6154 10.6154 -6.39426
378 1 15.9232 12.3847 10.6154 -8.46079
379 2 15.9232 10.6154 12.3847 -6.95689
380 3 14.1539 12.3847 12.3847 -6.35677
291 2 1.76924 14.1539 8.8462 -6.91713
292 2 0 15.9232 8.8462 -6.96302
381 2 0 14.1539 10.6154 -6.86147
382 1 1.76924 15.9232 10.6154 -8.38891
383 2 1.76924 14.1539 12.3847 -6.98454
384 2 0 15.9232 12.3847 -6.99355
293 2 5.30772 14.1539 8.8462 -6.89258
294 3 3.53848 15.9232 8.8462 -6.32846
385 1 3.53848 14.1539 10.6154 -8.43125
386 2 5.30772 15.9232 10.6154 -6.9715
387 2 5.30772 14.1539 12.3847 -7.01215
388 2 3.53848 15.9232 12.3847 -6.99134
295 2 8.8462 14.1539 8.8462 -7.0177
296 2 7.07696 15.9232 8.8462 -7.00132
389 1 7.07696 14.1539 10.6154 -8.59355
390 2 8.8462 15.9232 10.6154 -7.01483
391 2 8.8462 14.1539 12.3847 -6.9922
392 3 7.07696 15.9232 12.3847 -6.42684
297 1 12.3847 14.1539 8.8462 -8.50801
298 1 10.6154 15.9232 8.8462 -8.30797
393 1 10.6154 14.1539 10.6154 -8.19925
394 1 12.3847 15.9232 10.6154 -8.21719
395 1 12.3847 14.1539 12.3847 -8.32472
396 1 10.6154 15.9232 12.3847 -8.11965
299 1 15.9232 14.1539 8.8462 -8.49494
300 2 14.1539 15.9232 8.8462 -6.99143
397 2 14.1539 14.1539 10.6154 -6.91121
398 1 15.9232 15.9232 10.6154 -8.35645
399 1 15.9232 14.1539 12.3847 -8.44363
400 3 14.1539 15.9232 12.3847 -6.2401
401 1 0 0 14.1539 -8.72663
402 3 1.76924 1.76924 14.1539 -6.15656
403 1 1.76924 0 15.9232 -8.39778
404 3 0 1.76924 15.9232 -6.12175
405 2 3.53848 0 14.1539 -6.81086
406 3 5.30772 1.76924 14.1539 -6.18129
407 2 5.30772 0 15.9232 -6.95787
408 1 3.53848 1.76924 15.9232 -8.59164
409 1 7.07696 0 14.1539 -8.63414
410 3 8.8462 1.76924 14.1539 -6.23868
411 2 8.8462 0 15.9232 -6.97104
412 1 7.07696 1.76924 15.9232 -8.50305
413 1 10.6154 0 14.1539 -8.66535
414 3 12.3847 1.76924 14.1539 -6.23596
415 2 12.3847 0 15.9232 -6.92663
416 1 10.6154 1.76924 15.9232 -8.71593
417 3 14.1539 0 14.1539 -6.33052
418 2 15.9232 1.76924 14.1539 -6.99275
419 2 15.9232 0 15.9232 -6.90022
420 1 14.1539 1.76924 15.9232 -8.89319
421 1 0 3.53848 14.1539 -8.88586
422 1 1.76924 5.30772 14.1539 -8.95019
423 3 1.76924 3.53848 15.9232 -6.34215
424 3 0 5.30772 15.9232 -6.29252
425 3 3.53848 3.53848 14.1539 -6.23359
426 3 5.30772 5.30772 14.1539 -6.29572
427 1 5.30772 3.53848 15.9232 -8.4969
428 2 3.53848 5.30772 15.9232 -6.81815
429 2 7.07696 3.53848 14.1539 -6.79254
430 3 8.8462 5.30772 14.1539 -6.40052
431 3 8.8462 3.53848 15.9232 -6.389
432 2 7.07696 5.30772 15.9232 -6.89632
433 3 10.6154 3.53848 14.1539 -6.35013
434 1 12.3847 5.30772 14.1539 -8.51096
435 3 12.3847 3.53848 15.9232 -6.33863
436 3 10.6154 5.30772 15.9232 -6.36373
437 2 14.1539 3.53848 14.1539 -6.93352
438 2 15.9232 5.30772 14.1539 -6.98189
439 2 15.9232 3.53848 15.9232 -6.90244
440 3 14.1539 5.30772 15.9232 -6.40651
441 3 0 7.07696 14.1539 -6.29398
442 3 1.76924 8.8462 14.1539 -6.31403
443 3 1.76924 7.07696 15.9232 -6.32769
444 3 0 8.8462 15.9232 -6.2929
445 3 3.53848 7.07696 14.1539 -6.35047
446 2 5.30772 8.8462 14.1539 -6.93695
447 1 5.30772 7.07696 15.9232 -8.5639
448 3 3.53848 8.8462 15.9232 -6.33628
449 1 7.07696 7.07696 14.1539 -8.53268
450 2 8.8462 8.8462 14.1539 -6.97912
451 2 8.8462 7.07696 15.9232 -6.91398
452 1 7.07696 8.8462 15.9232 -8.37827
453 1 10.6154 7.07696 14.1539 -8.41055
454 2 12.3847 8.8462 14.1539 -6.96417
455 2 12.3847 7.07696 15.9232 -6.97213
456 1 10.6154 8.8462 15.9232 -8.4179
457 1 14.1539 7.07696 14.1539 -8.30756
458 2 15.9232 8.8462 14.1539 -6.98711
459 1 15.9232 7.07696 15.9232 -8.38511
460 1 14.1539 8.8462 15.9232 -8.30699
461 1 0 10.6154 14.1539 -8.96839
462 3 1.76924 12.3847 14.1539 -6.20989
463 3 1.76924 10.6154 15.9232 -6.19363
464 3 0 12.3847 15.9232 -6.2773
465 1 3.53848 10.6154 14.1539 -8.69738
466 2 5.30772 12.3847 14.1539 -7.01526
467 2 5.30772 10.6154 15.9232 -6.96439
468 3 3.53848 12.3847 15.9232 -6.37754
469 1 7.07696 10.6154 14.1539 -8.29383
470 2 8.8462 12.3847 14.1539 -6.98734
471 3 8.8462 10.6154 15.9232 -6.00441
472 1 7.07696 12.3847 15.9232 -8.41209
473 1 10.6154 10.6154 14.1539 -8.35349
474 2 12.3847 12.3847 14.1539 -6.94266
475 2 12.3847 10.6154 15.9232 -6.9255
476 1 10.6154 12.3847 15.9232 -8.58747
477 1 14.1539 10.6154 14.1539 -8.52367
478 3 15.9232 12.3847 14.1539 -6.22336
479 3 15.9232 10.6154 15.9232 -6.17848
480 1 14.1539 12.3847 15.9232 -8.7362
481 1 0 14.1539 14.1539 -8.88215
482 2 1.76924 15.9232 14.1539 -7.01408
483 2 1.76924 14.1539 15.9232 -6.94471
484 1 0 15.9232 15.9232 -8.41273
485 1 3.53848 14.1539 14.1539 -8.51391
486 2 5.30772 15.9232 14.1539 -7.03047
487 2 5.30772 14.1539 15.9232 -7.05987
488 1 3.53848 15.9232 15.9232 -8.45761
489 1 7.07696 14.1539 14.1539 -8.37462
490 2 8.8462 15.9232 14.1539 -6.93197
491 2 8.8462 14.1539 15.9232 -6.91316
492 1 7.07696 15.9232 15.9232 -8.58187
493 1 10.6154 14.1539 14.1539 -8.20458
494 2 12.3847 15.9232 14.1539 -6.9474
495 3 12.3847 14.1539 15.9232 -6.22596
496 1 10.6154 15.9232 15.9232 -8.74282
497 2 14.1539 14.1539 14.1539 -6.89316
498 2 15.9232 15.9232 14.1539 -6.92753
499 3 15.9232 14.1539 15.9232 -6.36118
500 1 14.1539 15.9232 15.9232 -8.8792
501 1 0 0 17.6924 -8.79065
502 3 1.76924 1.76924 17.6924 -6.3622
503 2 1.76924 0 19.4616 -6.84966
504 3 0 1.76924 19.4616 -6.40201
601 1 0 0 21.2309 -8.65683
602 3 1.76924 1.76924 21.2309 -6.57171
505 1 3.53848 0 17.6924 -8.5416
506 2 5.30772 1.76924 17.6924 -6.98505
507 2 5.30772 0 19.4616 -6.96183
508 2 3.53848 1.76924 19.4616 -6.92973
605 1 3.53848 0 21.2309 -8.66708
606 3 5.30772 1.76924 21.2309 -6.33784
509 1 7.07696 0 17.6924 -8.30162
510 2 8.8462 1.76924 17.6924 -6.92892
511 2 8.8462 0 19.4616 -6.96142
512 1 7.07696 1.76924 19.4616 -8.53555
609 1 7.07696 0 21.2309 -8.59068
610 3 8.8462 1.76924 21.2309 -6.35142
513 1 10.6154 0 17.6924 -8.26514
514 2 12.3847 1.76924 17.6924 -6.88351
515 1 12.3847 0 19.4616 -8.73467
516 2 10.6154 1.76924 19.4616 -6.9378
613 1 10.6154 0 21.2309 -8.52439
614 3 12.3847 1.76924 21.2309 -6.25139
517 3 14.1539 0 17.6924 -6.29354
518 3 15.9232 1.76924 17.6924 -6.35166
519 1 15.9232 0 19.4616 -8.7043
520 3 14.1539 1.76924 19.4616 -6.33891
617 3 14.1539 0 21.2309 -6.26391
618 3 15.9232 1.76924 21.2309 -6.3434
521 2 0 3.53848 17.6924 -6.85236
522 1 1.76924 5.30772 17.6924 -8.87289
523 3 1.76924 3.53848 19.4616 -6.50518
524 1 0 5.30772 19.4616 -8.67212
621 3 0 3.53848 21.2309 -6.49949
622 3 1.76924 5.30772 21.2309 -6.42749
525 2 3.53848 3.53848 17.6924 -6.92917
526 1 5.30772 5.30772 17.6924 -8.52154
527 1 5.30772 3.53848 19.4616 -8.67529
528 3 3.53848 5.30772 19.4616 -6.29859
625 3 3.53848 3.53848 21.2309 -6.5199
626 2 5.30772 5.30772 21.2309 -6.81248
529 3 7.07696 3.53848 17.6924 -6.25231
530 1 8.8462 5.30772 17.6924 -9.03923
531 3 8.8462 3.53848 19.4616 -6.38054
532 3 7.07696 5.30772 19.4616 -6.21336
629 3 7.07696 3.53848 21.2309 -6.25599
630 1 8.8462 5.30772 21.2309 -8.81303
533 3 10.6154 3.53848 17.6924 -6.34727
534 1 12.3847 5.30772 17.6924 -8.93761
535 1 12.3847 3.53848 19.4616 -8.89331
536 3 10.6154 5.30772 19.4616 -6.28069
633 3 10.6154 3.53848 21.2309 -6.312
634 2 12.3847 5.30772 21.2309 -6.84826
537 3 14.1539 3.53848 17.6924 -6.40653
538 3 15.9232 5.30772 17.6924 -6.29851
539 3 15.9232 3.53848 19.4616 -6.42686
540 3 14.1539 5.30772 19.4616 -6.41425
637 3 14.1539 3.53848 21.2309 -6.33301
638 3 15.9232 5.30772 21.2309 -6.32848
541 2 0 7.07696 17.6924 -6.88465
542 1 1.76924 8.8462 17.6924 -8.7435
543 3 1.76924 7.07696 19.4616 -6.28852
544 1 0 8.8462 19.4616 -8.53635
641 3 0 7.07696 21.2309 -6.3194
642 3 1.76924 8.8462 21.2309 -6.31728
545 3 3.53848 7.07696 17.6924 -6.2533
546 2 5.30772 8.8462 17.6924 -6.95556
547 1 5.30772 7.07696 19.4616 -8.4656
548 2 3.53848 8.8462 19.4616 -6.91874
645 1 3.53848 7.07696 21.2309 -8.51821
646 2 5.30772 8.8462 21.2309 -6.99216
549 3 7.07696 7.07696 17.6924 -6.24371
550 3 8.8462 8.8462 17.6924 -6.15768
551 3 8.8462 7.07696 19.4616 -6.22822
552 1 7.07696 8.8462 19.4616 -8.4544
649 2 7.07696 7.07696 21.2309 -6.87839
650 1 8.8462 8.8462 21.2309 -8.64545
553 2 10.6154 7.07696 17.6924 -6.89575
554 2 12.3847 8.8462 17.6924 -7.01078
555 2 12.3847 7.07696 19.4616 -6.93489
556 1 10.6154 8.8462 19.4616 -8.32276
653 1 10.6154 7.07696 21.2309 -8.65081
654 2 12.3847 8.8462 21.2309 -7.00715
557 3 14.1539 7.07696 17.6924 -6.29332
558 2 15.9232 8.8462 17.6924 -6.92734
559 1 15.9232 7.07696 19.4616 -8.70683
560 1 14.1539 8.8462 19.4616 -8.26341
657 2 14.1539 7.07696 21.2309 -6.87574
658 2 15.9232 8.8462 21.2309 -6.99678
561 3 0 10.6154 17.6924 -6.20329
562 1 1.76924 12.3847 17.6924 -8.70111
563 2 1.76924 10.6154 19.4616 -6.91345
564 3 0 12.3847 19.4616 -6.2417
661 1 0 10.6154 21.2309 -8.57121
662 3 1.76924 12.3847 21.2309 -6.31947
565 1 3.53848 10.6154 17.6924 -8.559
566 2 5.30772 12.3847 17.6924 -7.03008
567 2 5.30772 10.6154 19.4616 -7.00316
568 2 3.53848 12.3847 19.4616 -6.98794
665 1 3.53848 10.6154 21.2309 -8.61052
666 1 5.30772 12.3847 21.2309 -8.64705
569 1 7.07696 10.6154 17.6924 -8.44056
570 3 8.8462 12.3847 17.6924 -6.25562
571 2 8.8462 10.6154 19.4616 -6.93197
572 2 7.07696 12.3847 19.4616 -6.96199
669 3 7.07696 10.6154 21.2309 -6.36277
670 1 8.8462 12.3847 21.2309 -8.68132
573 1 10.6154 10.6154 17.6924 -8.41923
574 3 12.3847 12.3847 17.6924 -6.1556
575 1 12.3847 10.6154 19.4616 -8.25615
576 2 10.6154 12.3847 19.4616 -6.86894
673 2 10.6154 10.6154 21.2309 -6.91668
674 2 12.3847 12.3847 21.2309 -6.97853
577 1 14.1539 10.6154 17.6924 -8.22162
578 3 15.9232 12.3847 17.6924 -6.15906
579 1 15.9232 10.6154 19.4616 -8.39827
580 2 14.1539 12.3847 19.4616 -6.88354
677 1 14.1539 10.6154 21.2309 -8.14829
678 2 15.9232 12.3847 21.2309 -6.98422
581 3 0 14.1539 17.6924 -6.19676
582 2 1.76924 15.9232 17.6924 -6.93516
583 1 1.76924 14.1539 19.4616 -8.59225
584 1 0 15.9232 19.4616 -8.43221
681 1 0 14.1539 21.2309 -8.61979
682 3 1.76924 15.9232 21.2309 -6.28628
585 2 3.53848 14.1539 17.6924 -6.9771
586 2 5.30772 15.9232 17.6924 -7.03921
587 1 5.30772 14.1539 19.4616 -8.59711
588 3 3.53848 15.9232 19.4616 -6.38315
685 3 3.53848 14.1539 21.2309 -6.29036
686 1 5.30772 15.9232 21.2309 -8.75626
589 2 7.07696 14.1539 17.6924 -6.96446
590 3 8.8462 15.9232 17.6924 -6.26203
591 1 8.8462 14.1539 19.4616 -8.69876
592 2 7.07696 15.9232 19.4616 -6.92657
689 3 7.07696 14.1539 21.2309 -6.20696
690 1 8.8462 15.9232 21.2309 -8.61428
593 3 10.6154 14.1539 17.6924 -6.30943
594 3 12.3847 15.9232 17.6924 -6.22666
595 1 12.3847 14.1539 19.4616 -8.83497
596 3 10.6154 15.9232 19.4616 -6.26551
693 3 10.6154 14.1539 21.2309 -6.26316
694 2 12.3847 15.9232 21.2309 -6.94362
597 3 14.1539 14.1539 17.6924 -6.34609
598 2 15.9232 15.9232 17.6924 -6.8697
599 1 15.9232 14.1539 19.4616 -8.53201
600 3 14.1539 15.9232 19.4616 -6.21152
697 1 14.1539 14.1539 21.2309 -8.3929
698 2 15.9232 15.9232 21.2309 -6.98897
603 2 1.76924 0 23.0001 -6.99978
604 2 0 1.76924 23.0001 -7.02353
701 1 0 0 24.7694 -8.66803
702 2 1.76924 1.76924 24.7694 -7.05393
607 2 5.30772 0 23.0001 -7.00343
608 2 3.53848 1.76924 23.0001 -6.98573
703 3 3.53848 0 24.7694 -6.58436
704 1 5.30772 1.76924 24.7694 -8.55007
611 3 8.8462 0 23.0001 -6.3845
612 3 7.07696 1.76924 23.0001 -6.36386
705 2 7.07696 0 24.7694 -7.07876
706 1 8.8462 1.76924 24.7694 -8.6484
615 2 12.3847 0 23.0001 -6.92392
616 2 10.6154 1.76924 23.0001 -6.921
707 2 10.6154 0 24.7694 -7.07382
708 1 12.3847 1.76924 24.7694 -8.63747
619 3 15.9232 0 23.0001 -6.29203
620 1 14.1539 1.76924 23.0001 -8.8576
709 3 14.1539 0 24.7694 -6.38881
710 3 15.9232 1.76924 24.7694 -6.25804
623 2 1.76924 3.53848 23.0001 -7.01585
624 3 0 5.30772 23.0001 -6.39105
711 1 0 3.53848 24.7694 -8.47574
712 2 1.76924 5.30772 24.7694 -6.92858
627 1 5.30772 3.53848 23.0001 -8.90914
628 3 3.53848 5.30772 23.0001 -6.35813
713 3 3.53848 3.53848 24.7694 -6.43321
714 3 5.30772 5.30772 24.7694 -6.36712
631 1 8.8462 3.53848 23.0001 -8.63662
632 2 7.07696 5.30772 23.0001 -6.89329
715 2 7.07696 3.53848 24.7694 -7.01402
716 2 8.8462 5.30772 24.7694 -6.90082
635 1 12.3847 3.53848 23.0001 -8.6206
636 3 10.6154 5.30772 23.0001 -6.30841
717 2 10.6154 3.53848 24.7694 -6.91623
718 3 12.3847 5.30772 24.7694 -6.2181
639 3 15.9232 3.53848 23.0001 -6.27766
640 1 14.1539 5.30772 23.0001 -8.92354
719 3 14.1539 3.53848 24.7694 -6.14319
720 3 15.9232 5.30772 24.7694 -6.181
643 1 1.76924 7.07696 23.0001 -8.69673
644 2 0 8.8462 23.0001 -6.94931
721 2 0 7.07696 24.7694 -6.95725
722 1 1.76924 8.8462 24.7694 -8.55097
647 1 5.30772 7.07696 23.0001 -8.81188
648 2 3.53848 8.8462 23.0001 -6.97399
723 3 3.53848 7.07696 24.7694 -6.30347
724 3 5.30772 8.8462 24.7694 -6.42347
651 3 8.8462 7.07696 23.0001 -6.26118
652 3 7.07696 8.8462 23.0001 -6.3437
725 3 7.07696 7.07696 24.7694 -6.40976
726 1 8.8462 8.8462 24.7694 -8.76301
655 3 12.3847 7.07696 23.0001 -6.34041
656 3 10.6154 8.8462 23.0001 -6.29666
727 1 10.6154 7.07696 24.7694 -8.7493
728 2 12.3847 8.8462 24.7694 -6.92718
659 3 15.9232 7.07696 23.0001 -6.38889
660 1 14.1539 8.8462 23.0001 -8.56016
729 3 14.1539 7.07696 24.7694 -6.20415
730 3 15.9232 8.8462 24.7694 -6.23076
663 2 1.76924 10.6154 23.0001 -7.01382
664 2 0 12.3847 23.0001 -6.98639
731 3 0 10.6154 24.7694 -6.35827
732 2 1.76924 12.3847 24.7694 -6.99683
667 2 5.30772 10.6154 23.0001 -6.93594
668 2 3.53848 12.3847 23.0001 -6.97372
733 2 3.53848 10.6154 24.7694 -6.99455
734 3 5.30772 12.3847 24.7694 -6.44489
671 3 8.8462 10.6154 23.0001 -6.26392
672 3 7.07696 12.3847 23.0001 -6.31371
735 1 7.07696 10.6154 24.7694 -8.95624
736 3 8.8462 12.3847 24.7694 -6.35663
675 1 12.3847 10.6154 23.0001 -8.33015
676 1 10.6154 12.3847 23.0001 -8.68666
737 2 10.6154 10.6154 24.7694 -6.96249
738 2 12.3847 12.3847 24.7694 -6.99878
679 1 15.9232 10.6154 23.0001 -8.41037
680 2 14.1539 12.3847 23.0001 -7.00513
739 2 14.1539 10.6154 24.7694 -6.95159
740 2 15.9232 12.3847 24.7694 -7.02204
683 1 1.76924 14.1539 23.0001 -8.84508
684 2 0 15.9232 23.0001 -6.93603
741 2 0 14.1539 24.7694 -7.04986
742 3 1.76924 15.9232 24.7694 -6.39404
687 3 5.30772 14.1539 23.0001 -6.41271
688 3 3.53848 15.9232 23.0001 -6.29974
743 3 3.53848 14.1539 24.7694 -6.45598
744 3 5.30772 15.9232 24.7694 -6.35121
691 3 8.8462 14.1539 23.0001 -6.27905
692 2 7.07696 15.9232 23.0001 -6.87262
745 1 7.07696 14.1539 24.7694 -8.86075
746 3 8.8462 15.9232 24.7694 -6.22381
695 3 12.3847 14.1539 23.0001 -6.44782
696 1 10.6154 15.9232 23.0001 -8.70015
747 3 10.6154 14.1539 24.7694 -6.37195
748 2 12.3847 15.9232 24.7694 -7.02728
699 1 15.9232 14.1539 23.0001 -8.22967
700 2 14.1539 15.9232 23.0001 -6.99889
749 1 14.1539 14.1539 24.7694 -8.35573
750 2 15.9232 15.9232 24.7694 -7.02967
751 2 1.76924 0 26.5386 -7.07721
752 2 0 1.76924 26.5386 -7.02191
801 2 0 0 28.3078 -7.02856
802 1 1.76924 1.76924 28.3078 -8.58131
803 2 1.76924 0 30.0771 -6.99274
804 1 0 1.76924 30.0771 -8.47881
753 2 5.30772 0 26.5386 -7.22906
754 1 3.53848 1.76924 26.5386 -8.59305
805 2 3.53848 0 28.3078 -7.1504
806 2 5.30772 1.76924 28.3078 -7.11102
807 2 5.30772 0 30.0771 -7.27456
808 3 3.53848 1.76924 30.0771 -6.51972
755 2 8.8462 0 26.5386 -7.26298
756 2 7.07696 1.76924 26.5386 -7.15398
809 2 7.07696 0 28.3078 -7.37981
810 2 8.8462 1.76924 28.3078 -7.19486
811 2 8.8462 0 30.0771 -7.35494
812 2 7.07696 1.76924 30.0771 -7.15498
757 2 12.3847 0 26.5386 -7.14663
758 3 10.6154 1.76924 26.5386 -6.65043
813 2 10.6154 0 28.3078 -7.30569
814 3 12.3847 1.76924 28.3078 -6.64179
815 2 12.3847 0 30.0771 -7.1715
816 3 10.6154 1.76924 30.0771 -6.68421
759 1 15.9232 0 26.5386 -8.919
760 3 14.1539 1.76924 26.5386 -6.36135
817 2 14.1539 0 28.3078 -7.01936
818 3 15.9232 1.76924 28.3078 -6.25151
819 3 15.9232 0 30.0771 -6.42769
820 2 14.1539 1.76924 30.0771 -6.96589
761 2 1.76924 3.53848 26.5386 -6.97826
762 1 0 5.30772 26.5386 -8.23378
821 2 0 3.53848 28.3078 -6.98225
822 1 1.76924 5.30772 28.3078 -8.6103
823 3 1.76924 3.53848 30.0771 -6.28037
824 1 0 5.30772 30.0771 -8.52367
763 2 5.30772 3.53848 26.5386 -6.93747
764 1 3.53848 5.30772 26.5386 -8.8839
825 3 3.53848 3.53848 28.3078 -6.31637
826 3 5.30772 5.30772 28.3078 -6.32532
827 1 5.30772 3.53848 30.0771 -8.86443
828 3 3.53848 5.30772 30.0771 -6.24889
765 2 8.8462 3.53848 26.5386 -7.02068
766 1 7.07696 5.30772 26.5386 -8.96668
829 2 7.07696 3.53848 28.3078 -7.02436
830 3 8.8462 5.30772 28.3078 -6.37438
831 1 8.8462 3.53848 30.0771 -8.75241
832 3 7.07696 5.30772 30.0771 -6.3893
767 3 12.3847 3.53848 26.5386 -6.34736
768 1 10.6154 5.30772 26.5386 -8.86169
833 3 10.6154 3.53848 28.3078 -6.48359
834 3 12.3847 5.30772 28.3078 -6.25244
835 3 12.3847 3.53848 30.0771 -6.42287
836 1 10.6154 5.30772 30.0771 -8.70327
769 1 15.9232 3.53848 26.5386 -8.53518
770 1 14.1539 5.30772 26.5386 -8.88093
837 1 14.1539 3.53848 28.3078 -8.84222