ITEM: TIMESTEP
0
ITEM: NUMBER OF ATOMS
4000
ITEM: BOX BOUNDS pp pp pp
0.0000000000000000e+00 3.5430900000000001e+01
0.0000000000000000e+00 3.5430900000000001e+01
0.0000000000000000e+00 3.5430900000000001e+01
ITEM: ATOMS id type x y z c_peratom
1 1 0 0 0 -9.03519
2 3 1.77154 1.77154 0 -6.2274
3 3 1.77154 0 1.77154 -6.17027
4 1 0 1.77154 1.77154 -8.78435
101 3 0 0 3.54309 -6.31402
102 3 1.77154 1.77154 3.54309 -6.25998
5 1 3.54309 0 0 -8.74291
6 1 5.31463 1.77154 0 -8.82925
7 3 5.31463 0 1.77154 -6.14715
8 3 3.54309 1.77154 1.77154 -6.18955
105 1 3.54309 0 3.54309 -8.65027
106 1 5.31463 1.77154 3.54309 -8.76708
9 3 7.08618 0 0 -6.26319
10 2 8.85773 1.77154 0 -6.92575
11 1 8.85773 0 1.77154 -8.71469
12 2 7.08618 1.77154 1.77154 -6.90896
109 3 7.08618 0 3.54309 -6.3283
110 3 8.85773 1.77154 3.54309 -6.3138
13 1 10.6293 0 0 -8.42408
14 2 12.4008 1.77154 0 -6.94692
15 3 12.4008 0 1.77154 -6.30255
16 2 10.6293 1.77154 1.77154 -6.91818
113 2 10.6293 0 3.54309 -6.89278
114 3 12.4008 1.77154 3.54309 -6.25579
17 1 14.1724 0 0 -8.61176
18 2 15.9439 1.77154 0 -6.88672
19 3 15.9439 0 1.77154 -6.26157
20 1 14.1724 1.77154 1.77154 -8.63048
117 1 14.1724 0 3.54309 -8.78147
118 3 15.9439 1.77154 3.54309 -6.23333
21 3 0 3.54309 0 -6.25761
22 2 1.77154 5.31463 0 -6.94645
23 1 1.77154 3.54309 1.77154 -8.76314
24 2 0 5.31463 1.77154 -6.92498
121 3 0 3.54309 3.54309 -6.28225
122 3 1.77154 5.31463 3.54309 -6.41463
25 3 3.54309 3.54309 0 -6.22636
26 1 5.31463 5.31463 0 -8.65846
27 3 5.31463 3.54309 1.77154 -6.28637
28 1 3.54309 5.31463 1.77154 -8.60536
125 3 3.54309 3.54309 3.54309 -6.33643
126 3 5.31463 5.31463 3.54309 -6.50195
29 2 7.08618 3.54309 0 -6.89093
30 1 8.85773 5.31463 0 -8.57871
31 1 8.85773 3.54309 1.77154 -8.47407
32 2 7.08618 5.31463 1.77154 -7.00354
129 1 7.08618 3.54309 3.54309 -8.5929
130 2 8.85773 5.31463 3.54309 -6.98902
33 3 10.6293 3.54309 0 -6.24285
34 1 12.4008 5.31463 0 -8.63016
35 1 12.4008 3.54309 1.77154 -8.52043
36 2 10.6293 5.31463 1.77154 -6.9008
133 2 10.6293 3.54309 3.54309 -6.88779
134 3 12.4008 5.31463 3.54309 -6.18526
37 3 14.1724 3.54309 0 -6.17889
38 2 15.9439 5.31463 0 -6.91069
39 3 15.9439 3.54309 1.77154 -6.24298
40 1 14.1724 5.31463 1.77154 -8.61966
137 3 14.1724 3.54309 3.54309 -6.23891
138 3 15.9439 5.31463 3.54309 -6.28436
41 1 0 7.08618 0 -8.6366
42 2 1.77154 8.85773 0 -7.00731
43 2 1.77154 7.08618 1.77154 -7.03069
44 2 0 8.85773 1.77154 -6.94047
141 1 0 7.08618 3.54309 -8.677
142 2 1.77154 8.85773 3.54309 -7.02184
45 2 3.54309 7.08618 0 -6.9968
46 1 5.31463 8.85773 0 -8.59973
47 2 5.31463 7.08618 1.77154 -7.00277
48 1 3.54309 8.85773 1.77154 -8.69518
145 2 3.54309 7.08618 3.54309 -7.01694
146 2 5.31463 8.85773 3.54309 -6.97026
49 2 7.08618 7.08618 0 -6.86284
50 1 8.85773 8.85773 0 -8.70142
51 1 8.85773 7.08618 1.77154 -8.20937
52 3 7.08618 8.85773 1.77154 -6.25161
149 1 7.08618 7.08618 3.54309 -8.53963
150 1 8.85773 8.85773 3.54309 -8.33987
53 3 10.6293 7.08618 0 -6.3025
54 3 12.4008 8.85773 0 -6.51116
55 3 12.4008 7.08618 1.77154 -6.34486
56 2 10.6293 8.85773 1.77154 -6.85937
153 1 10.6293 7.08618 3.54309 -8.50224
154 3 12.4008 8.85773 3.54309 -6.38923
57 3 14.1724 7.08618 0 -6.37176
58 1 15.9439 8.85773 0 -8.79434
59 2 15.9439 7.08618 1.77154 -6.96142
60 3 14.1724 8.85773 1.77154 -6.51352
157 1 14.1724 7.08618 3.54309 -8.87345
158 2 15.9439 8.85773 3.54309 -6.9148
61 1 0 10.6293 0 -8.79324
62 3 1.77154 12.4008 0 -6.39305
63 3 1.77154 10.6293 1.77154 -6.38218
64 2 0 12.4008 1.77154 -6.8651
161 1 0 10.6293 3.54309 -8.75445
162 2 1.77154 12.4008 3.54309 -6.8763
65 3 3.54309 10.6293 0 -6.27477
66 2 5.31463 12.4008 0 -6.84765
67 3 5.31463 10.6293 1.77154 -6.24642
68 1 3.54309 12.4008 1.77154 -8.9824
165 3 3.54309 10.6293 3.54309 -6.37536
166 3 5.31463 12.4008 3.54309 -6.26215
69 3 7.08618 10.6293 0 -6.2323
70 3 8.85773 12.4008 0 -6.28518
71 3 8.85773 10.6293 1.77154 -6.25767
72 1 7.08618 12.4008 1.77154 -8.70565
169 1 7.08618 10.6293 3.54309 -8.48596
170 2 8.85773 12.4008 3.54309 -6.83723
73 3 10.6293 10.6293 0 -6.33567
74 2 12.4008 12.4008 0 -6.8849
75 3 12.4008 10.6293 1.77154 -6.463
76 1 10.6293 12.4008 1.77154 -8.90494
173 3 10.6293 10.6293 3.54309 -6.31465
174 3 12.4008 12.4008 3.54309 -6.25597
77 3 14.1724 10.6293 0 -6.39112
78 3 15.9439 12.4008 0 -6.32961
79 2 15.9439 10.6293 1.77154 -6.936
80 1 14.1724 12.4008 1.77154 -8.86749
177 3 14.1724 10.6293 3.54309 -6.53628
178 2 15.9439 12.4008 3.54309 -6.92161
81 1 0 14.1724 0 -8.64519
82 1 1.77154 15.9439 0 -8.53639
83 2 1.77154 14.1724 1.77154 -6.95966
84 2 0 15.9439 1.77154 -6.9686
181 1 0 14.1724 3.54309 -8.64425
182 1 1.77154 15.9439 3.54309 -8.7177
85 2 3.54309 14.1724 0 -6.93779
86 1 5.31463 15.9439 0 -8.74418
87 3 5.31463 14.1724 1.77154 -6.34645
88 3 3.54309 15.9439 1.77154 -6.34968
185 3 3.54309 14.1724 3.54309 -6.43427
186 3 5.31463 15.9439 3.54309 -6.42888
89 2 7.08618 14.1724 0 -6.92378
90 1 8.85773 15.9439 0 -8.53774
91 3 8.85773 14.1724 1.77154 -6.2318
92 3 7.08618 15.9439 1.77154 -6.31045
189 1 7.08618 14.1724 3.54309 -8.80817
190 1 8.85773 15.9439 3.54309 -8.73285
93 1 10.6293 14.1724 0 -8.59311
94 2 12.4008 15.9439 0 -7.01519
95 3 12.4008 14.1724 1.77154 -6.34955
96 2 10.6293 15.9439 1.77154 -6.95373
193 2 10.6293 14.1724 3.54309 -6.86612
194 1 12.4008 15.9439 3.54309 -8.58681
97 1 14.1724 14.1724 0 -8.66627
98 2 15.9439 15.9439 0 -7.0016
99 3 15.9439 14.1724 1.77154 -6.23426
100 2 14.1724 15.9439 1.77154 -6.95802
197 3 14.1724 14.1724 3.54309 -6.36792
198 3 15.9439 15.9439 3.54309 -6.27903
103 3 1.77154 0 5.31463 -6.30167
104 1 0 1.77154 5.31463 -8.7857
201 3 0 0 7.08618 -6.36483
202 2 1.77154 1.77154 7.08618 -6.86071
107 3 5.31463 0 5.31463 -6.27304
108 3 3.54309 1.77154 5.31463 -6.33102
203 1 3.54309 0 7.08618 -8.40738
204 2 5.31463 1.77154 7.08618 -6.87816
111 1 8.85773 0 5.31463 -8.6907
112 3 7.08618 1.77154 5.31463 -6.43213
205 3 7.08618 0 7.08618 -6.34609
206 3 8.85773 1.77154 7.08618 -6.3261
115 3 12.4008 0 5.31463 -6.30052
116 1 10.6293 1.77154 5.31463 -8.73723
207 3 10.6293 0 7.08618 -6.29956
208 3 12.4008 1.77154 7.08618 -6.34015
119 3 15.9439 0 5.31463 -6.32577
120 2 14.1724 1.77154 5.31463 -6.8554
209 1 14.1724 0 7.08618 -8.76782
210 2 15.9439 1.77154 7.08618 -7.00349
123 1 1.77154 3.54309 5.31463 -8.74108
124 3 0 5.31463 5.31463 -6.34484
211 2 0 3.54309 7.08618 -6.91408
212 1 1.77154 5.31463 7.08618 -8.63637
127 2 5.31463 3.54309 5.31463 -6.86941
128 3 3.54309 5.31463 5.31463 -6.5045
213 3 3.54309 3.54309 7.08618 -6.37572
214 1 5.31463 5.31463 7.08618 -8.64495
131 3 8.85773 3.54309 5.31463 -6.45659
132 2 7.08618 5.31463 5.31463 -6.97866
215 3 7.08618 3.54309 7.08618 -6.47683
216 2 8.85773 5.31463 7.08618 -7.00483
135 1 12.4008 3.54309 5.31463 -8.66903
136 1 10.6293 5.31463 5.31463 -8.49319
217 2 10.6293 3.54309 7.08618 -6.87392
218 3 12.4008 5.31463 7.08618 -6.2032
139 1 15.9439 3.54309 5.31463 -8.8454
140 3 14.1724 5.31463 5.31463 -6.34003
219 2 14.1724 3.54309 7.08618 -6.8532
220 2 15.9439 5.31463 7.08618 -6.97445
143 2 1.77154 7.08618 5.31463 -7.01711
144 2 0 8.85773 5.31463 -6.93643
221 2 0 7.08618 7.08618 -6.95372
222 2 1.77154 8.85773 7.08618 -6.99756
147 2 5.31463 7.08618 5.31463 -7.08195
148 1 3.54309 8.85773 5.31463 -8.76282
223 2 3.54309 7.08618 7.08618 -7.03283
224 2 5.31463 8.85773 7.08618 -7.09321
151 2 8.85773 7.08618 5.31463 -7.00647
152 2 7.08618 8.85773 5.31463 -7.04522
225 1 7.08618 7.08618 7.08618 -8.41659
226 2 8.85773 8.85773 7.08618 -7.03784
155 3 12.4008 7.08618 5.31463 -6.22124
156 2 10.6293 8.85773 5.31463 -6.90427
227 1 10.6293 7.08618 7.08618 -8.4569
228 2 12.4008 8.85773 7.08618 -6.933
159 3 15.9439 7.08618 5.31463 -6.34025
160 3 14.1724 8.85773 5.31463 -6.38066
229 1 14.1724 7.08618 7.08618 -8.859
230 2 15.9439 8.85773 7.08618 -6.99862
163 3 1.77154 10.6293 5.31463 -6.42505
164 3 0 12.4008 5.31463 -6.26184
231 1 0 10.6293 7.08618 -8.70076
232 3 1.77154 12.4008 7.08618 -6.32627
167 2 5.31463 10.6293 5.31463 -6.95491
168 1 3.54309 12.4008 5.31463 -8.94553
233 3 3.54309 10.6293 7.08618 -6.48432
234 2 5.31463 12.4008 7.08618 -6.98206
171 1 8.85773 10.6293 5.31463 -8.30744
172 3 7.08618 12.4008 5.31463 -6.28229
235 1 7.08618 10.6293 7.08618 -8.34112
236 2 8.85773 12.4008 7.08618 -6.98932
175 1 12.4008 10.6293 5.31463 -8.69272
176 1 10.6293 12.4008 5.31463 -8.54532
237 3 10.6293 10.6293 7.08618 -6.27479
238 3 12.4008 12.4008 7.08618 -6.26135
179 2 15.9439 10.6293 5.31463 -6.92646
180 2 14.1724 12.4008 5.31463 -6.8643
239 1 14.1724 10.6293 7.08618 -8.50072
240 3 15.9439 12.4008 7.08618 -6.36103
183 3 1.77154 14.1724 5.31463 -6.33364
184 3 0 15.9439 5.31463 -6.1367
241 1 0 14.1724 7.08618 -8.76214
242 3 1.77154 15.9439 7.08618 -6.31698
187 3 5.31463 14.1724 5.31463 -6.34235
188 3 3.54309 15.9439 5.31463 -6.33566
243 2 3.54309 14.1724 7.08618 -6.9021
244 1 5.31463 15.9439 7.08618 -8.76586
191 3 8.85773 14.1724 5.31463 -6.32583
192 3 7.08618 15.9439 5.31463 -6.29598
245 1 7.08618 14.1724 7.08618 -8.81837
246 2 8.85773 15.9439 7.08618 -6.838
195 1 12.4008 14.1724 5.31463 -8.54364
196 3 10.6293 15.9439 5.31463 -6.32276
247 2 10.6293 14.1724 7.08618 -6.88347
248 3 12.4008 15.9439 7.08618 -6.29773
199 1 15.9439 14.1724 5.31463 -8.60914
200 3 14.1724 15.9439 5.31463 -6.29704
249 1 14.1724 14.1724 7.08618 -8.70649
250 3 15.9439 15.9439 7.08618 -6.31039
251 2 1.77154 0 8.85773 -7.022
252 1 0 1.77154 8.85773 -8.54586
301 2 0 0 10.6293 -7.00671
302 3 1.77154 1.77154 10.6293 -6.35427
303 2 1.77154 0 12.4008 -7.00773
304 2 0 1.77154 12.4008 -7.03898
253 2 5.31463 0 8.85773 -6.90988
254 1 3.54309 1.77154 8.85773 -8.58777
305 1 3.54309 0 10.6293 -8.58237
306 3 5.31463 1.77154 10.6293 -6.25199
307 3 5.31463 0 12.4008 -6.26908
308 2 3.54309 1.77154 12.4008 -6.88785
255 1 8.85773 0 8.85773 -8.92977
256 1 7.08618 1.77154 8.85773 -8.8061
309 3 7.08618 0 10.6293 -6.29879
310 2 8.85773 1.77154 10.6293 -6.86129
311 1 8.85773 0 12.4008 -8.84268
312 1 7.08618 1.77154 12.4008 -8.6785
257 3 12.4008 0 8.85773 -6.4077
258 3 10.6293 1.77154 8.85773 -6.38691
313 3 10.6293 0 10.6293 -6.36868
314 3 12.4008 1.77154 10.6293 -6.43211
315 3 12.4008 0 12.4008 -6.28943
316 3 10.6293 1.77154 12.4008 -6.36241
259 2 15.9439 0 8.85773 -6.96812
260 3 14.1724 1.77154 8.85773 -6.45779
317 3 14.1724 0 10.6293 -6.46139
318 2 15.9439 1.77154 10.6293 -7.00463
319 2 15.9439 0 12.4008 -6.95495
320 1 14.1724 1.77154 12.4008 -8.66697
261 3 1.77154 3.54309 8.85773 -6.30944
262 3 0 5.31463 8.85773 -6.37501
321 1 0 3.54309 10.6293 -8.62493
322 3 1.77154 5.31463 10.6293 -6.3325
323 2 1.77154 3.54309 12.4008 -7.00933
324 1 0 5.31463 12.4008 -8.61223
263 3 5.31463 3.54309 8.85773 -6.20193
264 2 3.54309 5.31463 8.85773 -6.91878
325 1 3.54309 3.54309 10.6293 -8.62805
326 1 5.31463 5.31463 10.6293 -8.40704
327 3 5.31463 3.54309 12.4008 -6.34198
328 2 3.54309 5.31463 12.4008 -6.94056
265 2 8.85773 3.54309 8.85773 -6.88743
266 1 7.08618 5.31463 8.85773 -8.39846
329 3 7.08618 3.54309 10.6293 -6.28283
330 2 8.85773 5.31463 10.6293 -6.98121
331 1 8.85773 3.54309 12.4008 -8.64959
332 3 7.08618 5.31463 12.4008 -6.43603
267 1 12.4008 3.54309 8.85773 -8.72484
268 1 10.6293 5.31463 8.85773 -8.33741
333 1 10.6293 3.54309 10.6293 -8.55155
334 3 12.4008 5.31463 10.6293 -6.29139
335 3 12.4008 3.54309 12.4008 -6.40062
336 2 10.6293 5.31463 12.4008 -6.9321
269 1 15.9439 3.54309 8.85773 -8.69509
270 3 14.1724 5.31463 8.85773 -6.34323
337 2 14.1724 3.54309 10.6293 -6.93469
338 1 15.9439 5.31463 10.6293 -8.55549
339 2 15.9439 3.54309 12.4008 -7.01112
340 2 14.1724 5.31463 12.4008 -7.02445
271 1 1.77154 7.08618 8.85773 -8.61232
272 3 0 8.85773 8.85773 -6.28982
341 2 0 7.08618 10.6293 -6.92314
342 3 1.77154 8.85773 10.6293 -6.38773
343 2 1.77154 7.08618 12.4008 -6.94794
344 1 0 8.85773 12.4008 -8.84624
273 2 5.31463 7.08618 8.85773 -7.07565
274 2 3.54309 8.85773 8.85773 -6.98777
345 1 3.54309 7.08618 10.6293 -8.55119
346 2 5.31463 8.85773 10.6293 -7.01821
347 2 5.31463 7.08618 12.4008 -6.99545
348 3 3.54309 8.85773 12.4008 -6.48016
275 2 8.85773 7.08618 8.85773 -7.00821
276 2 7.08618 8.85773 8.85773 -7.05773
349 1 7.08618 7.08618 10.6293 -8.34703
350 2 8.85773 8.85773 10.6293 -7.02934
351 1 8.85773 7.08618 12.4008 -8.57547
352 2 7.08618 8.85773 12.4008 -7.04499
277 3 12.4008 7.08618 8.85773 -6.15055
278 1 10.6293 8.85773 8.85773 -8.42365
353 1 10.6293 7.08618 10.6293 -8.42197
354 2 12.4008 8.85773 10.6293 -6.9704
355 2 12.4008 7.08618 12.4008 -6.98136
356 3 10.6293 8.85773 12.4008 -6.42424
279 2 15.9439 7.08618 8.85773 -7.01594
280 1 14.1724 8.85773 8.85773 -8.28842
357 1 14.1724 7.08618 10.6293 -8.55752
358 2 15.9439 8.85773 10.6293 -7.05299
359 2 15.9439 7.08618 12.4008 -7.03795
360 2 14.1724 8.85773 12.4008 -7.00268
281 1 1.77154 10.6293 8.85773 -8.76154
282 2 0 12.4008 8.85773 -6.89724
361 3 0 10.6293 10.6293 -6.39213
362 2 1.77154 12.4008 10.6293 -6.90877
363 3 1.77154 10.6293 12.4008 -6.54528
364 1 0 12.4008 12.4008 -8.7574
283 1 5.31463 10.6293 8.85773 -8.68746
284 2 3.54309 12.4008 8.85773 -6.94455
365 3 3.54309 10.6293 10.6293 -6.471
366 3 5.31463 12.4008 10.6293 -6.4655
367 1 5.31463 10.6293 12.4008 -8.96301
368 3 3.54309 12.4008 12.4008 -6.42742
285 1 8.85773 10.6293 8.85773 -8.37671
286 2 7.08618 12.4008 8.85773 -6.98039
369 2 7.08618 10.6293 10.6293 -6.93646
370 2 8.85773 12.4008 10.6293 -6.97343
371 1 8.85773 10.6293 12.4008 -8.72674
372 3 7.08618 12.4008 12.4008 -6.35813
287 2 12.4008 10.6293 8.85773 -6.95808
288 1 10.6293 12.4008 8.85773 -8.76517
373 3 10.6293 10.6293 10.6293 -6.41169
374 2 12.4008 12.4008 10.6293 -7.04014
375 3 12.4008 10.6293 12.4008 -6.44459
376 1 10.6293 12.4008 12.4008 -8.67321
289 2 15.9439 10.6293 8.85773 -7.03541
290 2 14.1724 12.4008 8.85773 -6.92642
377 1 14.1724 10.6293 10.6293 -8.54348
378 2 15.9439 12.4008 10.6293 -7.06361
379 2 15.9439 10.6293 12.4008 -7.09499
380 2 14.1724 12.4008 12.4008 -7.02967
291 1 1.77154 14.1724 8.85773 -8.52335
292 2 0 15.9439 8.85773 -6.96156
381 2 0 14.1724 10.6293 -6.93044
382 1 1.77154 15.9439 10.6293 -8.73805
383 3 1.77154 14.1724 12.4008 -6.36446
384 3 0 15.9439 12.4008 -6.23688
293 2 5.31463 14.1724 8.85773 -6.96307
294 2 3.54309 15.9439 8.85773 -6.86528
385 3 3.54309 14.1724 10.6293 -6.46033
386 1 5.31463 15.9439 10.6293 -8.68963
387 3 5.31463 14.1724 12.4008 -6.34678
388 3 3.54309 15.9439 12.4008 -6.2346
295 3 8.85773 14.1724 8.85773 -6.39834
296 3 7.08618 15.9439 8.85773 -6.30326
389 1 7.08618 14.1724 10.6293 -8.75489
390 3 8.85773 15.9439 10.6293 -6.38881
391 2 8.85773 14.1724 12.4008 -6.95375
392 2 7.08618 15.9439 12.4008 -6.87631
297 2 12.4008 14.1724 8.85773 -6.97097
298 1 10.6293 15.9439 8.85773 -8.59685
393 3 10.6293 14.1724 10.6293 -6.41467
394 2 12.4008 15.9439 10.6293 -7.04766
395 2 12.4008 14.1724 12.4008 -7.08199
396 1 10.6293 15.9439 12.4008 -8.68053
299 3 15.9439 14.1724 8.85773 -6.38088
300 3 14.1724 15.9439 8.85773 -6.36337
397 1 14.1724 14.1724 10.6293 -8.6614
398 2 15.9439 15.9439 10.6293 -6.9831
399 2 15.9439 14.1724 12.4008 -7.08234
400 2 14.1724 15.9439 12.4008 -7.05926
401 3 0 0 14.1724 -6.48214
402 1 1.77154 1.77154 14.1724 -8.56827
403 2 1.77154 0 15.9439 -6.95838
404 2 0 1.77154 15.9439 -6.96492
405 1 3.54309 0 14.1724 -8.47875
406 2 5.31463 1.77154 14.1724 -6.89019
407 2 5.31463 0 15.9439 -6.95258
408 3 3.54309 1.77154 15.9439 -6.20449
409 2 7.08618 0 14.1724 -6.93656
410 2 8.85773 1.77154 14.1724 -6.8588
411 1 8.85773 0 15.9439 -8.6573
412 1 7.08618 1.77154 15.9439 -8.81036
413 3 10.6293 0 14.1724 -6.37134
414 1 12.4008 1.77154 14.1724 -8.70036
415 2 12.4008 0 15.9439 -6.94167
416 3 10.6293 1.77154 15.9439 -6.36015
417 2 14.1724 0 14.1724 -6.92603
418 2 15.9439 1.77154 14.1724 -6.97929
419 3 15.9439 0 15.9439 -6.3831
420 1 14.1724 1.77154 15.9439 -8.63539
421 2 0 3.54309 14.1724 -7.04705
422 2 1.77154 5.31463 14.1724 -6.96908
423 3 1.77154 3.54309 15.9439 -6.29672
424 1 0 5.31463 15.9439 -8.61075
425 1 3.54309 3.54309 14.1724 -8.58905
426 2 5.31463 5.31463 14.1724 -6.95423
427 3 5.31463 3.54309 15.9439 -6.2649
428 1 3.54309 5.31463 15.9439 -8.42375
429 3 7.08618 3.54309 14.1724 -6.36478
430 3 8.85773 5.31463 14.1724 -6.44438
431 3 8.85773 3.54309 15.9439 -6.39367
432 1 7.08618 5.31463 15.9439 -8.85293
433 3 10.6293 3.54309 14.1724 -6.41143
434 1 12.4008 5.31463 14.1724 -8.62826
435 2 12.4008 3.54309 15.9439 -6.95385
436 3 10.6293 5.31463 15.9439 -6.38461
437 2 14.1724 3.54309 14.1724 -7.00472
438 1 15.9439 5.31463 14.1724 -8.50355
439 2 15.9439 3.54309 15.9439 -7.0174
440 2 14.1724 5.31463 15.9439 -7.03567
441 2 0 7.08618 14.1724 -6.97589
442 3 1.77154 8.85773 14.1724 -6.4032
443 3 1.77154 7.08618 15.9439 -6.43046
444 3 0 8.85773 15.9439 -6.45739
445 1 3.54309 7.08618 14.1724 -8.76135
446 2 5.31463 8.85773 14.1724 -6.97528
447 3 5.31463 7.08618 15.9439 -6.35979
448 3 3.54309 8.85773 15.9439 -6.37762
449 2 7.08618 7.08618 14.1724 -7.00033
450 2 8.85773 8.85773 14.1724 -6.98238
451 3 8.85773 7.08618 15.9439 -6.47574
452 2 7.08618 8.85773 15.9439 -6.96619
453 2 10.6293 7.08618 14.1724 -6.94401
454 1 12.4008 8.85773 14.1724 -8.49253
455 2 12.4008 7.08618 15.9439 -6.93368
456 3 10.6293 8.85773 15.9439 -6.37815
457 1 14.1724 7.08618 14.1724 -8.27831
458 1 15.9439 8.85773 14.1724 -8.2659
459 2 15.9439 7.08618 15.9439 -6.97108
460 2 14.1724 8.85773 15.9439 -6.98296
461 2 0 10.6293 14.1724 -6.89792
462 3 1.77154 12.4008 14.1724 -6.32334
463 1 1.77154 10.6293 15.9439 -8.86775
464 3 0 12.4008 15.9439 -6.32004
465 3 3.54309 10.6293 14.1724 -6.38267
466 3 5.31463 12.4008 14.1724 -6.24347
467 1 5.31463 10.6293 15.9439 -8.9896
468 3 3.54309 12.4008 15.9439 -6.2238
469 3 7.08618 10.6293 14.1724 -6.38746
470 3 8.85773 12.4008 14.1724 -6.41471
471 1 8.85773 10.6293 15.9439 -8.8427
472 2 7.08618 12.4008 15.9439 -6.9493
473 2 10.6293 10.6293 14.1724 -6.97573
474 2 12.4008 12.4008 14.1724 -7.06206
475 1 12.4008 10.6293 15.9439 -8.55523
476 2 10.6293 12.4008 15.9439 -7.04218
477 1 14.1724 10.6293 14.1724 -8.39617
478 2 15.9439 12.4008 14.1724 -6.98133
479 3 15.9439 10.6293 15.9439 -6.23241
480 2 14.1724 12.4008 15.9439 -7.03395
481 1 0 14.1724 14.1724 -8.75474
482 3 1.77154 15.9439 14.1724 -6.33899
483 3 1.77154 14.1724 15.9439 -6.40411
484 2 0 15.9439 15.9439 -6.9589
485 1 3.54309 14.1724 14.1724 -8.95221
486 3 5.31463 15.9439 14.1724 -6.284
487 1 5.31463 14.1724 15.9439 -8.56513
488 3 3.54309 15.9439 15.9439 -6.28674
489 1 7.08618 14.1724 14.1724 -8.64994
490 1 8.85773 15.9439 14.1724 -8.45024
491 2 8.85773 14.1724 15.9439 -7.00523
492 2 7.08618 15.9439 15.9439 -7.01699
493 2 10.6293 14.1724 14.1724 -7.04365
494 2 12.4008 15.9439 14.1724 -7.06822
495 1 12.4008 14.1724 15.9439 -8.33445
496 2 10.6293 15.9439 15.9439 -7.05722
497 1 14.1724 14.1724 14.1724 -8.36775
498 1 15.9439 15.9439 14.1724 -8.36268
499 2 15.9439 14.1724 15.9439 -7.02791
500 2 14.1724 15.9439 15.9439 -7.02766
501 3 0 0 17.7155 -6.43518
502 1 1.77154 1.77154 17.7155 -8.58209
503 2 1.77154 0 19.487 -6.89411
504 3 0 1.77154 19.487 -6.35238
601 1 0 0 21.2585 -8.56147
602 3 1.77154 1.77154 21.2585 -6.34486
505 1 3.54309 0 17.7155 -8.4978
506 3 5.31463 1.77154 17.7155 -6.30929
507 3 5.31463 0 19.487 -6.42615
508 3 3.54309 1.77154 19.487 -6.21237
605 1 3.54309 0 21.2585 -8.77966
606 3 5.31463 1.77154 21.2585 -6.3654
509 3 7.08618 0 17.7155 -6.43219
510 3 8.85773 1.77154 17.7155 -6.18623
511 1 8.85773 0 19.487 -8.65768
512 3 7.08618 1.77154 19.487 -6.2938
609 3 7.08618 0 21.2585 -6.4746
610 3 8.85773 1.77154 21.2585 -6.26846
513 1 10.6293 0 17.7155 -8.6043
514 3 12.4008 1.77154 17.7155 -6.38225
515 3 12.4008 0 19.487 -6.2831
516 3 10.6293 1.77154 19.487 -6.12113
613 1 10.6293 0 21.2585 -8.68048
614 1 12.4008 1.77154 21.2585 -8.3097
517 3 14.1724 0 17.7155 -6.37687
518 2 15.9439 1.77154 17.7155 -6.95051
519 3 15.9439 0 19.487 -6.31166
520 1 14.1724 1.77154 19.487 -8.55893
617 2 14.1724 0 21.2585 -6.86316
618 1 15.9439 1.77154 21.2585 -8.26228
521 3 0 3.54309 17.7155 -6.36412
522 2 1.77154 5.31463 17.7155 -6.92797
523 1 1.77154 3.54309 19.487 -8.7524
524 2 0 5.31463 19.487 -6.94325
621 3 0 3.54309 21.2585 -6.41111
622 3 1.77154 5.31463 21.2585 -6.28913
525 1 3.54309 3.54309 17.7155 -8.38888
526 2 5.31463 5.31463 17.7155 -6.88896
527 1 5.31463 3.54309 19.487 -8.73749
528 2 3.54309 5.31463 19.487 -6.89647
625 3 3.54309 3.54309 21.2585 -6.35903
626 1 5.31463 5.31463 21.2585 -8.26118
529 3 7.08618 3.54309 17.7155 -6.32889
530 3 8.85773 5.31463 17.7155 -6.24183
531 1 8.85773 3.54309 19.487 -8.75609
532 3 7.08618 5.31463 19.487 -6.29264
629 3 7.08618 3.54309 21.2585 -6.2995
630 2 8.85773 5.31463 21.2585 -6.82678
533 1 10.6293 3.54309 17.7155 -8.7154
534 1 12.4008 5.31463 17.7155 -8.37529
535 2 12.4008 3.54309 19.487 -6.97301
536 2 10.6293 5.31463 19.487 -6.90166
633 1 10.6293 3.54309 21.2585 -8.49111
634 1 12.4008 5.31463 21.2585 -8.36165
537 2 14.1724 3.54309 17.7155 -6.98657
538 1 15.9439 5.31463 17.7155 -8.49452
539 2 15.9439 3.54309 19.487 -7.07269
540 2 14.1724 5.31463 19.487 -6.98969
637 1 14.1724 3.54309 21.2585 -8.18745
638 1 15.9439 5.31463 21.2585 -8.32414
541 3 0 7.08618 17.7155 -6.4869
542 2 1.77154 8.85773 17.7155 -6.85499
543 3 1.77154 7.08618 19.487 -6.32873
544 1 0 8.85773 19.487 -8.65012
641 1 0 7.08618 21.2585 -8.39966
642 2 1.77154 8.85773 21.2585 -6.96851
545 1 3.54309 7.08618 17.7155 -8.61773
546 3 5.31463 8.85773 17.7155 -6.31485
547 2 5.31463 7.08618 19.487 -6.92442
548 1 3.54309 8.85773 19.487 -8.48871
645 1 3.54309 7.08618 21.2585 -8.31654
646 2 5.31463 8.85773 21.2585 -7.05084
549 1 7.08618 7.08618 17.7155 -8.83216
550 3 8.85773 8.85773 17.7155 -6.37532
551 3 8.85773 7.08618 19.487 -6.25461
552 2 7.08618 8.85773 19.487 -6.90684
649 1 7.08618 7.08618 21.2585 -8.48968
650 3 8.85773 8.85773 21.2585 -6.31378
553 1 10.6293 7.08618 17.7155 -8.9614
554 3 12.4008 8.85773 17.7155 -6.35794
555 3 12.4008 7.08618 19.487 -6.14956
556 3 10.6293 8.85773 19.487 -6.30983
653 1 10.6293 7.08618 21.2585 -8.71502
654 3 12.4008 8.85773 21.2585 -6.26719
557 1 14.1724 7.08618 17.7155 -8.45956
558 1 15.9439 8.85773 17.7155 -8.65927
559 2 15.9439 7.08618 19.487 -6.92995
560 3 14.1724 8.85773 19.487 -6.2242
657 1 14.1724 7.08618 21.2585 -8.42503
658 1 15.9439 8.85773 21.2585 -8.52882
561 3 0 10.6293 17.7155 -6.33223
562 1 1.77154 12.4008 17.7155 -8.90821
563 3 1.77154 10.6293 19.487 -6.36934
564 3 0 12.4008 19.487 -6.28249
661 2 0 10.6293 21.2585 -6.99996
662 1 1.77154 12.4008 21.2585 -8.58967
565 3 3.54309 10.6293 17.7155 -6.30061
566 2 5.31463 12.4008 17.7155 -6.89613
567 1 5.31463 10.6293 19.487 -8.64578
568 2 3.54309 12.4008 19.487 -6.92601
665 2 3.54309 10.6293 21.2585 -7.03818
666 2 5.31463 12.4008 21.2585 -6.99582
569 3 7.08618 10.6293 17.7155 -6.39131
570 2 8.85773 12.4008 17.7155 -7.01701
571 1 8.85773 10.6293 19.487 -8.89368
572 2 7.08618 12.4008 19.487 -6.95134
669 2 7.08618 10.6293 21.2585 -6.98849
670 3 8.85773 12.4008 21.2585 -6.28562
573 2 10.6293 10.6293 17.7155 -6.88017
574 2 12.4008 12.4008 17.7155 -6.96806
575 1 12.4008 10.6293 19.487 -9.01264
576 2 10.6293 12.4008 19.487 -6.91717
673 3 10.6293 10.6293 21.2585 -6.34202
674 3 12.4008 12.4008 21.2585 -6.20337
577 3 14.1724 10.6293 17.7155 -6.3683
578 1 15.9439 12.4008 17.7155 -8.71183
579 3 15.9439 10.6293 19.487 -6.11254
580 3 14.1724 12.4008 19.487 -6.20176
677 3 14.1724 10.6293 21.2585 -6.27074
678 1 15.9439 12.4008 21.2585 -8.55864
581 2 0 14.1724 17.7155 -6.87783
582 3 1.77154 15.9439 17.7155 -6.36299
583 3 1.77154 14.1724 19.487 -6.25275
584 1 0 15.9439 19.487 -8.4297
681 1 0 14.1724 21.2585 -8.52162
682 3 1.77154 15.9439 21.2585 -6.22692
585 3 3.54309 14.1724 17.7155 -6.3417
586 2 5.31463 15.9439 17.7155 -6.91176
587 1 5.31463 14.1724 19.487 -8.37566
588 1 3.54309 15.9439 19.487 -8.55167
685 1 3.54309 14.1724 21.2585 -8.36714
686 1 5.31463 15.9439 21.2585 -8.39727
589 1 7.08618 14.1724 17.7155 -8.17345
590 1 8.85773 15.9439 17.7155 -8.126
591 1 8.85773 14.1724 19.487 -8.39825
592 2 7.08618 15.9439 19.487 -6.97872
689 3 7.08618 14.1724 21.2585 -6.38343
690 3 8.85773 15.9439 21.2585 -6.23306
593 1 10.6293 14.1724 17.7155 -8.23508
594 2 12.4008 15.9439 17.7155 -7.01753
595 1 12.4008 14.1724 19.487 -8.28828
596 2 10.6293 15.9439 19.487 -7.01662
693 1 10.6293 14.1724 21.2585 -8.52715
694 2 12.4008 15.9439 21.2585 -6.92343
597 1 14.1724 14.1724 17.7155 -8.36803
598 2 15.9439 15.9439 17.7155 -6.98108
599 3 15.9439 14.1724 19.487 -6.29878
600 2 14.1724 15.9439 19.487 -7.00328
697 1 14.1724 14.1724 21.2585 -8.41866
698 2 15.9439 15.9439 21.2585 -7.01932
603 2 1.77154 0 23.0301 -6.93685
604 1 0 1.77154 23.0301 -8.78934
701 3 0 0 24.8016 -6.34735
702 3 1.77154 1.77154 24.8016 -6.4524
607 2 5.31463 0 23.0301 -6.95043
608 3 3.54309 1.77154 23.0301 -6.49811
703 2 3.54309 0 24.8016 -7.02239
704 2 5.31463 1.77154 24.8016 -6.97173
611 3 8.85773 0 23.0301 -6.38237
612 1 7.08618 1.77154 23.0301 -9.02344
705 3 7.08618 0 24.8016 -6.39886
706 2 8.85773 1.77154 24.8016 -6.92816
615 3 12.4008 0 23.0301 -6.3174
616 2 10.6293 1.77154 23.0301 -6.87644
707 1 10.6293 0 24.8016 -8.64239
708 1 12.4008 1.77154 24.8016 -8.42158
619 2 15.9439 0 23.0301 -6.96788
620 2 14.1724 1.77154 23.0301 -6.98168
709 2 14.1724 0 24.8016 -6.90838
710 1 15.9439 1.77154 24.8016 -8.37287
623 2 1.77154 3.54309 23.0301 -6.85887
624 1 0 5.31463 23.0301 -8.56809
711 3 0 3.54309 24.8016 -6.35729
712 1 1.77154 5.31463 24.8016 -8.43925
627 3 5.31463 3.54309 23.0301 -6.27747
628 1 3.54309 5.31463 23.0301 -8.44048
713 1 3.54309 3.54309 24.8016 -8.47966
714 3 5.31463 5.31463 24.8016 -6.3227
631 3 8.85773 3.54309 23.0301 -6.31949
632 1 7.08618 5.31463 23.0301 -8.67723
715 3 7.08618 3.54309 24.8016 -6.35994
716 3 8.85773 5.31463 24.8016 -6.32676
635 2 12.4008 3.54309 23.0301 -6.97933
636 3 10.6293 5.31463 23.0301 -6.17124
717 1 10.6293 3.54309 24.8016 -8.4586
718 1 12.4008 5.31463 24.8016 -8.46759
639 2 15.9439 3.54309 23.0301 -7.05699
640 2 14.1724 5.31463 23.0301 -6.98976
719 1 14.1724 3.54309 24.8016 -8.26438
720 1 15.9439 5.31463 24.8016 -8.32634
643 2 1.77154 7.08618 23.0301 -7.03298
644 1 0 8.85773 23.0301 -8.40378
721 2 0 7.08618 24.8016 -6.98584
722 1 1.77154 8.85773 24.8016 -8.38396
647 2 5.31463 7.08618 23.0301 -7.01844
648 1 3.54309 8.85773 23.0301 -8.28398
723 2 3.54309 7.08618 24.8016 -6.99229
724 2 5.31463 8.85773 24.8016 -7.04339
651 2 8.85773 7.08618 23.0301 -6.92097
652 1 7.08618 8.85773 23.0301 -8.46513
725 2 7.08618 7.08618 24.8016 -6.96131
726 2 8.85773 8.85773 24.8016 -7.01839
655 3 12.4008 7.08618 23.0301 -6.13866
656 1 10.6293 8.85773 23.0301 -8.68592
727 1 10.6293 7.08618 24.8016 -8.71839
728 3 12.4008 8.85773 24.8016 -6.27624
659 2 15.9439 7.08618 23.0301 -7.07245
660 1 14.1724 8.85773 23.0301 -8.68563
729 2 14.1724 7.08618 24.8016 -6.9377
730 2 15.9439 8.85773 24.8016 -6.96984
663 2 1.77154 10.6293 23.0301 -7.06015
664 2 0 12.4008 23.0301 -7.00015
731 2 0 10.6293 24.8016 -7.06513
732 1 1.77154 12.4008 24.8016 -8.49992
667 1 5.31463 10.6293 23.0301 -8.3524
668 2 3.54309 12.4008 23.0301 -7.0248
733 2 3.54309 10.6293 24.8016 -7.06996
734 2 5.31463 12.4008 24.8016 -6.98307
671 2 8.85773 10.6293 23.0301 -6.88162
672 1 7.08618 12.4008 23.0301 -8.71926
735 2 7.08618 10.6293 24.8016 -7.04109
736 2 8.85773 12.4008 24.8016 -6.86689
675 2 12.4008 10.6293 23.0301 -6.72026
676 1 10.6293 12.4008 23.0301 -8.7328
737 3 10.6293 10.6293 24.8016 -6.36531
738 3 12.4008 12.4008 24.8016 -6.19681
679 2 15.9439 10.6293 23.0301 -6.96845
680 1 14.1724 12.4008 23.0301 -8.66875
739 3 14.1724 10.6293 24.8016 -6.22164
740 2 15.9439 12.4008 24.8016 -6.91661
683 3 1.77154 14.1724 23.0301 -6.15151
684 3 0 15.9439 23.0301 -6.22178
741 1 0 14.1724 24.8016 -8.45738
742 1 1.77154 15.9439 24.8016 -8.26289
687 2 5.31463 14.1724 23.0301 -6.95046
688 2 3.54309 15.9439 23.0301 -6.95442
743 1 3.54309 14.1724 24.8016 -8.46973
744 1 5.31463 15.9439 24.8016 -8.53958
691 3 8.85773 14.1724 23.0301 -6.28954
692 3 7.08618 15.9439 23.0301 -6.32416
745 3 7.08618 14.1724 24.8016 -6.27789
746 1 8.85773 15.9439 24.8016 -8.78323
695 3 12.4008 14.1724 23.0301 -6.19159
696 3 10.6293 15.9439 23.0301 -6.2118
747 1 10.6293 14.1724 24.8016 -8.60243
748 1 12.4008 15.9439 24.8016 -8.73169
699 1 15.9439 14.1724 23.0301 -8.34835
700 2 14.1724 15.9439 23.0301 -6.92717
749 3 14.1724 14.1724 24.8016 -6.19579
750 2 15.9439 15.9439 24.8016 -6.93472
751 1 1.77154 0 26.5732 -8.57701
752 3 0 1.77154 26.5732 -6.25923
801 2 0 0 28.3447 -6.99144
802 1 1.77154 1.77154 28.3447 -8.35371
803 1 1.77154 0 30.1163 -8.32132
804 2 0 1.77154 30.1163 -7.00256
753 1 5.31463 0 26.5732 -8.47921
754 2 3.54309 1.77154 26.5732 -7.0408
805 2 3.54309 0 28.3447 -7.00943
806 1 5.31463 1.77154 28.3447 -8.22962
807 1 5.31463 0 30.1163 -8.33409
808 2 3.54309 1.77154 30.1163 -6.92884
755 1 8.85773 0 26.5732 -8.34639
756 2 7.08618 1.77154 26.5732 -6.96252
809 2 7.08618 0 28.3447 -7.05084
810 1 8.85773 1.77154 28.3447 -8.29406
811 1 8.85773 0 30.1163 -8.29705
812 2 7.08618 1.77154 30.1163 -6.9894
757 3 12.4008 0 26.5732 -6.39495
758 2 10.6293 1.77154 26.5732 -7.01251
813 2 10.6293 0 28.3447 -6.98827
814 1 12.4008 1.77154 28.3447 -8.67357
815 2 12.4008 0 30.1163 -7.0356
816 2 10.6293 1.77154 30.1163 -6.99195
759 3 15.9439 0 26.5732 -6.32314
760 2 14.1724 1.77154 26.5732 -6.96431
817 3 14.1724 0 28.3447 -6.33837
818 1 15.9439 1.77154 28.3447 -8.57647
819 3 15.9439 0 30.1163 -6.30411
820 2 14.1724 1.77154 30.1163 -6.96931
761 2 1.77154 3.54309 26.5732 -6.90226
762 3 0 5.31463 26.5732 -6.29444
821 2 0 3.54309 28.3447 -6.96505
822 1 1.77154 5.31463 28.3447 -8.5818
823 1 1.77154 3.54309 30.1163 -8.30618
824 2 0 5.31463 30.1163 -6.98702
763 1 5.31463 3.54309 26.5732 -8.59536
764 2 3.54309 5.31463 26.5732 -6.94652
825 2 3.54309 3.54309 28.3447 -7.00901
826 3 5.31463 5.31463 28.3447 -6.29488
827 1 5.31463 3.54309 30.1163 -8.45927
828 1 3.54309 5.31463 30.1163 -8.49616
765 1 8.85773 3.54309 26.5732 -8.65636
766 3 7.08618 5.31463 26.5732 -6.31135
829 2 7.08618 3.54309 28.3447 -6.88916
830 3 8.85773 5.31463 28.3447 -6.29478
831 1 8.85773 3.54309 30.1163 -8.84406
832 3 7.08618 5.31463 30.1163 -6.28435
767 2 12.4008 3.54309 26.5732 -6.9556
768 3 10.6293 5.31463 26.5732 -6.20328
833 3 10.6293 3.54309 28.3447 -6.23869
834 1 12.4008 5.31463 28.3447 -8.54912
835 1 12.4008 3.54309 30.1163 -8.69426