ITEM: TIMESTEP
0
ITEM: NUMBER OF ATOMS
4000
ITEM: BOX BOUNDS pp pp pp
0.0000000000000000e+00 3.6243159999999996e+01
0.0000000000000000e+00 3.6243159999999996e+01
0.0000000000000000e+00 3.6243159999999996e+01
ITEM: ATOMS id type x y z c_peratom
1 2 0 0 0 -7.06242
2 1 1.81216 1.81216 0 -8.33407
3 2 1.81216 0 1.81216 -7.00017
4 3 0 1.81216 1.81216 -6.54899
101 1 0 0 3.62432 -8.30237
102 2 1.81216 1.81216 3.62432 -6.95488
5 3 3.62432 0 0 -6.50399
6 3 5.43647 1.81216 0 -6.43238
7 1 5.43647 0 1.81216 -8.19922
8 1 3.62432 1.81216 1.81216 -8.09004
105 1 3.62432 0 3.62432 -8.11044
106 1 5.43647 1.81216 3.62432 -8.02333
9 2 7.24863 0 0 -7.06837
10 1 9.06079 1.81216 0 -8.1706
11 3 9.06079 0 1.81216 -6.40209
12 1 7.24863 1.81216 1.81216 -8.08786
109 3 7.24863 0 3.62432 -6.34008
110 1 9.06079 1.81216 3.62432 -7.90997
13 3 10.8729 0 0 -6.52101
14 2 12.6851 1.81216 0 -7.07796
15 1 12.6851 0 1.81216 -8.23238
16 2 10.8729 1.81216 1.81216 -7.07622
113 2 10.8729 0 3.62432 -7.02858
114 3 12.6851 1.81216 3.62432 -6.54327
17 2 14.4973 0 0 -6.94861
18 3 16.3094 1.81216 0 -6.49758
19 3 16.3094 0 1.81216 -6.45925
20 3 14.4973 1.81216 1.81216 -6.42837
117 1 14.4973 0 3.62432 -8.24951
118 3 16.3094 1.81216 3.62432 -6.44446
21 2 0 3.62432 0 -7.03542
22 2 1.81216 5.43647 0 -7.06462
23 2 1.81216 3.62432 1.81216 -7.07002
24 2 0 5.43647 1.81216 -7.0884
121 3 0 3.62432 3.62432 -6.54838
122 2 1.81216 5.43647 3.62432 -7.02026
25 3 3.62432 3.62432 0 -6.44718
26 1 5.43647 5.43647 0 -8.23761
27 2 5.43647 3.62432 1.81216 -7.01871
28 3 3.62432 5.43647 1.81216 -6.67393
125 3 3.62432 3.62432 3.62432 -6.64299
126 2 5.43647 5.43647 3.62432 -7.09285
29 2 7.24863 3.62432 0 -7.10609
30 2 9.06079 5.43647 0 -7.01451
31 2 9.06079 3.62432 1.81216 -7.1458
32 2 7.24863 5.43647 1.81216 -7.1233
129 2 7.24863 3.62432 3.62432 -7.15896
130 1 9.06079 5.43647 3.62432 -8.1578
33 1 10.8729 3.62432 0 -8.31584
34 3 12.6851 5.43647 0 -6.40503
35 2 12.6851 3.62432 1.81216 -6.99795
36 2 10.8729 5.43647 1.81216 -7.08065
133 1 10.8729 3.62432 3.62432 -8.13363
134 3 12.6851 5.43647 3.62432 -6.58508
37 1 14.4973 3.62432 0 -8.22391
38 3 16.3094 5.43647 0 -6.327
39 2 16.3094 3.62432 1.81216 -6.94538
40 1 14.4973 5.43647 1.81216 -8.25118
137 1 14.4973 3.62432 3.62432 -8.27028
138 1 16.3094 5.43647 3.62432 -8.07656
41 1 0 7.24863 0 -8.22803
42 2 1.81216 9.06079 0 -7.00361
43 2 1.81216 7.24863 1.81216 -7.07415
44 3 0 9.06079 1.81216 -6.42525
141 3 0 7.24863 3.62432 -6.44463
142 3 1.81216 9.06079 3.62432 -6.38652
45 3 3.62432 7.24863 0 -6.54869
46 3 5.43647 9.06079 0 -6.37097
47 3 5.43647 7.24863 1.81216 -6.6522
48 2 3.62432 9.06079 1.81216 -6.96271
145 3 3.62432 7.24863 3.62432 -6.64549
146 2 5.43647 9.06079 3.62432 -7.08664
49 3 7.24863 7.24863 0 -6.48195
50 1 9.06079 9.06079 0 -8.24661
51 3 9.06079 7.24863 1.81216 -6.5746
52 2 7.24863 9.06079 1.81216 -6.98248
149 2 7.24863 7.24863 3.62432 -7.08391
150 3 9.06079 9.06079 3.62432 -6.64177
53 1 10.8729 7.24863 0 -8.24027
54 1 12.6851 9.06079 0 -8.04889
55 2 12.6851 7.24863 1.81216 -7.06437
56 3 10.8729 9.06079 1.81216 -6.43993
153 2 10.8729 7.24863 3.62432 -6.9833
154 1 12.6851 9.06079 3.62432 -8.15308
57 3 14.4973 7.24863 0 -6.30904
58 1 16.3094 9.06079 0 -8.11842
59 3 16.3094 7.24863 1.81216 -6.31849
60 2 14.4973 9.06079 1.81216 -7.01326
157 2 14.4973 7.24863 3.62432 -7.04231
158 1 16.3094 9.06079 3.62432 -8.15671
61 3 0 10.8729 0 -6.39349
62 3 1.81216 12.6851 0 -6.36338
63 1 1.81216 10.8729 1.81216 -8.28342
64 1 0 12.6851 1.81216 -8.13695
161 3 0 10.8729 3.62432 -6.32627
162 3 1.81216 12.6851 3.62432 -6.35121
65 3 3.62432 10.8729 0 -6.35663
66 3 5.43647 12.6851 0 -6.42635
67 1 5.43647 10.8729 1.81216 -8.09281
68 1 3.62432 12.6851 1.81216 -8.11814
165 1 3.62432 10.8729 3.62432 -7.96115
166 2 5.43647 12.6851 3.62432 -7.14765
69 1 7.24863 10.8729 0 -8.11934
70 2 9.06079 12.6851 0 -7.04881
71 3 9.06079 10.8729 1.81216 -6.4881
72 1 7.24863 12.6851 1.81216 -8.12676
169 2 7.24863 10.8729 3.62432 -7.04845
170 2 9.06079 12.6851 3.62432 -7.11086
73 1 10.8729 10.8729 0 -8.04406
74 1 12.6851 12.6851 0 -8.03542
75 2 12.6851 10.8729 1.81216 -7.07348
76 1 10.8729 12.6851 1.81216 -8.0298
173 2 10.8729 10.8729 3.62432 -7.02319
174 1 12.6851 12.6851 3.62432 -8.09535
77 2 14.4973 10.8729 0 -7.06366
78 3 16.3094 12.6851 0 -6.51647
79 3 16.3094 10.8729 1.81216 -6.46251
80 2 14.4973 12.6851 1.81216 -7.08203
177 1 14.4973 10.8729 3.62432 -8.19072
178 3 16.3094 12.6851 3.62432 -6.55881
81 1 0 14.4973 0 -8.04154
82 3 1.81216 16.3094 0 -6.42858
83 2 1.81216 14.4973 1.81216 -6.99725
84 1 0 16.3094 1.81216 -8.01914
181 2 0 14.4973 3.62432 -7.11379
182 1 1.81216 16.3094 3.62432 -8.02421
85 1 3.62432 14.4973 0 -8.33511
86 2 5.43647 16.3094 0 -7.18244
87 2 5.43647 14.4973 1.81216 -7.1085
88 2 3.62432 16.3094 1.81216 -7.10995
185 2 3.62432 14.4973 3.62432 -7.09004
186 2 5.43647 16.3094 3.62432 -7.17625
89 2 7.24863 14.4973 0 -7.10281
90 3 9.06079 16.3094 0 -6.62249
91 2 9.06079 14.4973 1.81216 -7.06351
92 1 7.24863 16.3094 1.81216 -8.15944
189 1 7.24863 14.4973 3.62432 -8.15633
190 2 9.06079 16.3094 3.62432 -7.03708
93 3 10.8729 14.4973 0 -6.53911
94 3 12.6851 16.3094 0 -6.54528
95 1 12.6851 14.4973 1.81216 -8.05754
96 3 10.8729 16.3094 1.81216 -6.42382
193 1 10.8729 14.4973 3.62432 -8.05485
194 1 12.6851 16.3094 3.62432 -8.20023
97 1 14.4973 14.4973 0 -8.35283
98 3 16.3094 16.3094 0 -6.61254
99 2 16.3094 14.4973 1.81216 -7.02929
100 3 14.4973 16.3094 1.81216 -6.51343
197 2 14.4973 14.4973 3.62432 -6.90406
198 1 16.3094 16.3094 3.62432 -8.39327
103 3 1.81216 0 5.43647 -6.26662
104 3 0 1.81216 5.43647 -6.44784
201 1 0 0 7.24863 -8.36374
202 1 1.81216 1.81216 7.24863 -8.31418
107 2 5.43647 0 5.43647 -6.99002
108 2 3.62432 1.81216 5.43647 -6.98995
203 1 3.62432 0 7.24863 -8.14895
204 3 5.43647 1.81216 7.24863 -6.33211
111 1 9.06079 0 5.43647 -8.02854
112 1 7.24863 1.81216 5.43647 -7.96869
205 1 7.24863 0 7.24863 -8.10654
206 1 9.06079 1.81216 7.24863 -7.98538
115 2 12.6851 0 5.43647 -7.1375
116 2 10.8729 1.81216 5.43647 -7.16556
207 3 10.8729 0 7.24863 -6.61341
208 2 12.6851 1.81216 7.24863 -7.12831
119 3 16.3094 0 5.43647 -6.64431
120 2 14.4973 1.81216 5.43647 -7.01748
209 3 14.4973 0 7.24863 -6.68455
210 3 16.3094 1.81216 7.24863 -6.58258
123 3 1.81216 3.62432 5.43647 -6.49687
124 1 0 5.43647 5.43647 -8.15017
211 3 0 3.62432 7.24863 -6.43874
212 2 1.81216 5.43647 7.24863 -6.88697
127 2 5.43647 3.62432 5.43647 -7.08967
128 3 3.62432 5.43647 5.43647 -6.56175
213 1 3.62432 3.62432 7.24863 -8.29187
214 1 5.43647 5.43647 7.24863 -8.2025
131 1 9.06079 3.62432 5.43647 -7.84604
132 2 7.24863 5.43647 5.43647 -7.07901
215 1 7.24863 3.62432 7.24863 -8.0265
216 1 9.06079 5.43647 7.24863 -8.16977
135 2 12.6851 3.62432 5.43647 -7.12334
136 2 10.8729 5.43647 5.43647 -7.09675
217 2 10.8729 3.62432 7.24863 -7.11708
218 2 12.6851 5.43647 7.24863 -7.05782
139 3 16.3094 3.62432 5.43647 -6.47958
140 2 14.4973 5.43647 5.43647 -7.03772
219 3 14.4973 3.62432 7.24863 -6.52978
220 1 16.3094 5.43647 7.24863 -8.158
143 3 1.81216 7.24863 5.43647 -6.35736
144 1 0 9.06079 5.43647 -8.16832
221 1 0 7.24863 7.24863 -8.02424
222 3 1.81216 9.06079 7.24863 -6.26151
147 3 5.43647 7.24863 5.43647 -6.53704
148 1 3.62432 9.06079 5.43647 -8.20162
223 1 3.62432 7.24863 7.24863 -8.24323
224 3 5.43647 9.06079 7.24863 -6.42381
151 3 9.06079 7.24863 5.43647 -6.57354
152 1 7.24863 9.06079 5.43647 -8.46938
225 2 7.24863 7.24863 7.24863 -6.93598
226 3 9.06079 9.06079 7.24863 -6.49709
155 1 12.6851 7.24863 5.43647 -8.22932
156 3 10.8729 9.06079 5.43647 -6.56983
227 3 10.8729 7.24863 7.24863 -6.48749
228 3 12.6851 9.06079 7.24863 -6.51648
159 2 16.3094 7.24863 5.43647 -7.07443
160 2 14.4973 9.06079 5.43647 -7.13556
229 1 14.4973 7.24863 7.24863 -7.99705
230 2 16.3094 9.06079 7.24863 -7.14505
163 1 1.81216 10.8729 5.43647 -8.04623
164 2 0 12.6851 5.43647 -7.0852
231 1 0 10.8729 7.24863 -8.09188
232 2 1.81216 12.6851 7.24863 -7.15096
167 2 5.43647 10.8729 5.43647 -7.08134
168 1 3.62432 12.6851 5.43647 -7.97024
233 2 3.62432 10.8729 7.24863 -6.99955
234 1 5.43647 12.6851 7.24863 -8.09409
171 3 9.06079 10.8729 5.43647 -6.57572
172 2 7.24863 12.6851 5.43647 -7.0544
235 3 7.24863 10.8729 7.24863 -6.50311
236 1 9.06079 12.6851 7.24863 -8.26776
175 2 12.6851 10.8729 5.43647 -7.06229
176 2 10.8729 12.6851 5.43647 -7.03548
237 3 10.8729 10.8729 7.24863 -6.53945
238 1 12.6851 12.6851 7.24863 -8.25639
179 2 16.3094 10.8729 5.43647 -7.07125
180 3 14.4973 12.6851 5.43647 -6.41746
239 2 14.4973 10.8729 7.24863 -7.04716
240 1 16.3094 12.6851 7.24863 -8.04471
183 1 1.81216 14.4973 5.43647 -8.05558
184 3 0 16.3094 5.43647 -6.44551
241 2 0 14.4973 7.24863 -7.1664
242 2 1.81216 16.3094 7.24863 -7.07523
187 3 5.43647 14.4973 5.43647 -6.48076
188 2 3.62432 16.3094 5.43647 -7.11444
243 1 3.62432 14.4973 7.24863 -7.87948
244 1 5.43647 16.3094 7.24863 -8.28709
191 2 9.06079 14.4973 5.43647 -7.15397
192 2 7.24863 16.3094 5.43647 -7.01101
245 1 7.24863 14.4973 7.24863 -8.12194
246 2 9.06079 16.3094 7.24863 -6.95167
195 3 12.6851 14.4973 5.43647 -6.34105
196 1 10.8729 16.3094 5.43647 -8.12659
247 1 10.8729 14.4973 7.24863 -8.16112
248 2 12.6851 16.3094 7.24863 -6.90776
199 3 16.3094 14.4973 5.43647 -6.43731
200 3 14.4973 16.3094 5.43647 -6.38159
249 1 14.4973 14.4973 7.24863 -8.26048
250 2 16.3094 16.3094 7.24863 -6.94813
251 3 1.81216 0 9.06079 -6.198
252 3 0 1.81216 9.06079 -6.41254
301 1 0 0 10.8729 -8.32249
302 1 1.81216 1.81216 10.8729 -8.21138
303 3 1.81216 0 12.6851 -6.3213
304 2 0 1.81216 12.6851 -7.06673
253 1 5.43647 0 9.06079 -8.00985
254 3 3.62432 1.81216 9.06079 -6.28828
305 1 3.62432 0 10.8729 -8.05429
306 3 5.43647 1.81216 10.8729 -6.33996
307 3 5.43647 0 12.6851 -6.35205
308 1 3.62432 1.81216 12.6851 -8.23154
255 3 9.06079 0 9.06079 -6.45227
256 2 7.24863 1.81216 9.06079 -6.97887
309 1 7.24863 0 10.8729 -8.22517
310 2 9.06079 1.81216 10.8729 -7.00348
311 2 9.06079 0 12.6851 -6.95518
312 1 7.24863 1.81216 12.6851 -8.17302
257 2 12.6851 0 9.06079 -7.00336
258 3 10.8729 1.81216 9.06079 -6.50901
313 1 10.8729 0 10.8729 -8.48945
314 3 12.6851 1.81216 10.8729 -6.49786
315 3 12.6851 0 12.6851 -6.47344
316 3 10.8729 1.81216 12.6851 -6.38411
259 2 16.3094 0 9.06079 -6.9674
260 1 14.4973 1.81216 9.06079 -8.24009
317 2 14.4973 0 10.8729 -7.01311
318 1 16.3094 1.81216 10.8729 -8.02972
319 1 16.3094 0 12.6851 -8.01755
320 1 14.4973 1.81216 12.6851 -8.23933
261 2 1.81216 3.62432 9.06079 -6.96342
262 1 0 5.43647 9.06079 -8.0888
321 2 0 3.62432 10.8729 -7.05272
322 1 1.81216 5.43647 10.8729 -8.23611
323 2 1.81216 3.62432 12.6851 -7.10548
324 1 0 5.43647 12.6851 -7.99887
263 3 5.43647 3.62432 9.06079 -6.37215
264 3 3.62432 5.43647 9.06079 -6.44756
325 3 3.62432 3.62432 10.8729 -6.50212
326 3 5.43647 5.43647 10.8729 -6.5685
327 2 5.43647 3.62432 12.6851 -6.94484
328 2 3.62432 5.43647 12.6851 -6.98412
265 1 9.06079 3.62432 9.06079 -7.95692
266 2 7.24863 5.43647 9.06079 -7.03151
329 1 7.24863 3.62432 10.8729 -8.15596
330 1 9.06079 5.43647 10.8729 -8.10038
331 1 9.06079 3.62432 12.6851 -8.01619
332 2 7.24863 5.43647 12.6851 -7.06315
267 1 12.6851 3.62432 9.06079 -8.19393
268 2 10.8729 5.43647 9.06079 -7.04679
333 2 10.8729 3.62432 10.8729 -7.02207
334 2 12.6851 5.43647 10.8729 -7.08254
335 3 12.6851 3.62432 12.6851 -6.49219
336 2 10.8729 5.43647 12.6851 -7.09468
269 3 16.3094 3.62432 9.06079 -6.38355
270 1 14.4973 5.43647 9.06079 -8.17396
337 2 14.4973 3.62432 10.8729 -6.94531
338 3 16.3094 5.43647 10.8729 -6.41998
339 3 16.3094 3.62432 12.6851 -6.44057
340 2 14.4973 5.43647 12.6851 -7.03691
271 3 1.81216 7.24863 9.06079 -6.40825
272 1 0 9.06079 9.06079 -8.189
341 2 0 7.24863 10.8729 -7.06961
342 2 1.81216 9.06079 10.8729 -7.1245
343 3 1.81216 7.24863 12.6851 -6.5585
344 2 0 9.06079 12.6851 -7.08827
273 3 5.43647 7.24863 9.06079 -6.48224
274 1 3.62432 9.06079 9.06079 -8.34841
345 2 3.62432 7.24863 10.8729 -6.98942
346 3 5.43647 9.06079 10.8729 -6.52075
347 1 5.43647 7.24863 12.6851 -8.2737
348 2 3.62432 9.06079 12.6851 -7.01641
275 3 9.06079 7.24863 9.06079 -6.44503
276 1 7.24863 9.06079 9.06079 -8.43783
349 2 7.24863 7.24863 10.8729 -7.05389
350 1 9.06079 9.06079 10.8729 -8.07371
351 1 9.06079 7.24863 12.6851 -8.05052
352 2 7.24863 9.06079 12.6851 -6.99759
277 3 12.6851 7.24863 9.06079 -6.4806
278 1 10.8729 9.06079 9.06079 -8.38587
353 3 10.8729 7.24863 10.8729 -6.51
354 2 12.6851 9.06079 10.8729 -6.9996
355 3 12.6851 7.24863 12.6851 -6.57621
356 2 10.8729 9.06079 12.6851 -6.92236
279 1 16.3094 7.24863 9.06079 -7.99365
280 1 14.4973 9.06079 9.06079 -8.22633
357 3 14.4973 7.24863 10.8729 -6.54031
358 3 16.3094 9.06079 10.8729 -6.39898
359 2 16.3094 7.24863 12.6851 -6.96511
360 2 14.4973 9.06079 12.6851 -6.98604
281 2 1.81216 10.8729 9.06079 -7.07335
282 2 0 12.6851 9.06079 -7.07754
361 3 0 10.8729 10.8729 -6.64766
362 2 1.81216 12.6851 10.8729 -7.08086
363 2 1.81216 10.8729 12.6851 -7.05361
364 3 0 12.6851 12.6851 -6.59589
283 2 5.43647 10.8729 9.06079 -6.98127
284 1 3.62432 12.6851 9.06079 -8.05851
365 3 3.62432 10.8729 10.8729 -6.55704
366 2 5.43647 12.6851 10.8729 -7.02801
367 1 5.43647 10.8729 12.6851 -8.25751
368 1 3.62432 12.6851 12.6851 -8.04245
285 2 9.06079 10.8729 9.06079 -6.93976
286 3 7.24863 12.6851 9.06079 -6.51308
369 3 7.24863 10.8729 10.8729 -6.521
370 3 9.06079 12.6851 10.8729 -6.56238
371 3 9.06079 10.8729 12.6851 -6.41532
372 3 7.24863 12.6851 12.6851 -6.51899
287 2 12.6851 10.8729 9.06079 -6.9803
288 2 10.8729 12.6851 9.06079 -6.93767
373 1 10.8729 10.8729 10.8729 -8.29974
374 3 12.6851 12.6851 10.8729 -6.61044
375 3 12.6851 10.8729 12.6851 -6.53694
376 3 10.8729 12.6851 12.6851 -6.5266
289 1 16.3094 10.8729 9.06079 -8.16636
290 3 14.4973 12.6851 9.06079 -6.47664
377 3 14.4973 10.8729 10.8729 -6.52647
378 3 16.3094 12.6851 10.8729 -6.42803
379 1 16.3094 10.8729 12.6851 -8.39189
380 2 14.4973 12.6851 12.6851 -6.99698
291 1 1.81216 14.4973 9.06079 -8.10919
292 2 0 16.3094 9.06079 -7.15682
381 3 0 14.4973 10.8729 -6.62717
382 2 1.81216 16.3094 10.8729 -7.14143
383 2 1.81216 14.4973 12.6851 -7.03438
384 1 0 16.3094 12.6851 -8.39985
293 2 5.43647 14.4973 9.06079 -7.04541
294 2 3.62432 16.3094 9.06079 -7.11732
385 1 3.62432 14.4973 10.8729 -7.93073
386 1 5.43647 16.3094 10.8729 -8.1301
387 2 5.43647 14.4973 12.6851 -7.04636
388 2 3.62432 16.3094 12.6851 -7.10483
295 3 9.06079 14.4973 9.06079 -6.44796
296 3 7.24863 16.3094 9.06079 -6.39217
389 3 7.24863 14.4973 10.8729 -6.52613
390 1 9.06079 16.3094 10.8729 -8.41762
391 2 9.06079 14.4973 12.6851 -6.96279
392 1 7.24863 16.3094 12.6851 -8.0002
297 3 12.6851 14.4973 9.06079 -6.54979
298 3 10.8729 16.3094 9.06079 -6.51499
393 3 10.8729 14.4973 10.8729 -6.63901
394 2 12.6851 16.3094 10.8729 -7.0413
395 2 12.6851 14.4973 12.6851 -7.04086
396 2 10.8729 16.3094 12.6851 -7.052
299 1 16.3094 14.4973 9.06079 -8.06792
300 2 14.4973 16.3094 9.06079 -7.00672
397 2 14.4973 14.4973 10.8729 -7.08524
398 1 16.3094 16.3094 10.8729 -8.04533
399 1 16.3094 14.4973 12.6851 -8.26189
400 1 14.4973 16.3094 12.6851 -8.09204
401 1 0 0 14.4973 -8.25888
402 2 1.81216 1.81216 14.4973 -7.07806
403 2 1.81216 0 16.3094 -7.023
404 2 0 1.81216 16.3094 -7.04225
405 2 3.62432 0 14.4973 -6.9375
406 3 5.43647 1.81216 14.4973 -6.44219
407 2 5.43647 0 16.3094 -6.97562
408 1 3.62432 1.81216 16.3094 -8.18497
409 3 7.24863 0 14.4973 -6.44577
410 1 9.06079 1.81216 14.4973 -8.17669
411 3 9.06079 0 16.3094 -6.38382
412 3 7.24863 1.81216 16.3094 -6.42487
413 1 10.8729 0 14.4973 -8.20642
414 3 12.6851 1.81216 14.4973 -6.43754
415 2 12.6851 0 16.3094 -7.0445
416 2 10.8729 1.81216 16.3094 -7.03722
417 2 14.4973 0 14.4973 -6.99945
418 3 16.3094 1.81216 14.4973 -6.42926
419 1 16.3094 0 16.3094 -8.07372
420 2 14.4973 1.81216 16.3094 -7.02145
421 1 0 3.62432 14.4973 -8.10542
422 1 1.81216 5.43647 14.4973 -7.94818
423 1 1.81216 3.62432 16.3094 -8.00016
424 3 0 5.43647 16.3094 -6.26108
425 1 3.62432 3.62432 14.4973 -8.08631
426 3 5.43647 5.43647 14.4973 -6.49135
427 3 5.43647 3.62432 16.3094 -6.33393
428 1 3.62432 5.43647 16.3094 -8.02434
429 3 7.24863 3.62432 14.4973 -6.50557
430 2 9.06079 5.43647 14.4973 -7.05733
431 3 9.06079 3.62432 16.3094 -6.48026
432 2 7.24863 5.43647 16.3094 -6.99641
433 1 10.8729 3.62432 14.4973 -8.08933
434 1 12.6851 5.43647 14.4973 -8.04716
435 1 12.6851 3.62432 16.3094 -8.1739
436 2 10.8729 5.43647 16.3094 -6.94366
437 1 14.4973 3.62432 14.4973 -8.18098
438 2 16.3094 5.43647 14.4973 -7
439 3 16.3094 3.62432 16.3094 -6.52383
440 2 14.4973 5.43647 16.3094 -7.00108
441 2 0 7.24863 14.4973 -6.97656
442 3 1.81216 9.06079 14.4973 -6.62705
443 3 1.81216 7.24863 16.3094 -6.33899
444 2 0 9.06079 16.3094 -6.99271
445 1 3.62432 7.24863 14.4973 -8.17115
446 2 5.43647 9.06079 14.4973 -7.10048
447 3 5.43647 7.24863 16.3094 -6.48208
448 2 3.62432 9.06079 16.3094 -6.95547
449 2 7.24863 7.24863 14.4973 -7.03737
450 3 9.06079 9.06079 14.4973 -6.39926
451 1 9.06079 7.24863 16.3094 -8.0698
452 2 7.24863 9.06079 16.3094 -7.07213
453 1 10.8729 7.24863 14.4973 -8.07245
454 3 12.6851 9.06079 14.4973 -6.44212
455 3 12.6851 7.24863 16.3094 -6.39036
456 1 10.8729 9.06079 16.3094 -8.13908
457 1 14.4973 7.24863 14.4973 -8.32585
458 3 16.3094 9.06079 14.4973 -6.47304
459 2 16.3094 7.24863 16.3094 -7.03703
460 3 14.4973 9.06079 16.3094 -6.44972
461 3 0 10.8729 14.4973 -6.68294
462 1 1.81216 12.6851 14.4973 -8.31297
463 3 1.81216 10.8729 16.3094 -6.56962
464 2 0 12.6851 16.3094 -6.96535
465 3 3.62432 10.8729 14.4973 -6.60145
466 2 5.43647 12.6851 14.4973 -7.01449
467 3 5.43647 10.8729 16.3094 -6.62327
468 3 3.62432 12.6851 16.3094 -6.5778
469 1 7.24863 10.8729 14.4973 -8.23422
470 3 9.06079 12.6851 14.4973 -6.50178
471 1 9.06079 10.8729 16.3094 -8.1725
472 2 7.24863 12.6851 16.3094 -7.10141
473 1 10.8729 10.8729 14.4973 -8.22343
474 1 12.6851 12.6851 14.4973 -8.33741
475 2 12.6851 10.8729 16.3094 -6.92932
476 2 10.8729 12.6851 16.3094 -6.96812
477 3 14.4973 10.8729 14.4973 -6.5505
478 2 16.3094 12.6851 14.4973 -7.01213
479 1 16.3094 10.8729 16.3094 -8.32841
480 3 14.4973 12.6851 16.3094 -6.51805
481 3 0 14.4973 14.4973 -6.5126
482 3 1.81216 16.3094 14.4973 -6.59573
483 3 1.81216 14.4973 16.3094 -6.59356
484 1 0 16.3094 16.3094 -8.38316
485 1 3.62432 14.4973 14.4973 -8.1901
486 2 5.43647 16.3094 14.4973 -7.11212
487 2 5.43647 14.4973 16.3094 -7.15145
488 2 3.62432 16.3094 16.3094 -7.13406
489 1 7.24863 14.4973 14.4973 -8.29082
490 3 9.06079 16.3094 14.4973 -6.50509
491 2 9.06079 14.4973 16.3094 -7.02625
492 3 7.24863 16.3094 16.3094 -6.616
493 3 10.8729 14.4973 14.4973 -6.63369
494 2 12.6851 16.3094 14.4973 -7.02941
495 2 12.6851 14.4973 16.3094 -7.00427
496 1 10.8729 16.3094 16.3094 -8.39556
497 3 14.4973 14.4973 14.4973 -6.57033
498 2 16.3094 16.3094 14.4973 -7.05247
499 2 16.3094 14.4973 16.3094 -7.04756
500 1 14.4973 16.3094 16.3094 -8.17793
501 2 0 0 18.1216 -6.97762
502 3 1.81216 1.81216 18.1216 -6.40486
503 1 1.81216 0 19.9337 -8.14929
504 2 0 1.81216 19.9337 -7.02727
601 1 0 0 21.7459 -8.04104
602 2 1.81216 1.81216 21.7459 -7.08647
505 3 3.62432 0 18.1216 -6.34225
506 1 5.43647 1.81216 18.1216 -8.1015
507 2 5.43647 0 19.9337 -6.91875
508 1 3.62432 1.81216 19.9337 -8.09654
605 3 3.62432 0 21.7459 -6.40696
606 3 5.43647 1.81216 21.7459 -6.44816
509 3 7.24863 0 18.1216 -6.39961
510 2 9.06079 1.81216 18.1216 -6.92775
511 2 9.06079 0 19.9337 -6.99944
512 1 7.24863 1.81216 19.9337 -8.27865
609 2 7.24863 0 21.7459 -6.97288
610 3 9.06079 1.81216 21.7459 -6.52481
513 3 10.8729 0 18.1216 -6.65467
514 2 12.6851 1.81216 18.1216 -7.06385
515 2 12.6851 0 19.9337 -7.03192
516 3 10.8729 1.81216 19.9337 -6.64575
613 3 10.8729 0 21.7459 -6.669
614 2 12.6851 1.81216 21.7459 -7.06917
517 1 14.4973 0 18.1216 -8.18217
518 1 16.3094 1.81216 18.1216 -8.2037
519 1 16.3094 0 19.9337 -8.1632
520 2 14.4973 1.81216 19.9337 -7.06763
617 3 14.4973 0 21.7459 -6.53907
618 3 16.3094 1.81216 21.7459 -6.49017
521 1 0 3.62432 18.1216 -8.19187
522 3 1.81216 5.43647 18.1216 -6.28231
523 1 1.81216 3.62432 19.9337 -8.19715
524 3 0 5.43647 19.9337 -6.36908
621 1 0 3.62432 21.7459 -8.21956
622 2 1.81216 5.43647 21.7459 -7.0427
525 2 3.62432 3.62432 18.1216 -6.95119
526 1 5.43647 5.43647 18.1216 -7.98055
527 1 5.43647 3.62432 19.9337 -7.99693
528 3 3.62432 5.43647 19.9337 -6.3483
625 2 3.62432 3.62432 21.7459 -7.01646
626 1 5.43647 5.43647 21.7459 -8.04845
529 1 7.24863 3.62432 18.1216 -8.13352
530 3 9.06079 5.43647 18.1216 -6.37355
531 3 9.06079 3.62432 19.9337 -6.3818
532 1 7.24863 5.43647 19.9337 -8.15075
629 3 7.24863 3.62432 21.7459 -6.43002
630 2 9.06079 5.43647 21.7459 -6.95039
533 3 10.8729 3.62432 18.1216 -6.57882
534 3 12.6851 5.43647 18.1216 -6.50648
535 3 12.6851 3.62432 19.9337 -6.61962
536 1 10.8729 5.43647 19.9337 -8.37193
633 1 10.8729 3.62432 21.7459 -8.38359
634 3 12.6851 5.43647 21.7459 -6.49192
537 3 14.4973 3.62432 18.1216 -6.58023
538 1 16.3094 5.43647 18.1216 -8.3972
539 3 16.3094 3.62432 19.9337 -6.52708
540 2 14.4973 5.43647 19.9337 -6.9542
637 2 14.4973 3.62432 21.7459 -6.96342
638 3 16.3094 5.43647 21.7459 -6.48078
541 1 0 7.24863 18.1216 -8.28665
542 1 1.81216 9.06079 18.1216 -8.17568
543 2 1.81216 7.24863 19.9337 -7.0244
544 3 0 9.06079 19.9337 -6.39845
641 1 0 7.24863 21.7459 -8.22517
642 1 1.81216 9.06079 21.7459 -8.12935
545 1 3.62432 7.24863 18.1216 -8.13549
546 2 5.43647 9.06079 18.1216 -7.07334
547 2 5.43647 7.24863 19.9337 -7.06653
548 1 3.62432 9.06079 19.9337 -7.94543
645 1 3.62432 7.24863 21.7459 -8.04362
646 1 5.43647 9.06079 21.7459 -8.08356
549 1 7.24863 7.24863 18.1216 -8.14011
550 3 9.06079 9.06079 18.1216 -6.4742
551 2 9.06079 7.24863 19.9337 -7.00428
552 2 7.24863 9.06079 19.9337 -7.05536
649 3 7.24863 7.24863 21.7459 -6.3605
650 1 9.06079 9.06079 21.7459 -7.98772
553 1 10.8729 7.24863 18.1216 -8.11128
554 3 12.6851 9.06079 18.1216 -6.49314
555 2 12.6851 7.24863 19.9337 -6.92659
556 1 10.8729 9.06079 19.9337 -8.16832
653 3 10.8729 7.24863 21.7459 -6.41706
654 3 12.6851 9.06079 21.7459 -6.41001
557 3 14.4973 7.24863 18.1216 -6.56212
558 1 16.3094 9.06079 18.1216 -8.13135
559 3 16.3094 7.24863 19.9337 -6.52953
560 2 14.4973 9.06079 19.9337 -6.93809
657 1 14.4973 7.24863 21.7459 -8.40268
658 3 16.3094 9.06079 21.7459 -6.55024
561 2 0 10.8729 18.1216 -6.97963
562 2 1.81216 12.6851 18.1216 -7.02251
563 3 1.81216 10.8729 19.9337 -6.40991
564 3 0 12.6851 19.9337 -6.61315
661 1 0 10.8729 21.7459 -8.16982
662 2 1.81216 12.6851 21.7459 -6.92084
565 1 3.62432 10.8729 18.1216 -8.25068
566 2 5.43647 12.6851 18.1216 -7.10937
567 2 5.43647 10.8729 19.9337 -7.10034
568 3 3.62432 12.6851 19.9337 -6.59529
665 3 3.62432 10.8729 21.7459 -6.33413
666 1 5.43647 12.6851 21.7459 -8.10687
569 2 7.24863 10.8729 18.1216 -7.09675
570 3 9.06079 12.6851 18.1216 -6.59207
571 2 9.06079 10.8729 19.9337 -7.09614
572 1 7.24863 12.6851 19.9337 -8.12274
669 1 7.24863 10.8729 21.7459 -7.97475
670 2 9.06079 12.6851 21.7459 -7.17006
573 2 10.8729 10.8729 18.1216 -6.93705
574 3 12.6851 12.6851 18.1216 -6.47469
575 1 12.6851 10.8729 19.9337 -8.31631
576 1 10.8729 12.6851 19.9337 -8.15515
673 2 10.8729 10.8729 21.7459 -7.09858
674 2 12.6851 12.6851 21.7459 -7.05597
577 3 14.4973 10.8729 18.1216 -6.42817
578 3 16.3094 12.6851 18.1216 -6.4673
579 1 16.3094 10.8729 19.9337 -8.32336
580 3 14.4973 12.6851 19.9337 -6.43322
677 2 14.4973 10.8729 21.7459 -7.02651
678 2 16.3094 12.6851 21.7459 -7.07174
581 3 0 14.4973 18.1216 -6.59864
582 2 1.81216 16.3094 18.1216 -7.03426
583 2 1.81216 14.4973 19.9337 -7.07225
584 1 0 16.3094 19.9337 -8.16988
681 1 0 14.4973 21.7459 -8.22497
682 2 1.81216 16.3094 21.7459 -7.01536
585 2 3.62432 14.4973 18.1216 -7.1202
586 3 5.43647 16.3094 18.1216 -6.66998
587 3 5.43647 14.4973 19.9337 -6.60002
588 3 3.62432 16.3094 19.9337 -6.57466
685 3 3.62432 14.4973 21.7459 -6.53046
686 2 5.43647 16.3094 21.7459 -6.96807
589 2 7.24863 14.4973 18.1216 -7.11901
590 2 9.06079 16.3094 18.1216 -7.02671
591 2 9.06079 14.4973 19.9337 -7.09318
592 2 7.24863 16.3094 19.9337 -7.04456
689 1 7.24863 14.4973 21.7459 -8.04623
690 2 9.06079 16.3094 21.7459 -7.13561
593 1 10.8729 14.4973 18.1216 -8.27556
594 3 12.6851 16.3094 18.1216 -6.33441
595 3 12.6851 14.4973 19.9337 -6.3658
596 3 10.8729 16.3094 19.9337 -6.5402
693 2 10.8729 14.4973 21.7459 -7.06203
694 3 12.6851 16.3094 21.7459 -6.3954
597 1 14.4973 14.4973 18.1216 -8.31666
598 3 16.3094 16.3094 18.1216 -6.62165
599 3 16.3094 14.4973 19.9337 -6.45913
600 1 14.4973 16.3094 19.9337 -8.26718
697 1 14.4973 14.4973 21.7459 -8.14122
698 3 16.3094 16.3094 21.7459 -6.43186
603 2 1.81216 0 23.5581 -6.98581
604 2 0 1.81216 23.5581 -7.09871
701 3 0 0 25.3702 -6.37935
702 1 1.81216 1.81216 25.3702 -8.36863
607 3 5.43647 0 23.5581 -6.48607
608 3 3.62432 1.81216 23.5581 -6.60067
703 3 3.62432 0 25.3702 -6.45194
704 2 5.43647 1.81216 25.3702 -7.03668
611 3 9.06079 0 23.5581 -6.56997
612 3 7.24863 1.81216 23.5581 -6.60963
705 3 7.24863 0 25.3702 -6.55551
706 2 9.06079 1.81216 25.3702 -7
615 2 12.6851 0 23.5581 -7.08533
616 3 10.8729 1.81216 23.5581 -6.60544
707 1 10.8729 0 25.3702 -8.35634
708 3 12.6851 1.81216 25.3702 -6.58613
619 3 16.3094 0 23.5581 -6.53937
620 2 14.4973 1.81216 23.5581 -7.02454
709 2 14.4973 0 25.3702 -7.10039
710 3 16.3094 1.81216 25.3702 -6.55448
623 2 1.81216 3.62432 23.5581 -7.0945
624 1 0 5.43647 23.5581 -8.21823
711 2 0 3.62432 25.3702 -6.99936
712 2 1.81216 5.43647 25.3702 -7.10287
627 1 5.43647 3.62432 23.5581 -8.3561
628 3 3.62432 5.43647 23.5581 -6.57798
713 2 3.62432 3.62432 25.3702 -7.07923
714 2 5.43647 5.43647 25.3702 -7.03237
631 3 9.06079 3.62432 23.5581 -6.63405
632 2 7.24863 5.43647 23.5581 -6.9684
715 3 7.24863 3.62432 25.3702 -6.72725
716 2 9.06079 5.43647 25.3702 -7.02908
635 3 12.6851 3.62432 23.5581 -6.58625
636 3 10.8729 5.43647 23.5581 -6.58781
717 2 10.8729 3.62432 25.3702 -7.01469
718 2 12.6851 5.43647 25.3702 -7.08223
639 1 16.3094 3.62432 23.5581 -8.13545
640 3 14.4973 5.43647 23.5581 -6.49374
719 1 14.4973 3.62432 25.3702 -8.37004
720 2 16.3094 5.43647 25.3702 -7.00878
643 2 1.81216 7.24863 23.5581 -7.01993
644 1 0 9.06079 23.5581 -8.14746
721 3 0 7.24863 25.3702 -6.52603
722 3 1.81216 9.06079 25.3702 -6.49883
647 1 5.43647 7.24863 23.5581 -8.18873
648 3 3.62432 9.06079 23.5581 -6.44698
723 3 3.62432 7.24863 25.3702 -6.61507
724 2 5.43647 9.06079 25.3702 -6.87201
651 1 9.06079 7.24863 23.5581 -8.16282
652 1 7.24863 9.06079 23.5581 -7.99893
725 3 7.24863 7.24863 25.3702 -6.54843
726 1 9.06079 9.06079 25.3702 -8.26347
655 3 12.6851 7.24863 23.5581 -6.47075
656 1 10.8729 9.06079 23.5581 -8.06531
727 2 10.8729 7.24863 25.3702 -7.02429
728 2 12.6851 9.06079 25.3702 -7.09501
659 2 16.3094 7.24863 23.5581 -6.99042
660 1 14.4973 9.06079 23.5581 -8.08887
729 1 14.4973 7.24863 25.3702 -8.15949
730 2 16.3094 9.06079 25.3702 -7.07977
663 3 1.81216 10.8729 23.5581 -6.3769
664 1 0 12.6851 23.5581 -8.23436
731 3 0 10.8729 25.3702 -6.45475
732 2 1.81216 12.6851 25.3702 -6.94532
667 3 5.43647 10.8729 23.5581 -6.35548
668 1 3.62432 12.6851 23.5581 -8.33713
733 3 3.62432 10.8729 25.3702 -6.48054
734 3 5.43647 12.6851 25.3702 -6.35976
671 2 9.06079 10.8729 23.5581 -7.10169
672 2 7.24863 12.6851 23.5581 -6.98802
735 3 7.24863 10.8729 25.3702 -6.44634
736 3 9.06079 12.6851 25.3702 -6.42101
675 1 12.6851 10.8729 23.5581 -8.05472
676 3 10.8729 12.6851 23.5581 -6.53434
737 2 10.8729 10.8729 25.3702 -7.04882
738 1 12.6851 12.6851 25.3702 -8.01962
679 2 16.3094 10.8729 23.5581 -7.0432
680 1 14.4973 12.6851 23.5581 -7.91202
739 2 14.4973 10.8729 25.3702 -7.12423
740 1 16.3094 12.6851 25.3702 -8.15392
683 3 1.81216 14.4973 23.5581 -6.50978
684 3 0 16.3094 23.5581 -6.45235
741 3 0 14.4973 25.3702 -6.58335
742 3 1.81216 16.3094 25.3702 -6.40199
687 1 5.43647 14.4973 23.5581 -8.06249
688 3 3.62432 16.3094 23.5581 -6.43927
743 2 3.62432 14.4973 25.3702 -6.92825
744 2 5.43647 16.3094 25.3702 -7.03909
691 2 9.06079 14.4973 23.5581 -7.08092
692 1 7.24863 16.3094 23.5581 -8.1142
745 1 7.24863 14.4973 25.3702 -8.09118
746 1 9.06079 16.3094 25.3702 -7.97323
695 1 12.6851 14.4973 23.5581 -8.05204
696 2 10.8729 16.3094 23.5581 -7.071
747 1 10.8729 14.4973 25.3702 -8.02814
748 2 12.6851 16.3094 25.3702 -7.00862
699 1 16.3094 14.4973 23.5581 -8.01774
700 1 14.4973 16.3094 23.5581 -8.0876
749 3 14.4973 14.4973 25.3702 -6.35859
750 3 16.3094 16.3094 25.3702 -6.35827
751 3 1.81216 0 27.1824 -6.3315
752 3 0 1.81216 27.1824 -6.35101
801 1 0 0 28.9945 -8.30666
802 3 1.81216 1.81216 28.9945 -6.30226
803 3 1.81216 0 30.8067 -6.40953
804 3 0 1.81216 30.8067 -6.27038
753 2 5.43647 0 27.1824 -7.06034
754 2 3.62432 1.81216 27.1824 -7.05805
805 1 3.62432 0 28.9945 -8.25651
806 3 5.43647 1.81216 28.9945 -6.56551
807 3 5.43647 0 30.8067 -6.45758
808 2 3.62432 1.81216 30.8067 -7.01325
755 3 9.06079 0 27.1824 -6.53764
756 2 7.24863 1.81216 27.1824 -7.08133
809 2 7.24863 0 28.9945 -6.9177
810 1 9.06079 1.81216 28.9945 -8.15082
811 3 9.06079 0 30.8067 -6.41731
812 1 7.24863 1.81216 30.8067 -8.30691
757 2 12.6851 0 27.1824 -7.09995
758 1 10.8729 1.81216 27.1824 -8.19072
813 1 10.8729 0 28.9945 -8.27281
814 2 12.6851 1.81216 28.9945 -6.98952
815 3 12.6851 0 30.8067 -6.68839
816 2 10.8729 1.81216 30.8067 -6.96429
759 2 16.3094 0 27.1824 -7.20998
760 3 14.4973 1.81216 27.1824 -6.64334
817 3 14.4973 0 28.9945 -6.81594
818 2 16.3094 1.81216 28.9945 -7.00784
819 2 16.3094 0 30.8067 -7.18967
820 3 14.4973 1.81216 30.8067 -6.6894
761 1 1.81216 3.62432 27.1824 -8.09721
762 2 0 5.43647 27.1824 -7.07511
821 1 0 3.62432 28.9945 -8.27657
822 1 1.81216 5.43647 28.9945 -7.98556
823 1 1.81216 3.62432 30.8067 -7.95876
824 3 0 5.43647 30.8067 -6.39231
763 2 5.43647 3.62432 27.1824 -7.10859
764 3 3.62432 5.43647 27.1824 -6.58818
825 1 3.62432 3.62432 28.9945 -8.11528
826 2 5.43647 5.43647 28.9945 -7.08336
827 3 5.43647 3.62432 30.8067 -6.52088
828 1 3.62432 5.43647 30.8067 -7.91964
765 2 9.06079 3.62432 27.1824 -7.04853
766 3 7.24863 5.43647 27.1824 -6.75607
829 3 7.24863 3.62432 28.9945 -6.67782
830 3 9.06079 5.43647 28.9945 -6.64418
831 2 9.06079 3.62432 30.8067 -7.03556
832 2 7.24863 5.43647 30.8067 -7.09752
767 2 12.6851 3.62432 27.1824 -7.02887
768 1 10.8729 5.43647 27.1824 -8.31227
833 3 10.8729 3.62432 28.9945 -6.51755
834 3 12.6851 5.43647 28.9945 -6.47528