ITEM: TIMESTEP
0
ITEM: NUMBER OF ATOMS
4000
ITEM: BOX BOUNDS pp pp pp
0.0000000000000000e+00 3.5907429999999998e+01
0.0000000000000000e+00 3.5907429999999998e+01
0.0000000000000000e+00 3.5907429999999998e+01
ITEM: ATOMS id type x y z c_peratom
1 2 0 0 0 -6.92212
2 1 1.79537 1.79537 0 -8.19492
3 3 1.79537 0 1.79537 -6.2748
4 1 0 1.79537 1.79537 -8.2283
101 1 0 0 3.59074 -8.30508
102 2 1.79537 1.79537 3.59074 -6.81774
5 1 3.59074 0 0 -8.35157
6 2 5.38611 1.79537 0 -7.04522
7 2 5.38611 0 1.79537 -6.9668
8 3 3.59074 1.79537 1.79537 -6.42243
105 1 3.59074 0 3.59074 -8.39474
106 3 5.38611 1.79537 3.59074 -6.3589
9 2 7.18149 0 0 -7.08621
10 2 8.97686 1.79537 0 -7.04451
11 3 8.97686 0 1.79537 -6.67113
12 2 7.18149 1.79537 1.79537 -7.04659
109 3 7.18149 0 3.59074 -6.47926
110 3 8.97686 1.79537 3.59074 -6.37195
13 2 10.7722 0 0 -7.03426
14 2 12.5676 1.79537 0 -7.02059
15 3 12.5676 0 1.79537 -6.55113
16 3 10.7722 1.79537 1.79537 -6.61268
113 1 10.7722 0 3.59074 -8.54325
114 2 12.5676 1.79537 3.59074 -6.99222
17 3 14.363 0 0 -6.3459
18 2 16.1583 1.79537 0 -6.94172
19 1 16.1583 0 1.79537 -8.51931
20 3 14.363 1.79537 1.79537 -6.5561
117 1 14.363 0 3.59074 -8.3088
118 3 16.1583 1.79537 3.59074 -6.40056
21 1 0 3.59074 0 -8.2687
22 2 1.79537 5.38611 0 -6.9843
23 3 1.79537 3.59074 1.79537 -6.33887
24 3 0 5.38611 1.79537 -6.34654
121 1 0 3.59074 3.59074 -8.27023
122 1 1.79537 5.38611 3.59074 -8.32982
25 3 3.59074 3.59074 0 -6.3796
26 3 5.38611 5.38611 0 -6.38984
27 1 5.38611 3.59074 1.79537 -8.57918
28 2 3.59074 5.38611 1.79537 -6.93523
125 3 3.59074 3.59074 3.59074 -6.51117
126 3 5.38611 5.38611 3.59074 -6.38537
29 2 7.18149 3.59074 0 -6.99718
30 3 8.97686 5.38611 0 -6.36354
31 1 8.97686 3.59074 1.79537 -8.38421
32 3 7.18149 5.38611 1.79537 -6.39934
129 1 7.18149 3.59074 3.59074 -8.41499
130 2 8.97686 5.38611 3.59074 -6.94706
33 3 10.7722 3.59074 0 -6.48045
34 2 12.5676 5.38611 0 -6.99348
35 3 12.5676 3.59074 1.79537 -6.65047
36 1 10.7722 5.38611 1.79537 -8.35699
133 2 10.7722 3.59074 3.59074 -7.02312
134 1 12.5676 5.38611 3.59074 -8.3548
37 2 14.363 3.59074 0 -7.02776
38 3 16.1583 5.38611 0 -6.50973
39 1 16.1583 3.59074 1.79537 -8.46449
40 3 14.363 5.38611 1.79537 -6.66901
137 2 14.363 3.59074 3.59074 -7.02356
138 2 16.1583 5.38611 3.59074 -7.03625
41 3 0 7.18149 0 -6.36042
42 2 1.79537 8.97686 0 -6.99303
43 1 1.79537 7.18149 1.79537 -8.20011
44 1 0 8.97686 1.79537 -8.41612
141 2 0 7.18149 3.59074 -6.99357
142 3 1.79537 8.97686 3.59074 -6.36463
45 2 3.59074 7.18149 0 -7.00833
46 1 5.38611 8.97686 0 -8.25128
47 1 5.38611 7.18149 1.79537 -8.31082
48 1 3.59074 8.97686 1.79537 -8.29866
145 1 3.59074 7.18149 3.59074 -8.17126
146 3 5.38611 8.97686 3.59074 -6.41587
49 3 7.18149 7.18149 0 -6.35875
50 1 8.97686 8.97686 0 -8.33234
51 3 8.97686 7.18149 1.79537 -6.42137
52 1 7.18149 8.97686 1.79537 -8.25614
149 3 7.18149 7.18149 3.59074 -6.41926
150 2 8.97686 8.97686 3.59074 -7.03631
53 3 10.7722 7.18149 0 -6.42658
54 2 12.5676 8.97686 0 -7.07504
55 2 12.5676 7.18149 1.79537 -7.05056
56 1 10.7722 8.97686 1.79537 -8.40021
153 2 10.7722 7.18149 3.59074 -7.09717
154 2 12.5676 8.97686 3.59074 -7.07739
57 2 14.363 7.18149 0 -7.03124
58 1 16.1583 8.97686 0 -8.23394
59 3 16.1583 7.18149 1.79537 -6.50222
60 1 14.363 8.97686 1.79537 -8.343
157 2 14.363 7.18149 3.59074 -7.1319
158 2 16.1583 8.97686 3.59074 -7.05199
61 3 0 10.7722 0 -6.51313
62 2 1.79537 12.5676 0 -7.04176
63 3 1.79537 10.7722 1.79537 -6.62595
64 2 0 12.5676 1.79537 -7.07071
161 2 0 10.7722 3.59074 -7.11811
162 2 1.79537 12.5676 3.59074 -7.15979
65 2 3.59074 10.7722 0 -7.11703
66 2 5.38611 12.5676 0 -7.07157
67 2 5.38611 10.7722 1.79537 -7.12315
68 2 3.59074 12.5676 1.79537 -7.12733
165 3 3.59074 10.7722 3.59074 -6.61345
166 2 5.38611 12.5676 3.59074 -7.22624
69 1 7.18149 10.7722 0 -8.17103
70 1 8.97686 12.5676 0 -8.30997
71 2 8.97686 10.7722 1.79537 -7.14955
72 2 7.18149 12.5676 1.79537 -7.12525
169 2 7.18149 10.7722 3.59074 -7.12809
170 2 8.97686 12.5676 3.59074 -7.18143
73 3 10.7722 10.7722 0 -6.60859
74 2 12.5676 12.5676 0 -7.07344
75 2 12.5676 10.7722 1.79537 -7.13935
76 2 10.7722 12.5676 1.79537 -7.118
173 2 10.7722 10.7722 3.59074 -7.18431
174 2 12.5676 12.5676 3.59074 -7.04828
77 2 14.363 10.7722 0 -7.06516
78 1 16.1583 12.5676 0 -8.39967
79 2 16.1583 10.7722 1.79537 -7.02794
80 1 14.363 12.5676 1.79537 -8.31852
177 3 14.363 10.7722 3.59074 -6.43503
178 1 16.1583 12.5676 3.59074 -8.29343
81 3 0 14.363 0 -6.33023
82 1 1.79537 16.1583 0 -8.38942
83 1 1.79537 14.363 1.79537 -8.3458
84 3 0 16.1583 1.79537 -6.44845
181 2 0 14.363 3.59074 -7.08638
182 3 1.79537 16.1583 3.59074 -6.46099
85 3 3.59074 14.363 0 -6.53393
86 3 5.38611 16.1583 0 -6.41819
87 3 5.38611 14.363 1.79537 -6.53947
88 1 3.59074 16.1583 1.79537 -8.33362
185 2 3.59074 14.363 3.59074 -7.15566
186 1 5.38611 16.1583 3.59074 -8.1539
89 1 7.18149 14.363 0 -8.14527
90 1 8.97686 16.1583 0 -7.93228
91 2 8.97686 14.363 1.79537 -7.05812
92 1 7.18149 16.1583 1.79537 -8.26539
189 2 7.18149 14.363 3.59074 -7.11186
190 3 8.97686 16.1583 3.59074 -6.39602
93 3 10.7722 14.363 0 -6.45888
94 3 12.5676 16.1583 0 -6.43133
95 2 12.5676 14.363 1.79537 -6.97923
96 1 10.7722 16.1583 1.79537 -8.364
193 3 10.7722 14.363 3.59074 -6.41904
194 3 12.5676 16.1583 3.59074 -6.27573
97 2 14.363 14.363 0 -6.98925
98 1 16.1583 16.1583 0 -8.30276
99 3 16.1583 14.363 1.79537 -6.33671
100 1 14.363 16.1583 1.79537 -8.42536
197 3 14.363 14.363 3.59074 -6.27706
198 2 16.1583 16.1583 3.59074 -6.99048
103 3 1.79537 0 5.38611 -6.32312
104 1 0 1.79537 5.38611 -8.3245
201 3 0 0 7.18149 -6.57031
202 1 1.79537 1.79537 7.18149 -8.41072
107 1 5.38611 0 5.38611 -8.19192
108 3 3.59074 1.79537 5.38611 -6.34734
203 1 3.59074 0 7.18149 -8.38342
204 1 5.38611 1.79537 7.18149 -8.43169
111 1 8.97686 0 5.38611 -8.3016
112 3 7.18149 1.79537 5.38611 -6.2826
205 2 7.18149 0 7.18149 -6.97005
206 2 8.97686 1.79537 7.18149 -6.88587
115 2 12.5676 0 5.38611 -6.94236
116 3 10.7722 1.79537 5.38611 -6.4153
207 1 10.7722 0 7.18149 -8.27779
208 1 12.5676 1.79537 7.18149 -8.20133
119 1 16.1583 0 5.38611 -8.2467
120 1 14.363 1.79537 5.38611 -8.13287
209 1 14.363 0 7.18149 -7.96231
210 1 16.1583 1.79537 7.18149 -8.1365
123 3 1.79537 3.59074 5.38611 -6.3744
124 2 0 5.38611 5.38611 -7.01003
211 2 0 3.59074 7.18149 -6.99081
212 1 1.79537 5.38611 7.18149 -8.48697
127 3 5.38611 3.59074 5.38611 -6.44217
128 2 3.59074 5.38611 5.38611 -6.95609
213 3 3.59074 3.59074 7.18149 -6.39019
214 2 5.38611 5.38611 7.18149 -6.90866
131 1 8.97686 3.59074 5.38611 -8.33479
132 3 7.18149 5.38611 5.38611 -6.38585
215 1 7.18149 3.59074 7.18149 -8.24504
216 1 8.97686 5.38611 7.18149 -8.13479
135 2 12.5676 3.59074 5.38611 -7.04326
136 2 10.7722 5.38611 5.38611 -7.03304
217 2 10.7722 3.59074 7.18149 -6.99512
218 1 12.5676 5.38611 7.18149 -8.38647
139 3 16.1583 3.59074 5.38611 -6.3981
140 2 14.363 5.38611 5.38611 -7.03868
219 3 14.363 3.59074 7.18149 -6.26157
220 1 16.1583 5.38611 7.18149 -8.20085
143 2 1.79537 7.18149 5.38611 -7.06283
144 1 0 8.97686 5.38611 -8.25847
221 2 0 7.18149 7.18149 -7.15598
222 2 1.79537 8.97686 7.18149 -7.03011
147 3 5.38611 7.18149 5.38611 -6.51171
148 1 3.59074 8.97686 5.38611 -8.54497
223 2 3.59074 7.18149 7.18149 -6.99958
224 3 5.38611 8.97686 7.18149 -6.46966
151 1 8.97686 7.18149 5.38611 -8.42191
152 3 7.18149 8.97686 5.38611 -6.58055
225 3 7.18149 7.18149 7.18149 -6.34331
226 3 8.97686 8.97686 7.18149 -6.37234
155 1 12.5676 7.18149 5.38611 -8.07575
156 1 10.7722 8.97686 5.38611 -8.38043
227 3 10.7722 7.18149 7.18149 -6.25184
228 3 12.5676 8.97686 7.18149 -6.34455
159 2 16.1583 7.18149 5.38611 -7.06244
160 1 14.363 8.97686 5.38611 -8.36905
229 1 14.363 7.18149 7.18149 -8.10614
230 2 16.1583 8.97686 7.18149 -6.98786
163 3 1.79537 10.7722 5.38611 -6.58052
164 2 0 12.5676 5.38611 -7.04085
231 2 0 10.7722 7.18149 -7.12882
232 1 1.79537 12.5676 7.18149 -8.60553
167 2 5.38611 10.7722 5.38611 -7.04566
168 2 3.59074 12.5676 5.38611 -7.12815
233 3 3.59074 10.7722 7.18149 -6.61126
234 2 5.38611 12.5676 7.18149 -7.1284
171 2 8.97686 10.7722 5.38611 -7.02275
172 1 7.18149 12.5676 5.38611 -8.25648
235 1 7.18149 10.7722 7.18149 -8.45389
236 2 8.97686 12.5676 7.18149 -7.06879
175 2 12.5676 10.7722 5.38611 -6.9218
176 1 10.7722 12.5676 5.38611 -8.39789
237 3 10.7722 10.7722 7.18149 -6.43495
238 3 12.5676 12.5676 7.18149 -6.38687
179 2 16.1583 10.7722 5.38611 -6.95251
180 1 14.363 12.5676 5.38611 -8.30581
239 3 14.363 10.7722 7.18149 -6.45422
240 3 16.1583 12.5676 7.18149 -6.25025
183 2 1.79537 14.363 5.38611 -7.05915
184 1 0 16.1583 5.38611 -8.23744
241 3 0 14.363 7.18149 -6.49257
242 3 1.79537 16.1583 7.18149 -6.51749
187 2 5.38611 14.363 5.38611 -7.13211
188 2 3.59074 16.1583 5.38611 -7.01704
243 3 3.59074 14.363 7.18149 -6.63863
244 1 5.38611 16.1583 7.18149 -8.30433
191 1 8.97686 14.363 5.38611 -8.24308
192 2 7.18149 16.1583 5.38611 -7.01312
245 2 7.18149 14.363 7.18149 -7.11852
246 2 8.97686 16.1583 7.18149 -6.99853
195 1 12.5676 14.363 5.38611 -8.25592
196 1 10.7722 16.1583 5.38611 -8.34085
247 3 10.7722 14.363 7.18149 -6.38517
248 3 12.5676 16.1583 7.18149 -6.22188
199 1 16.1583 14.363 5.38611 -8.11405
200 1 14.363 16.1583 5.38611 -8.17044
249 1 14.363 14.363 7.18149 -8.03573
250 3 16.1583 16.1583 7.18149 -6.09107
251 3 1.79537 0 8.97686 -6.45046
252 1 0 1.79537 8.97686 -8.5588
301 3 0 0 10.7722 -6.48361
302 3 1.79537 1.79537 10.7722 -6.54325
303 2 1.79537 0 12.5676 -6.98008
304 1 0 1.79537 12.5676 -8.50213
253 2 5.38611 0 8.97686 -6.98303
254 2 3.59074 1.79537 8.97686 -6.91407
305 1 3.59074 0 10.7722 -8.39062
306 1 5.38611 1.79537 10.7722 -8.36265
307 2 5.38611 0 12.5676 -7.04141
308 3 3.59074 1.79537 12.5676 -6.68739
255 3 8.97686 0 8.97686 -6.47334
256 3 7.18149 1.79537 8.97686 -6.42442
309 3 7.18149 0 10.7722 -6.49347
310 3 8.97686 1.79537 10.7722 -6.3603
311 3 8.97686 0 12.5676 -6.36895
312 1 7.18149 1.79537 12.5676 -8.15518
257 1 12.5676 0 8.97686 -8.03291
258 3 10.7722 1.79537 8.97686 -6.30324
313 1 10.7722 0 10.7722 -8.46372
314 2 12.5676 1.79537 10.7722 -6.91905
315 3 12.5676 0 12.5676 -6.27113
316 3 10.7722 1.79537 12.5676 -6.30344
259 1 16.1583 0 8.97686 -8.14314
260 1 14.363 1.79537 8.97686 -8.07759
317 3 14.363 0 10.7722 -6.29267
318 2 16.1583 1.79537 10.7722 -6.96625
319 3 16.1583 0 12.5676 -6.30284
320 1 14.363 1.79537 12.5676 -8.44317
261 3 1.79537 3.59074 8.97686 -6.47688
262 2 0 5.38611 8.97686 -7.10531
321 3 0 3.59074 10.7722 -6.57994
322 2 1.79537 5.38611 10.7722 -7.14411
323 2 1.79537 3.59074 12.5676 -7.10027
324 2 0 5.38611 12.5676 -7.20164
263 3 5.38611 3.59074 8.97686 -6.39708
264 1 3.59074 5.38611 8.97686 -8.4258
325 2 3.59074 3.59074 10.7722 -7.02999
326 3 5.38611 5.38611 10.7722 -6.47184
327 2 5.38611 3.59074 12.5676 -7.07044
328 1 3.59074 5.38611 12.5676 -8.42668
265 1 8.97686 3.59074 8.97686 -8.19908
266 1 7.18149 5.38611 8.97686 -8.11938
329 2 7.18149 3.59074 10.7722 -6.96246
330 1 8.97686 5.38611 10.7722 -7.94774
331 1 8.97686 3.59074 12.5676 -8.18273
332 2 7.18149 5.38611 12.5676 -7.0375
267 2 12.5676 3.59074 8.97686 -6.95881
268 2 10.7722 5.38611 8.97686 -7.00482
333 1 10.7722 3.59074 10.7722 -8.30227
334 3 12.5676 5.38611 10.7722 -6.39436
335 2 12.5676 3.59074 12.5676 -6.932
336 1 10.7722 5.38611 12.5676 -8.20102
269 1 16.1583 3.59074 8.97686 -8.14651
270 3 14.363 5.38611 8.97686 -6.34304
337 3 14.363 3.59074 10.7722 -6.4869
338 2 16.1583 5.38611 10.7722 -7.02274
339 2 16.1583 3.59074 12.5676 -7.01807
340 2 14.363 5.38611 12.5676 -6.92351
271 3 1.79537 7.18149 8.97686 -6.63762
272 2 0 8.97686 8.97686 -7.16235
341 2 0 7.18149 10.7722 -7.24862
342 2 1.79537 8.97686 10.7722 -7.16587
343 2 1.79537 7.18149 12.5676 -7.20711
344 2 0 8.97686 12.5676 -7.10983
273 1 5.38611 7.18149 8.97686 -8.16663
274 1 3.59074 8.97686 8.97686 -8.3926
345 2 3.59074 7.18149 10.7722 -7.04383
346 1 5.38611 8.97686 10.7722 -8.23819
347 3 5.38611 7.18149 12.5676 -6.47517
348 2 3.59074 8.97686 12.5676 -7.00825
275 1 8.97686 7.18149 8.97686 -8.11371
276 2 7.18149 8.97686 8.97686 -6.95448
349 2 7.18149 7.18149 10.7722 -7.01376
350 1 8.97686 8.97686 10.7722 -8.23528
351 2 8.97686 7.18149 12.5676 -7.0046
352 3 7.18149 8.97686 12.5676 -6.37395
277 3 12.5676 7.18149 8.97686 -6.2477
278 1 10.7722 8.97686 8.97686 -8.45034
353 1 10.7722 7.18149 10.7722 -8.12893
354 1 12.5676 8.97686 10.7722 -8.3116
355 3 12.5676 7.18149 12.5676 -6.37339
356 2 10.7722 8.97686 12.5676 -6.89117
279 1 16.1583 7.18149 8.97686 -8.11598
280 3 14.363 8.97686 8.97686 -6.37004
357 1 14.363 7.18149 10.7722 -8.35202
358 3 16.1583 8.97686 10.7722 -6.36066
359 1 16.1583 7.18149 12.5676 -8.34638
360 2 14.363 8.97686 12.5676 -6.90258
281 2 1.79537 10.7722 8.97686 -7.09781
282 2 0 12.5676 8.97686 -7.07005
361 2 0 10.7722 10.7722 -7.10872
362 2 1.79537 12.5676 10.7722 -7.06828
363 1 1.79537 10.7722 12.5676 -8.394
364 2 0 12.5676 12.5676 -7.02188
283 2 5.38611 10.7722 8.97686 -7.01798
284 3 3.59074 12.5676 8.97686 -6.68461
365 3 3.59074 10.7722 10.7722 -6.556
366 3 5.38611 12.5676 10.7722 -6.62986
367 2 5.38611 10.7722 12.5676 -6.99466
368 1 3.59074 12.5676 12.5676 -8.40278
285 3 8.97686 10.7722 8.97686 -6.43879
286 2 7.18149 12.5676 8.97686 -7.0596
369 1 7.18149 10.7722 10.7722 -8.32131
370 1 8.97686 12.5676 10.7722 -8.39569
371 3 8.97686 10.7722 12.5676 -6.35799
372 2 7.18149 12.5676 12.5676 -6.98622
287 3 12.5676 10.7722 8.97686 -6.53694
288 2 10.7722 12.5676 8.97686 -6.93275
373 2 10.7722 10.7722 10.7722 -6.86798
374 3 12.5676 12.5676 10.7722 -6.52779
375 3 12.5676 10.7722 12.5676 -6.48228
376 1 10.7722 12.5676 12.5676 -8.35487
289 1 16.1583 10.7722 8.97686 -8.38703
290 2 14.363 12.5676 8.97686 -6.95121
377 2 14.363 10.7722 10.7722 -7.01017
378 2 16.1583 12.5676 10.7722 -7.14263
379 3 16.1583 10.7722 12.5676 -6.56688
380 2 14.363 12.5676 12.5676 -7.0187
291 3 1.79537 14.363 8.97686 -6.57956
292 1 0 16.1583 8.97686 -8.43513
381 1 0 14.363 10.7722 -8.47243
382 2 1.79537 16.1583 10.7722 -7.07845
383 2 1.79537 14.363 12.5676 -7.09407
384 2 0 16.1583 12.5676 -7.12965
293 2 5.38611 14.363 8.97686 -7.1107
294 2 3.59074 16.1583 8.97686 -7.03028
385 3 3.59074 14.363 10.7722 -6.63457
386 1 5.38611 16.1583 10.7722 -8.3449
387 2 5.38611 14.363 12.5676 -7.03321
388 3 3.59074 16.1583 12.5676 -6.58851
295 3 8.97686 14.363 8.97686 -6.54259
296 1 7.18149 16.1583 8.97686 -8.20813
389 2 7.18149 14.363 10.7722 -7.02175
390 1 8.97686 16.1583 10.7722 -8.33989
391 3 8.97686 14.363 12.5676 -6.33435
392 1 7.18149 16.1583 12.5676 -8.08708
297 1 12.5676 14.363 8.97686 -8.45301
298 2 10.7722 16.1583 8.97686 -6.88878
393 3 10.7722 14.363 10.7722 -6.37886
394 3 12.5676 16.1583 10.7722 -6.28945
395 1 12.5676 14.363 12.5676 -8.32538
396 3 10.7722 16.1583 12.5676 -6.34618
299 1 16.1583 14.363 8.97686 -8.16686
300 1 14.363 16.1583 8.97686 -8.07085
397 2 14.363 14.363 10.7722 -6.96682
398 2 16.1583 16.1583 10.7722 -7.13881
399 1 16.1583 14.363 12.5676 -8.18178
400 1 14.363 16.1583 12.5676 -8.09335
401 3 0 0 14.363 -6.5071
402 2 1.79537 1.79537 14.363 -7.10829
403 1 1.79537 0 16.1583 -8.25453
404 2 0 1.79537 16.1583 -6.98992
405 2 3.59074 0 14.363 -7.07363
406 2 5.38611 1.79537 14.363 -7.09371
407 2 5.38611 0 16.1583 -7.03742
408 1 3.59074 1.79537 16.1583 -8.28519
409 1 7.18149 0 14.363 -8.19904
410 1 8.97686 1.79537 14.363 -8.2321
411 1 8.97686 0 16.1583 -8.33779
412 2 7.18149 1.79537 16.1583 -7.03151
413 3 10.7722 0 14.363 -6.2867
414 1 12.5676 1.79537 14.363 -8.62951
415 3 12.5676 0 16.1583 -6.29986
416 3 10.7722 1.79537 16.1583 -6.32246
417 1 14.363 0 14.363 -8.21203
418 2 16.1583 1.79537 14.363 -6.95041
419 3 16.1583 0 16.1583 -6.46883
420 3 14.363 1.79537 16.1583 -6.45967
421 2 0 3.59074 14.363 -7.097
422 2 1.79537 5.38611 14.363 -7.19312
423 1 1.79537 3.59074 16.1583 -8.35451
424 2 0 5.38611 16.1583 -7.11333
425 2 3.59074 3.59074 14.363 -7.09435
426 3 5.38611 5.38611 14.363 -6.48546
427 1 5.38611 3.59074 16.1583 -8.38771
428 2 3.59074 5.38611 16.1583 -6.99745
429 2 7.18149 3.59074 14.363 -7.03421
430 2 8.97686 5.38611 14.363 -6.95154
431 1 8.97686 3.59074 16.1583 -8.40652
432 3 7.18149 5.38611 16.1583 -6.37893
433 3 10.7722 3.59074 14.363 -6.30473
434 1 12.5676 5.38611 14.363 -8.47717
435 3 12.5676 3.59074 16.1583 -6.3824
436 3 10.7722 5.38611 16.1583 -6.56727
437 3 14.363 3.59074 14.363 -6.45904
438 3 16.1583 5.38611 14.363 -6.38721
439 2 16.1583 3.59074 16.1583 -7.01532
440 1 14.363 5.38611 16.1583 -8.36411
441 3 0 7.18149 14.363 -6.74434
442 2 1.79537 8.97686 14.363 -7.06931
443 2 1.79537 7.18149 16.1583 -7.1015
444 2 0 8.97686 16.1583 -7.04543
445 1 3.59074 7.18149 14.363 -8.34901
446 3 5.38611 8.97686 14.363 -6.46228
447 1 5.38611 7.18149 16.1583 -8.31995
448 3 3.59074 8.97686 16.1583 -6.4595
449 1 7.18149 7.18149 14.363 -8.40788
450 1 8.97686 8.97686 14.363 -8.30635
451 2 8.97686 7.18149 16.1583 -6.95049
452 2 7.18149 8.97686 16.1583 -6.98462
453 3 10.7722 7.18149 14.363 -6.48945
454 3 12.5676 8.97686 14.363 -6.5393
455 2 12.5676 7.18149 16.1583 -6.92747
456 3 10.7722 8.97686 16.1583 -6.45823
457 3 14.363 7.18149 14.363 -6.43988
458 3 16.1583 8.97686 14.363 -6.34859
459 1 16.1583 7.18149 16.1583 -8.52836
460 3 14.363 8.97686 16.1583 -6.40877
461 3 0 10.7722 14.363 -6.53109
462 3 1.79537 12.5676 14.363 -6.60829
463 3 1.79537 10.7722 16.1583 -6.57909
464 3 0 12.5676 16.1583 -6.70138
465 1 3.59074 10.7722 14.363 -8.47229
466 3 5.38611 12.5676 14.363 -6.45067
467 2 5.38611 10.7722 16.1583 -6.93454
468 3 3.59074 12.5676 16.1583 -6.58955
469 2 7.18149 10.7722 14.363 -6.99158
470 2 8.97686 12.5676 14.363 -6.95607
471 1 8.97686 10.7722 16.1583 -8.14595
472 1 7.18149 12.5676 16.1583 -8.15865
473 1 10.7722 10.7722 14.363 -8.39089
474 3 12.5676 12.5676 14.363 -6.39944
475 2 12.5676 10.7722 16.1583 -6.89133
476 3 10.7722 12.5676 16.1583 -6.34852
477 1 14.363 10.7722 14.363 -8.53051
478 2 16.1583 12.5676 14.363 -7.01842
479 1 16.1583 10.7722 16.1583 -8.3398
480 2 14.363 12.5676 16.1583 -6.96993
481 2 0 14.363 14.363 -7.11522
482 2 1.79537 16.1583 14.363 -7.13372
483 2 1.79537 14.363 16.1583 -7.07837
484 1 0 16.1583 16.1583 -8.31949
485 2 3.59074 14.363 14.363 -7.03906
486 1 5.38611 16.1583 14.363 -8.14866
487 1 5.38611 14.363 16.1583 -8.3618
488 2 3.59074 16.1583 16.1583 -7.05127
489 1 7.18149 14.363 14.363 -8.11229
490 1 8.97686 16.1583 14.363 -8.29027
491 1 8.97686 14.363 16.1583 -8.13119
492 2 7.18149 16.1583 16.1583 -7.06652
493 2 10.7722 14.363 14.363 -6.94378
494 1 12.5676 16.1583 14.363 -8.16504
495 1 12.5676 14.363 16.1583 -8.41752
496 2 10.7722 16.1583 16.1583 -6.98473
497 3 14.363 14.363 14.363 -6.27902
498 3 16.1583 16.1583 14.363 -6.15376
499 1 16.1583 14.363 16.1583 -8.44138
500 1 14.363 16.1583 16.1583 -8.1474
501 1 0 0 17.9537 -7.96509
502 3 1.79537 1.79537 17.9537 -6.2189
503 1 1.79537 0 19.7491 -8.32762
504 1 0 1.79537 19.7491 -8.27329
601 3 0 0 21.5445 -6.15685
602 3 1.79537 1.79537 21.5445 -6.28395
505 3 3.59074 0 17.9537 -6.36607
506 3 5.38611 1.79537 17.9537 -6.34433
507 2 5.38611 0 19.7491 -6.9931
508 1 3.59074 1.79537 19.7491 -8.38027
605 2 3.59074 0 21.5445 -7.0177
606 1 5.38611 1.79537 21.5445 -8.014
509 2 7.18149 0 17.9537 -7.07801
510 2 8.97686 1.79537 17.9537 -6.9851
511 1 8.97686 0 19.7491 -8.20634
512 1 7.18149 1.79537 19.7491 -8.12929
609 2 7.18149 0 21.5445 -7.10945
610 1 8.97686 1.79537 21.5445 -8.17328
513 3 10.7722 0 17.9537 -6.37286
514 1 12.5676 1.79537 17.9537 -8.64025
515 3 12.5676 0 19.7491 -6.21148
516 2 10.7722 1.79537 19.7491 -6.9676
613 2 10.7722 0 21.5445 -7.06409
614 1 12.5676 1.79537 21.5445 -8.08034
517 3 14.363 0 17.9537 -6.33975
518 2 16.1583 1.79537 17.9537 -6.98521
519 2 16.1583 0 19.7491 -6.91742
520 1 14.363 1.79537 19.7491 -8.17328
617 1 14.363 0 21.5445 -8.07688
618 3 16.1583 1.79537 21.5445 -6.3997
521 1 0 3.59074 17.9537 -8.08858
522 3 1.79537 5.38611 17.9537 -6.42048
523 2 1.79537 3.59074 19.7491 -6.82782
524 1 0 5.38611 19.7491 -8.34658
621 3 0 3.59074 21.5445 -6.26847
622 3 1.79537 5.38611 21.5445 -6.28422
525 3 3.59074 3.59074 17.9537 -6.26992
526 2 5.38611 5.38611 17.9537 -6.93907
527 1 5.38611 3.59074 19.7491 -8.21381
528 1 3.59074 5.38611 19.7491 -8.35333
625 2 3.59074 3.59074 21.5445 -6.97496
626 3 5.38611 5.38611 21.5445 -6.26829
529 1 7.18149 3.59074 17.9537 -8.25059
530 3 8.97686 5.38611 17.9537 -6.51571
531 3 8.97686 3.59074 19.7491 -6.42621
532 3 7.18149 5.38611 19.7491 -6.33245
629 3 7.18149 3.59074 21.5445 -6.18088
630 3 8.97686 5.38611 21.5445 -6.31852
533 2 10.7722 3.59074 17.9537 -6.99771
534 2 12.5676 5.38611 17.9537 -6.92118
535 2 12.5676 3.59074 19.7491 -6.98644
536 1 10.7722 5.38611 19.7491 -8.61569
633 2 10.7722 3.59074 21.5445 -7.04365
634 3 12.5676 5.38611 21.5445 -6.43699
537 3 14.363 3.59074 17.9537 -6.39305
538 1 16.1583 5.38611 17.9537 -8.36994
539 1 16.1583 3.59074 19.7491 -8.26214
540 3 14.363 5.38611 19.7491 -6.44468
637 1 14.363 3.59074 21.5445 -8.31419
638 3 16.1583 5.38611 21.5445 -6.4885
541 2 0 7.18149 17.9537 -7.0465
542 1 1.79537 8.97686 17.9537 -8.2366
543 1 1.79537 7.18149 19.7491 -8.11383
544 1 0 8.97686 19.7491 -8.04335
641 1 0 7.18149 21.5445 -8.25055
642 3 1.79537 8.97686 21.5445 -6.36163
545 2 3.59074 7.18149 17.9537 -7.05536
546 1 5.38611 8.97686 17.9537 -8.28532
547 1 5.38611 7.18149 19.7491 -8.30632
548 2 3.59074 8.97686 19.7491 -6.97604
645 2 3.59074 7.18149 21.5445 -6.89213
646 3 5.38611 8.97686 21.5445 -6.46146
549 3 7.18149 7.18149 17.9537 -6.40684
550 1 8.97686 8.97686 17.9537 -8.49977
551 3 8.97686 7.18149 19.7491 -6.43834
552 3 7.18149 8.97686 19.7491 -6.29963
649 1 7.18149 7.18149 21.5445 -8.31928
650 1 8.97686 8.97686 21.5445 -8.17375
553 2 10.7722 7.18149 17.9537 -7.03151
554 1 12.5676 8.97686 17.9537 -8.46273
555 3 12.5676 7.18149 19.7491 -6.49351
556 2 10.7722 8.97686 19.7491 -7.03035
653 2 10.7722 7.18149 21.5445 -6.97833
654 1 12.5676 8.97686 21.5445 -8.276
557 3 14.363 7.18149 17.9537 -6.45102
558 2 16.1583 8.97686 17.9537 -6.92341
559 3 16.1583 7.18149 19.7491 -6.50097
560 2 14.363 8.97686 19.7491 -7.03063
657 1 14.363 7.18149 21.5445 -8.57091
658 2 16.1583 8.97686 21.5445 -7.04067
561 2 0 10.7722 17.9537 -7.07105
562 3 1.79537 12.5676 17.9537 -6.63015
563 1 1.79537 10.7722 19.7491 -8.23318
564 1 0 12.5676 19.7491 -8.45067
661 1 0 10.7722 21.5445 -8.33092
662 3 1.79537 12.5676 21.5445 -6.4986
565 2 3.59074 10.7722 17.9537 -7.00788
566 3 5.38611 12.5676 17.9537 -6.47835
567 1 5.38611 10.7722 19.7491 -8.38511
568 2 3.59074 12.5676 19.7491 -6.99736
665 2 3.59074 10.7722 21.5445 -7.02438
666 1 5.38611 12.5676 21.5445 -8.24375
569 3 7.18149 10.7722 17.9537 -6.29868
570 1 8.97686 12.5676 17.9537 -8.19128
571 2 8.97686 10.7722 19.7491 -6.9747
572 1 7.18149 12.5676 19.7491 -8.30137
669 3 7.18149 10.7722 21.5445 -6.41299
670 2 8.97686 12.5676 21.5445 -7.07233
573 2 10.7722 10.7722 17.9537 -7.01028
574 3 12.5676 12.5676 17.9537 -6.5836
575 2 12.5676 10.7722 19.7491 -7.12901
576 2 10.7722 12.5676 19.7491 -7.09928
673 1 10.7722 10.7722 21.5445 -8.16943
674 2 12.5676 12.5676 21.5445 -7.09553
577 1 14.363 10.7722 17.9537 -8.21421
578 2 16.1583 12.5676 17.9537 -6.93192
579 1 16.1583 10.7722 19.7491 -8.17867
580 2 14.363 12.5676 19.7491 -7.10953
677 2 14.363 10.7722 21.5445 -7.10109
678 1 16.1583 12.5676 21.5445 -8.10315
581 3 0 14.363 17.9537 -6.64154
582 2 1.79537 16.1583 17.9537 -7.05906
583 2 1.79537 14.363 19.7491 -6.96378
584 3 0 16.1583 19.7491 -6.51152
681 3 0 14.363 21.5445 -6.52609
682 1 1.79537 16.1583 21.5445 -8.40579
585 3 3.59074 14.363 17.9537 -6.64369
586 2 5.38611 16.1583 17.9537 -6.96276
587 2 5.38611 14.363 19.7491 -6.95863
588 3 3.59074 16.1583 19.7491 -6.50491
685 3 3.59074 14.363 21.5445 -6.41461
686 1 5.38611 16.1583 21.5445 -8.54435
589 2 7.18149 14.363 17.9537 -7.07531
590 1 8.97686 16.1583 17.9537 -8.40598
591 2 8.97686 14.363 19.7491 -7.00189
592 3 7.18149 16.1583 19.7491 -6.45527
689 3 7.18149 14.363 21.5445 -6.4399
690 2 8.97686 16.1583 21.5445 -6.93834
593 3 10.7722 14.363 17.9537 -6.40375
594 1 12.5676 16.1583 17.9537 -8.24279
595 3 12.5676 14.363 19.7491 -6.58255
596 3 10.7722 16.1583 19.7491 -6.41983
693 1 10.7722 14.363 21.5445 -8.29591
694 2 12.5676 16.1583 21.5445 -6.91713
597 3 14.363 14.363 17.9537 -6.41139
598 3 16.1583 16.1583 17.9537 -6.35952
599 1 16.1583 14.363 19.7491 -8.39629
600 2 14.363 16.1583 19.7491 -6.95963
697 2 14.363 14.363 21.5445 -7.07003
698 1 16.1583 16.1583 21.5445 -8.39066
603 2 1.79537 0 23.3398 -6.93642
604 1 0 1.79537 23.3398 -8.22005
701 2 0 0 25.1352 -7.09433
702 1 1.79537 1.79537 25.1352 -8.14333
607 1 5.38611 0 23.3398 -8.05304
608 1 3.59074 1.79537 23.3398 -8.33112
703 3 3.59074 0 25.1352 -6.30083
704 2 5.38611 1.79537 25.1352 -6.8869
611 2 8.97686 0 23.3398 -7.06789
612 1 7.18149 1.79537 23.3398 -8.01078
705 1 7.18149 0 25.1352 -8.30252
706 2 8.97686 1.79537 25.1352 -6.99605
615 1 12.5676 0 23.3398 -7.92003
616 2 10.7722 1.79537 23.3398 -7.07576
707 1 10.7722 0 25.1352 -8.13046
708 1 12.5676 1.79537 25.1352 -8.14554
619 3 16.1583 0 23.3398 -6.41176
620 2 14.363 1.79537 23.3398 -6.98469
709 2 14.363 0 25.1352 -6.9711
710 1 16.1583 1.79537 25.1352 -8.46096
623 2 1.79537 3.59074 23.3398 -6.9814
624 1 0 5.38611 23.3398 -8.27266
711 1 0 3.59074 25.1352 -7.91993
712 1 1.79537 5.38611 25.1352 -8.16682
627 3 5.38611 3.59074 23.3398 -6.20391
628 1 3.59074 5.38611 23.3398 -8.62956
713 3 3.59074 3.59074 25.1352 -6.2523
714 3 5.38611 5.38611 25.1352 -6.35387
631 1 8.97686 3.59074 23.3398 -8.05866
632 1 7.18149 5.38611 23.3398 -8.29938
715 1 7.18149 3.59074 25.1352 -8.40228
716 1 8.97686 5.38611 25.1352 -8.23577
635 1 12.5676 3.59074 23.3398 -8.10939
636 1 10.7722 5.38611 23.3398 -8.12194
717 2 10.7722 3.59074 25.1352 -7.00608
718 1 12.5676 5.38611 25.1352 -8.19768
639 3 16.1583 3.59074 23.3398 -6.41377
640 3 14.363 5.38611 23.3398 -6.3574
719 3 14.363 3.59074 25.1352 -6.165
720 1 16.1583 5.38611 25.1352 -8.42122
643 3 1.79537 7.18149 23.3398 -6.29065
644 2 0 8.97686 23.3398 -6.91004
721 3 0 7.18149 25.1352 -6.45085
722 1 1.79537 8.97686 25.1352 -8.45676
647 3 5.38611 7.18149 23.3398 -6.403
648 1 3.59074 8.97686 23.3398 -8.61189
723 3 3.59074 7.18149 25.1352 -6.38418
724 2 5.38611 8.97686 25.1352 -7.07242
651 1 8.97686 7.18149 23.3398 -8.10847
652 2 7.18149 8.97686 23.3398 -7.03491
725 2 7.18149 7.18149 25.1352 -6.96848
726 3 8.97686 8.97686 25.1352 -6.60465
655 2 12.5676 7.18149 23.3398 -7.03316
656 2 10.7722 8.97686 23.3398 -7.1033
727 2 10.7722 7.18149 25.1352 -7.03657
728 1 12.5676 8.97686 25.1352 -8.30616
659 3 16.1583 7.18149 23.3398 -6.52851
660 2 14.363 8.97686 23.3398 -7.05383
729 2 14.363 7.18149 25.1352 -7.06868
730 2 16.1583 8.97686 25.1352 -6.9949
663 3 1.79537 10.7722 23.3398 -6.50168
664 2 0 12.5676 23.3398 -7.02083
731 1 0 10.7722 25.1352 -8.50688
732 2 1.79537 12.5676 25.1352 -7.03876
667 2 5.38611 10.7722 23.3398 -7.03323
668 2 3.59074 12.5676 23.3398 -7.05599
733 3 3.59074 10.7722 25.1352 -6.53974
734 1 5.38611 12.5676 25.1352 -8.16888
671 1 8.97686 10.7722 23.3398 -8.24932
672 2 7.18149 12.5676 23.3398 -7.05514
735 2 7.18149 10.7722 25.1352 -7.15715
736 2 8.97686 12.5676 25.1352 -7.07579
675 2 12.5676 10.7722 23.3398 -7.05969
676 2 10.7722 12.5676 23.3398 -7.08961
737 1 10.7722 10.7722 25.1352 -8.21655
738 1 12.5676 12.5676 25.1352 -8.20101
679 1 16.1583 10.7722 23.3398 -8.13576
680 1 14.363 12.5676 23.3398 -8.14253
739 3 14.363 10.7722 25.1352 -6.28871
740 3 16.1583 12.5676 25.1352 -6.27459
683 1 1.79537 14.363 23.3398 -8.31039
684 2 0 16.1583 23.3398 -7.02441
741 2 0 14.363 25.1352 -7.03575
742 1 1.79537 16.1583 25.1352 -8.29423
687 1 5.38611 14.363 23.3398 -8.0639
688 2 3.59074 16.1583 23.3398 -6.94222
743 1 3.59074 14.363 25.1352 -7.98093
744 1 5.38611 16.1583 25.1352 -8.18254
691 2 8.97686 14.363 23.3398 -7.07849
692 1 7.18149 16.1583 23.3398 -8.196
745 2 7.18149 14.363 25.1352 -7.13874
746 1 8.97686 16.1583 25.1352 -8.18537
695 1 12.5676 14.363 23.3398 -8.10456
696 1 10.7722 16.1583 23.3398 -8.10262
747 2 10.7722 14.363 25.1352 -7.0733
748 1 12.5676 16.1583 25.1352 -8.29165
699 1 16.1583 14.363 23.3398 -8.23875
700 3 14.363 16.1583 23.3398 -6.33041
749 3 14.363 14.363 25.1352 -6.29074
750 3 16.1583 16.1583 25.1352 -6.33811
751 2 1.79537 0 26.9306 -7.01779
752 1 0 1.79537 26.9306 -8.2263
801 1 0 0 28.7259 -8.23276
802 2 1.79537 1.79537 28.7259 -7.03065
803 1 1.79537 0 30.5213 -8.46732
804 2 0 1.79537 30.5213 -7.06712
753 3 5.38611 0 26.9306 -6.40484
754 1 3.59074 1.79537 26.9306 -8.46804
805 3 3.59074 0 28.7259 -6.45083
806 1 5.38611 1.79537 28.7259 -8.63927
807 3 5.38611 0 30.5213 -6.52683
808 2 3.59074 1.79537 30.5213 -7.00647
755 2 8.97686 0 26.9306 -6.98342
756 3 7.18149 1.79537 26.9306 -6.51634
809 3 7.18149 0 28.7259 -6.57846
810 2 8.97686 1.79537 28.7259 -6.92046
811 3 8.97686 0 30.5213 -6.47319
812 3 7.18149 1.79537 30.5213 -6.51521
757 1 12.5676 0 26.9306 -8.38721
758 3 10.7722 1.79537 26.9306 -6.43059
813 3 10.7722 0 28.7259 -6.38319
814 3 12.5676 1.79537 28.7259 -6.30013
815 1 12.5676 0 30.5213 -8.31189
816 1 10.7722 1.79537 30.5213 -8.243
759 3 16.1583 0 26.9306 -6.44369
760 3 14.363 1.79537 26.9306 -6.30713
817 2 14.363 0 28.7259 -7.01921
818 3 16.1583 1.79537 28.7259 -6.44373
819 3 16.1583 0 30.5213 -6.52642
820 2 14.363 1.79537 30.5213 -6.94291
761 2 1.79537 3.59074 26.9306 -6.99118
762 1 0 5.38611 26.9306 -8.52481
821 3 0 3.59074 28.7259 -6.6448
822 3 1.79537 5.38611 28.7259 -6.51043
823 2 1.79537 3.59074 30.5213 -7.08692
824 2 0 5.38611 30.5213 -6.99572
763 3 5.38611 3.59074 26.9306 -6.40143
764 1 3.59074 5.38611 26.9306 -8.62407
825 3 3.59074 3.59074 28.7259 -6.54834
826 3 5.38611 5.38611 28.7259 -6.49332
827 2 5.38611 3.59074 30.5213 -7.02421
828 3 3.59074 5.38611 30.5213 -6.55662
765 3 8.97686 3.59074 26.9306 -6.50127
766 3 7.18149 5.38611 26.9306 -6.51951
829 2 7.18149 3.59074 28.7259 -6.92826
830 3 8.97686 5.38611 28.7259 -6.45846
831 1 8.97686 3.59074 30.5213 -8.3231
832 1 7.18149 5.38611 30.5213 -8.37187
767 1 12.5676 3.59074 26.9306 -8.34139
768 3 10.7722 5.38611 26.9306 -6.34041
833 3 10.7722 3.59074 28.7259 -6.29615
834 1 12.5676 5.38611 28.7259 -8.12499
835 1 12.5676 3.59074 30.5213 -8.22894
836 3 10.7722 5.38611 30.5213 -6.33567
769 1 16.1583 3.59074 26.9306 -8.29001
770 1 14.363 5.38611 26.9306 -8.00546
837 3 14.363 3.59074 28.7259 -6.23878