ITEM: TIMESTEP
0
ITEM: NUMBER OF ATOMS
4000
ITEM: BOX BOUNDS pp pp pp
0.0000000000000000e+00 3.5430900000000001e+01
0.0000000000000000e+00 3.5430900000000001e+01
0.0000000000000000e+00 3.5430900000000001e+01
ITEM: ATOMS id type x y z c_peratom
1 2 0 0 0 -6.98562
2 3 1.77154 1.77154 0 -6.27456
3 1 1.77154 0 1.77154 -8.58149
4 1 0 1.77154 1.77154 -8.47603
101 2 0 0 3.54309 -6.93755
102 3 1.77154 1.77154 3.54309 -6.19089
5 2 3.54309 0 0 -7.06802
6 2 5.31463 1.77154 0 -7.00352
7 3 5.31463 0 1.77154 -6.65793
8 3 3.54309 1.77154 1.77154 -6.3722
105 1 3.54309 0 3.54309 -8.48778
106 3 5.31463 1.77154 3.54309 -6.3094
9 2 7.08618 0 0 -7.21653
10 2 8.85773 1.77154 0 -7.0524
11 2 8.85773 0 1.77154 -7.10288
12 1 7.08618 1.77154 1.77154 -8.69555
109 3 7.08618 0 3.54309 -6.48009
110 1 8.85773 1.77154 3.54309 -8.66358
13 2 10.6293 0 0 -7.15403
14 3 12.4008 1.77154 0 -6.43559
15 1 12.4008 0 1.77154 -8.7775
16 3 10.6293 1.77154 1.77154 -6.43051
113 3 10.6293 0 3.54309 -6.29575
114 3 12.4008 1.77154 3.54309 -6.28201
17 2 14.1724 0 0 -7.01264
18 3 15.9439 1.77154 0 -6.47056
19 3 15.9439 0 1.77154 -6.55848
20 3 14.1724 1.77154 1.77154 -6.44184
117 2 14.1724 0 3.54309 -6.87626
118 1 15.9439 1.77154 3.54309 -8.8267
21 3 0 3.54309 0 -6.27206
22 2 1.77154 5.31463 0 -6.74971
23 1 1.77154 3.54309 1.77154 -8.67698
24 3 0 5.31463 1.77154 -6.17014
121 3 0 3.54309 3.54309 -6.27305
122 1 1.77154 5.31463 3.54309 -8.66607
25 3 3.54309 3.54309 0 -6.37449
26 1 5.31463 5.31463 0 -8.79366
27 3 5.31463 3.54309 1.77154 -6.3581
28 3 3.54309 5.31463 1.77154 -6.32067
125 1 3.54309 3.54309 3.54309 -8.62437
126 3 5.31463 5.31463 3.54309 -6.36104
29 2 7.08618 3.54309 0 -6.90343
30 1 8.85773 5.31463 0 -8.30748
31 3 8.85773 3.54309 1.77154 -6.2939
32 1 7.08618 5.31463 1.77154 -8.56778
129 2 7.08618 3.54309 3.54309 -6.89694
130 1 8.85773 5.31463 3.54309 -8.56249
33 1 10.6293 3.54309 0 -8.57976
34 2 12.4008 5.31463 0 -6.98878
35 1 12.4008 3.54309 1.77154 -8.67725
36 2 10.6293 5.31463 1.77154 -6.97681
133 2 10.6293 3.54309 3.54309 -6.87969
134 2 12.4008 5.31463 3.54309 -6.92694
37 3 14.1724 3.54309 0 -6.36502
38 3 15.9439 5.31463 0 -6.38441
39 3 15.9439 3.54309 1.77154 -6.367
40 1 14.1724 5.31463 1.77154 -8.77825
137 3 14.1724 3.54309 3.54309 -6.34061
138 2 15.9439 5.31463 3.54309 -6.98161
41 1 0 7.08618 0 -8.3479
42 2 1.77154 8.85773 0 -6.90742
43 3 1.77154 7.08618 1.77154 -6.29259
44 1 0 8.85773 1.77154 -8.4798
141 1 0 7.08618 3.54309 -8.4949
142 3 1.77154 8.85773 3.54309 -6.25357
45 3 3.54309 7.08618 0 -6.38491
46 3 5.31463 8.85773 0 -6.36587
47 2 5.31463 7.08618 1.77154 -6.82773
48 1 3.54309 8.85773 1.77154 -8.77833
145 3 3.54309 7.08618 3.54309 -6.31717
146 2 5.31463 8.85773 3.54309 -6.94413
49 3 7.08618 7.08618 0 -6.21147
50 2 8.85773 8.85773 0 -6.91188
51 2 8.85773 7.08618 1.77154 -6.99208
52 1 7.08618 8.85773 1.77154 -8.65053
149 3 7.08618 7.08618 3.54309 -6.38996
150 2 8.85773 8.85773 3.54309 -6.93414
53 1 10.6293 7.08618 0 -8.4384
54 1 12.4008 8.85773 0 -8.791
55 2 12.4008 7.08618 1.77154 -6.99323
56 3 10.6293 8.85773 1.77154 -6.25693
153 1 10.6293 7.08618 3.54309 -8.56831
154 1 12.4008 8.85773 3.54309 -8.45394
57 3 14.1724 7.08618 0 -6.4343
58 1 15.9439 8.85773 0 -8.53195
59 2 15.9439 7.08618 1.77154 -6.98075
60 2 14.1724 8.85773 1.77154 -6.94731
157 3 14.1724 7.08618 3.54309 -6.44925
158 1 15.9439 8.85773 3.54309 -8.45103
61 2 0 10.6293 0 -6.89153
62 1 1.77154 12.4008 0 -8.42793
63 3 1.77154 10.6293 1.77154 -6.29546
64 3 0 12.4008 1.77154 -6.24444
161 3 0 10.6293 3.54309 -6.23974
162 1 1.77154 12.4008 3.54309 -8.4475
65 1 3.54309 10.6293 0 -8.37769
66 1 5.31463 12.4008 0 -8.49587
67 2 5.31463 10.6293 1.77154 -6.95719
68 2 3.54309 12.4008 1.77154 -6.94453
165 2 3.54309 10.6293 3.54309 -6.9751
166 1 5.31463 12.4008 3.54309 -8.52016
69 3 7.08618 10.6293 0 -6.34279
70 2 8.85773 12.4008 0 -6.91509
71 1 8.85773 10.6293 1.77154 -8.49654
72 3 7.08618 12.4008 1.77154 -6.26764
169 2 7.08618 10.6293 3.54309 -6.97078
170 1 8.85773 12.4008 3.54309 -8.60821
73 3 10.6293 10.6293 0 -6.31969
74 3 12.4008 12.4008 0 -6.23615
75 2 12.4008 10.6293 1.77154 -6.90709
76 1 10.6293 12.4008 1.77154 -8.51253
173 1 10.6293 10.6293 3.54309 -8.25047
174 3 12.4008 12.4008 3.54309 -6.18834
77 3 14.1724 10.6293 0 -6.36989
78 1 15.9439 12.4008 0 -8.53771
79 2 15.9439 10.6293 1.77154 -7.01005
80 2 14.1724 12.4008 1.77154 -6.88394
177 1 14.1724 10.6293 3.54309 -8.25449
178 1 15.9439 12.4008 3.54309 -8.3414
81 1 0 14.1724 0 -8.77019
82 3 1.77154 15.9439 0 -6.26711
83 2 1.77154 14.1724 1.77154 -6.82432
84 3 0 15.9439 1.77154 -6.21424
181 1 0 14.1724 3.54309 -8.75167
182 3 1.77154 15.9439 3.54309 -6.3198
85 1 3.54309 14.1724 0 -8.70918
86 3 5.31463 15.9439 0 -6.2871
87 2 5.31463 14.1724 1.77154 -6.91631
88 3 3.54309 15.9439 1.77154 -6.23066
185 1 3.54309 14.1724 3.54309 -8.46034
186 1 5.31463 15.9439 3.54309 -8.45521
89 1 7.08618 14.1724 0 -8.67466
90 2 8.85773 15.9439 0 -6.95295
91 3 8.85773 14.1724 1.77154 -6.2506
92 2 7.08618 15.9439 1.77154 -6.97389
189 3 7.08618 14.1724 3.54309 -6.28724
190 1 8.85773 15.9439 3.54309 -8.64653
93 1 10.6293 14.1724 0 -8.58085
94 3 12.4008 15.9439 0 -6.30997
95 3 12.4008 14.1724 1.77154 -6.19819
96 1 10.6293 15.9439 1.77154 -8.6417
193 3 10.6293 14.1724 3.54309 -6.26355
194 3 12.4008 15.9439 3.54309 -6.32995
97 1 14.1724 14.1724 0 -8.77499
98 3 15.9439 15.9439 0 -6.30573
99 3 15.9439 14.1724 1.77154 -6.28652
100 3 14.1724 15.9439 1.77154 -6.36388
197 1 14.1724 14.1724 3.54309 -8.63941
198 2 15.9439 15.9439 3.54309 -6.87564
103 1 1.77154 0 5.31463 -8.29393
104 1 0 1.77154 5.31463 -8.64129
201 2 0 0 7.08618 -7.03012
202 1 1.77154 1.77154 7.08618 -8.3705
107 1 5.31463 0 5.31463 -8.5484
108 2 3.54309 1.77154 5.31463 -6.93569
203 3 3.54309 0 7.08618 -6.23014
204 1 5.31463 1.77154 7.08618 -8.2221
111 1 8.85773 0 5.31463 -8.70341
112 3 7.08618 1.77154 5.31463 -6.16252
205 2 7.08618 0 7.08618 -6.94078
206 1 8.85773 1.77154 7.08618 -8.51002
115 1 12.4008 0 5.31463 -8.98315
116 3 10.6293 1.77154 5.31463 -6.20117
207 3 10.6293 0 7.08618 -6.19507
208 3 12.4008 1.77154 7.08618 -6.25603
119 2 15.9439 0 5.31463 -6.89876
120 3 14.1724 1.77154 5.31463 -6.30614
209 3 14.1724 0 7.08618 -6.42911
210 1 15.9439 1.77154 7.08618 -8.69007
123 2 1.77154 3.54309 5.31463 -6.83209
124 3 0 5.31463 5.31463 -6.21859
211 3 0 3.54309 7.08618 -6.31775
212 1 1.77154 5.31463 7.08618 -8.9378
127 1 5.31463 3.54309 5.31463 -8.43689
128 3 3.54309 5.31463 5.31463 -6.21478
213 2 3.54309 3.54309 7.08618 -6.90913
214 1 5.31463 5.31463 7.08618 -8.21804
131 2 8.85773 3.54309 5.31463 -6.84267
132 2 7.08618 5.31463 5.31463 -6.99718
215 1 7.08618 3.54309 7.08618 -8.16016
216 1 8.85773 5.31463 7.08618 -8.44907
135 1 12.4008 3.54309 5.31463 -8.94877
136 3 10.6293 5.31463 5.31463 -6.31915
217 3 10.6293 3.54309 7.08618 -6.3235
218 3 12.4008 5.31463 7.08618 -6.3564
139 2 15.9439 3.54309 5.31463 -6.95083
140 1 14.1724 5.31463 5.31463 -8.72688
219 3 14.1724 3.54309 7.08618 -6.40558
220 2 15.9439 5.31463 7.08618 -7.10646
143 3 1.77154 7.08618 5.31463 -6.3245
144 3 0 8.85773 5.31463 -6.32826
221 3 0 7.08618 7.08618 -6.39477
222 3 1.77154 8.85773 7.08618 -6.40497
147 1 5.31463 7.08618 5.31463 -8.55423
148 1 3.54309 8.85773 5.31463 -8.48028
223 2 3.54309 7.08618 7.08618 -6.93504
224 2 5.31463 8.85773 7.08618 -7.01354
151 2 8.85773 7.08618 5.31463 -6.92416
152 3 7.08618 8.85773 5.31463 -6.37108
225 1 7.08618 7.08618 7.08618 -8.42624
226 2 8.85773 8.85773 7.08618 -6.92956
155 3 12.4008 7.08618 5.31463 -6.40217
156 3 10.6293 8.85773 5.31463 -6.1488
227 1 10.6293 7.08618 7.08618 -8.65694
228 2 12.4008 8.85773 7.08618 -6.95324
159 2 15.9439 7.08618 5.31463 -7.10386
160 2 14.1724 8.85773 5.31463 -7.03309
229 2 14.1724 7.08618 7.08618 -7.078
230 1 15.9439 8.85773 7.08618 -8.57282
163 1 1.77154 10.6293 5.31463 -8.63046
164 3 0 12.4008 5.31463 -6.24321
231 2 0 10.6293 7.08618 -6.76486
232 3 1.77154 12.4008 7.08618 -6.34386
167 1 5.31463 10.6293 5.31463 -8.35937
168 2 3.54309 12.4008 5.31463 -7.00714
233 2 3.54309 10.6293 7.08618 -6.98537
234 1 5.31463 12.4008 7.08618 -8.16366
171 1 8.85773 10.6293 5.31463 -8.45884
172 2 7.08618 12.4008 5.31463 -6.98686
235 2 7.08618 10.6293 7.08618 -6.95822
236 2 8.85773 12.4008 7.08618 -6.9121
175 1 12.4008 10.6293 5.31463 -8.43545
176 3 10.6293 12.4008 5.31463 -6.09623
237 1 10.6293 10.6293 7.08618 -8.45632
238 3 12.4008 12.4008 7.08618 -6.20719
179 2 15.9439 10.6293 5.31463 -7.02603
180 2 14.1724 12.4008 5.31463 -6.98561
239 2 14.1724 10.6293 7.08618 -6.99014
240 1 15.9439 12.4008 7.08618 -8.61512
183 3 1.77154 14.1724 5.31463 -6.27514
184 2 0 15.9439 5.31463 -6.89751
241 1 0 14.1724 7.08618 -8.86109
242 3 1.77154 15.9439 7.08618 -6.34528
187 2 5.31463 14.1724 5.31463 -6.95736
188 2 3.54309 15.9439 5.31463 -6.9561
243 1 3.54309 14.1724 7.08618 -8.57613
244 2 5.31463 15.9439 7.08618 -6.972
191 3 8.85773 14.1724 5.31463 -6.34345
192 3 7.08618 15.9439 5.31463 -6.29055
245 1 7.08618 14.1724 7.08618 -8.75447
246 3 8.85773 15.9439 7.08618 -6.35686
195 1 12.4008 14.1724 5.31463 -8.68303
196 3 10.6293 15.9439 5.31463 -6.24233
247 1 10.6293 14.1724 7.08618 -8.68145
248 2 12.4008 15.9439 7.08618 -6.89243
199 3 15.9439 14.1724 5.31463 -6.35362
200 2 14.1724 15.9439 5.31463 -6.89434
249 3 14.1724 14.1724 7.08618 -6.43375
250 1 15.9439 15.9439 7.08618 -8.80707
251 1 1.77154 0 8.85773 -8.47282
252 1 0 1.77154 8.85773 -8.57362
301 2 0 0 10.6293 -6.94864
302 3 1.77154 1.77154 10.6293 -6.22697
303 1 1.77154 0 12.4008 -8.43725
304 1 0 1.77154 12.4008 -8.71753
253 1 5.31463 0 8.85773 -8.58437
254 2 3.54309 1.77154 8.85773 -6.89946
305 3 3.54309 0 10.6293 -6.21702
306 3 5.31463 1.77154 10.6293 -6.3064
307 3 5.31463 0 12.4008 -6.30251
308 1 3.54309 1.77154 12.4008 -8.61076
255 1 8.85773 0 8.85773 -8.64366
256 2 7.08618 1.77154 8.85773 -6.96834
309 3 7.08618 0 10.6293 -6.40495
310 3 8.85773 1.77154 10.6293 -6.41262
311 3 8.85773 0 12.4008 -6.36435
312 3 7.08618 1.77154 12.4008 -6.3056
257 1 12.4008 0 8.85773 -8.8675
258 3 10.6293 1.77154 8.85773 -6.30506
313 2 10.6293 0 10.6293 -6.94633
314 2 12.4008 1.77154 10.6293 -6.91741
315 2 12.4008 0 12.4008 -6.96904
316 1 10.6293 1.77154 12.4008 -8.84624
259 3 15.9439 0 8.85773 -6.3974
260 3 14.1724 1.77154 8.85773 -6.39137
317 2 14.1724 0 10.6293 -6.96558
318 1 15.9439 1.77154 10.6293 -8.72541
319 2 15.9439 0 12.4008 -6.89824
320 1 14.1724 1.77154 12.4008 -8.6215
261 3 1.77154 3.54309 8.85773 -6.30435
262 2 0 5.31463 8.85773 -6.90497
321 2 0 3.54309 10.6293 -6.88263
322 1 1.77154 5.31463 10.6293 -8.61657
323 3 1.77154 3.54309 12.4008 -6.22976
324 3 0 5.31463 12.4008 -6.22678
263 1 5.31463 3.54309 8.85773 -8.13696
264 2 3.54309 5.31463 8.85773 -6.95136
325 1 3.54309 3.54309 10.6293 -8.36766
326 1 5.31463 5.31463 10.6293 -8.28652
327 2 5.31463 3.54309 12.4008 -6.91532
328 2 3.54309 5.31463 12.4008 -6.94698
265 2 8.85773 3.54309 8.85773 -6.91166
266 2 7.08618 5.31463 8.85773 -7.02687
329 1 7.08618 3.54309 10.6293 -8.64447
330 3 8.85773 5.31463 10.6293 -6.40036
331 3 8.85773 3.54309 12.4008 -6.33453
332 2 7.08618 5.31463 12.4008 -6.91843
267 1 12.4008 3.54309 8.85773 -9.01268
268 2 10.6293 5.31463 8.85773 -6.87915
333 3 10.6293 3.54309 10.6293 -6.41722
334 3 12.4008 5.31463 10.6293 -6.30177
335 3 12.4008 3.54309 12.4008 -6.27014
336 1 10.6293 5.31463 12.4008 -8.99316
269 2 15.9439 3.54309 8.85773 -7.03857
270 2 14.1724 5.31463 8.85773 -7.04546
337 2 14.1724 3.54309 10.6293 -6.96431
338 3 15.9439 5.31463 10.6293 -6.57925
339 3 15.9439 3.54309 12.4008 -6.33477
340 1 14.1724 5.31463 12.4008 -8.79392
271 3 1.77154 7.08618 8.85773 -6.38738
272 3 0 8.85773 8.85773 -6.33625
341 1 0 7.08618 10.6293 -8.51627
342 2 1.77154 8.85773 10.6293 -6.87311
343 2 1.77154 7.08618 12.4008 -6.98638
344 1 0 8.85773 12.4008 -8.35427
273 2 5.31463 7.08618 8.85773 -6.99871
274 1 3.54309 8.85773 8.85773 -8.57249
345 3 3.54309 7.08618 10.6293 -6.41858
346 2 5.31463 8.85773 10.6293 -7.04979
347 2 5.31463 7.08618 12.4008 -7.04482
348 1 3.54309 8.85773 12.4008 -8.61057
275 3 8.85773 7.08618 8.85773 -6.37688
276 2 7.08618 8.85773 8.85773 -6.97921
349 1 7.08618 7.08618 10.6293 -8.65763
350 3 8.85773 8.85773 10.6293 -6.20293
351 3 8.85773 7.08618 12.4008 -6.32536
352 2 7.08618 8.85773 12.4008 -6.90877
277 1 12.4008 7.08618 8.85773 -8.68676
278 3 10.6293 8.85773 8.85773 -6.20366
353 3 10.6293 7.08618 10.6293 -6.36574
354 2 12.4008 8.85773 10.6293 -6.97415
355 1 12.4008 7.08618 12.4008 -8.43215
356 1 10.6293 8.85773 12.4008 -8.56214
279 2 15.9439 7.08618 8.85773 -7.13689
280 2 14.1724 8.85773 8.85773 -7.08155
357 2 14.1724 7.08618 10.6293 -7.01019
358 1 15.9439 8.85773 10.6293 -8.42945
359 2 15.9439 7.08618 12.4008 -6.89994
360 2 14.1724 8.85773 12.4008 -6.99192
281 1 1.77154 10.6293 8.85773 -8.63635
282 3 0 12.4008 8.85773 -6.27942
361 3 0 10.6293 10.6293 -6.36305
362 1 1.77154 12.4008 10.6293 -8.68834
363 3 1.77154 10.6293 12.4008 -6.3479
364 3 0 12.4008 12.4008 -6.38606
283 1 5.31463 10.6293 8.85773 -8.34252
284 2 3.54309 12.4008 8.85773 -6.97749
365 2 3.54309 10.6293 10.6293 -6.97886
366 3 5.31463 12.4008 10.6293 -6.31194
367 1 5.31463 10.6293 12.4008 -8.3636
368 3 3.54309 12.4008 12.4008 -6.38999
285 1 8.85773 10.6293 8.85773 -8.4158
286 2 7.08618 12.4008 8.85773 -6.99097
369 1 7.08618 10.6293 10.6293 -8.39296
370 3 8.85773 12.4008 10.6293 -6.0745
371 1 8.85773 10.6293 12.4008 -8.22292
372 2 7.08618 12.4008 12.4008 -6.99144
287 1 12.4008 10.6293 8.85773 -8.42877
288 2 10.6293 12.4008 8.85773 -6.9248
373 1 10.6293 10.6293 10.6293 -8.2952
374 2 12.4008 12.4008 10.6293 -6.99499
375 1 12.4008 10.6293 12.4008 -8.34257
376 2 10.6293 12.4008 12.4008 -6.94477
289 2 15.9439 10.6293 8.85773 -6.95282
290 2 14.1724 12.4008 8.85773 -7.00054
377 1 14.1724 10.6293 10.6293 -8.28937
378 3 15.9439 12.4008 10.6293 -6.23278
379 1 15.9439 10.6293 12.4008 -8.35732
380 2 14.1724 12.4008 12.4008 -6.92887
291 2 1.77154 14.1724 8.85773 -6.97561
292 2 0 15.9439 8.85773 -6.97853
381 2 0 14.1724 10.6293 -6.96277
382 1 1.77154 15.9439 10.6293 -8.48925
383 2 1.77154 14.1724 12.4008 -6.89515
384 2 0 15.9439 12.4008 -6.97844
293 2 5.31463 14.1724 8.85773 -6.97797
294 1 3.54309 15.9439 8.85773 -8.27375
385 2 3.54309 14.1724 10.6293 -7.02243
386 2 5.31463 15.9439 10.6293 -6.93337
387 1 5.31463 14.1724 12.4008 -8.46748
388 2 3.54309 15.9439 12.4008 -6.91815
295 3 8.85773 14.1724 8.85773 -6.2892
296 3 7.08618 15.9439 8.85773 -6.28599
389 1 7.08618 14.1724 10.6293 -8.49339
390 1 8.85773 15.9439 10.6293 -8.39445
391 1 8.85773 14.1724 12.4008 -8.05933
392 2 7.08618 15.9439 12.4008 -6.98143
297 1 12.4008 14.1724 8.85773 -8.46207
298 2 10.6293 15.9439 8.85773 -6.90259
393 1 10.6293 14.1724 10.6293 -8.33799
394 3 12.4008 15.9439 10.6293 -6.25698
395 1 12.4008 14.1724 12.4008 -8.42142
396 2 10.6293 15.9439 12.4008 -6.99557
299 2 15.9439 14.1724 8.85773 -6.9543
300 2 14.1724 15.9439 8.85773 -6.95523
397 1 14.1724 14.1724 10.6293 -8.39453
398 2 15.9439 15.9439 10.6293 -6.89003
399 1 15.9439 14.1724 12.4008 -8.69846
400 2 14.1724 15.9439 12.4008 -6.93565
401 3 0 0 14.1724 -6.1439
402 3 1.77154 1.77154 14.1724 -6.15739
403 1 1.77154 0 15.9439 -8.61061
404 1 0 1.77154 15.9439 -8.62492
405 3 3.54309 0 14.1724 -6.16466
406 3 5.31463 1.77154 14.1724 -6.24708
407 1 5.31463 0 15.9439 -8.65476
408 3 3.54309 1.77154 15.9439 -6.42376
409 1 7.08618 0 14.1724 -8.55683
410 3 8.85773 1.77154 14.1724 -6.19346
411 1 8.85773 0 15.9439 -8.59127
412 2 7.08618 1.77154 15.9439 -6.83242
413 1 10.6293 0 14.1724 -8.71353
414 3 12.4008 1.77154 14.1724 -6.25745
415 3 12.4008 0 15.9439 -6.30964
416 3 10.6293 1.77154 15.9439 -6.19793
417 1 14.1724 0 14.1724 -8.71972
418 3 15.9439 1.77154 14.1724 -6.20653
419 1 15.9439 0 15.9439 -8.6537
420 3 14.1724 1.77154 15.9439 -6.21823
421 3 0 3.54309 14.1724 -6.21774
422 1 1.77154 5.31463 14.1724 -8.6641
423 3 1.77154 3.54309 15.9439 -6.35303
424 3 0 5.31463 15.9439 -6.29055
425 1 3.54309 3.54309 14.1724 -8.50007
426 1 5.31463 5.31463 14.1724 -8.4419
427 2 5.31463 3.54309 15.9439 -6.91885
428 2 3.54309 5.31463 15.9439 -6.8927
429 1 7.08618 3.54309 14.1724 -8.638
430 2 8.85773 5.31463 14.1724 -6.84732
431 1 8.85773 3.54309 15.9439 -8.96376
432 3 7.08618 5.31463 15.9439 -6.27921
433 3 10.6293 3.54309 14.1724 -6.28263
434 3 12.4008 5.31463 14.1724 -6.2018
435 1 12.4008 3.54309 15.9439 -8.86254
436 3 10.6293 5.31463 15.9439 -6.27229
437 3 14.1724 3.54309 14.1724 -6.24427
438 3 15.9439 5.31463 14.1724 -6.21545
439 1 15.9439 3.54309 15.9439 -8.76206
440 3 14.1724 5.31463 15.9439 -6.25626
441 1 0 7.08618 14.1724 -8.36865
442 2 1.77154 8.85773 14.1724 -6.94456
443 3 1.77154 7.08618 15.9439 -6.32334
444 2 0 8.85773 15.9439 -6.91816
445 2 3.54309 7.08618 14.1724 -6.9732
446 2 5.31463 8.85773 14.1724 -6.97112
447 3 5.31463 7.08618 15.9439 -6.28672
448 1 3.54309 8.85773 15.9439 -8.58053
449 1 7.08618 7.08618 14.1724 -8.61303
450 3 8.85773 8.85773 14.1724 -6.18359
451 1 8.85773 7.08618 15.9439 -8.70923
452 3 7.08618 8.85773 15.9439 -6.35658
453 3 10.6293 7.08618 14.1724 -6.19121
454 3 12.4008 8.85773 14.1724 -6.11533
455 3 12.4008 7.08618 15.9439 -6.31667
456 1 10.6293 8.85773 15.9439 -8.66875
457 1 14.1724 7.08618 14.1724 -8.61064
458 1 15.9439 8.85773 14.1724 -8.54242
459 3 15.9439 7.08618 15.9439 -6.29454
460 3 14.1724 8.85773 15.9439 -6.21657
461 1 0 10.6293 14.1724 -8.458
462 1 1.77154 12.4008 14.1724 -8.57509
463 2 1.77154 10.6293 15.9439 -6.96234
464 1 0 12.4008 15.9439 -8.497
465 2 3.54309 10.6293 14.1724 -6.93532
466 2 5.31463 12.4008 14.1724 -6.90967
467 3 5.31463 10.6293 15.9439 -6.31173
468 1 3.54309 12.4008 15.9439 -8.51268
469 1 7.08618 10.6293 14.1724 -8.56777
470 1 8.85773 12.4008 14.1724 -8.20681
471 3 8.85773 10.6293 15.9439 -6.35736
472 2 7.08618 12.4008 15.9439 -6.90233
473 2 10.6293 10.6293 14.1724 -6.82596
474 3 12.4008 12.4008 14.1724 -6.17735
475 1 12.4008 10.6293 15.9439 -8.51838
476 3 10.6293 12.4008 15.9439 -6.27677
477 1 14.1724 10.6293 14.1724 -8.24038
478 2 15.9439 12.4008 14.1724 -6.90678
479 2 15.9439 10.6293 15.9439 -6.94578
480 1 14.1724 12.4008 15.9439 -8.48151
481 3 0 14.1724 14.1724 -6.37167
482 1 1.77154 15.9439 14.1724 -8.79434
483 2 1.77154 14.1724 15.9439 -6.90167
484 3 0 15.9439 15.9439 -6.41804
485 3 3.54309 14.1724 14.1724 -6.21914
486 1 5.31463 15.9439 14.1724 -8.42518
487 3 5.31463 14.1724 15.9439 -6.17137
488 1 3.54309 15.9439 15.9439 -8.49741
489 1 7.08618 14.1724 14.1724 -8.1878
490 1 8.85773 15.9439 14.1724 -8.40937
491 2 8.85773 14.1724 15.9439 -6.91588
492 2 7.08618 15.9439 15.9439 -6.90818
493 1 10.6293 14.1724 14.1724 -8.43833
494 2 12.4008 15.9439 14.1724 -6.88285
495 3 12.4008 14.1724 15.9439 -6.34761
496 3 10.6293 15.9439 15.9439 -6.24749
497 3 14.1724 14.1724 14.1724 -6.38668
498 3 15.9439 15.9439 14.1724 -6.3837
499 2 15.9439 14.1724 15.9439 -6.91712
500 1 14.1724 15.9439 15.9439 -8.62056
501 2 0 0 17.7155 -6.94844
502 2 1.77154 1.77154 17.7155 -6.99201
503 2 1.77154 0 19.487 -7.05447
504 1 0 1.77154 19.487 -8.6531
601 2 0 0 21.2585 -6.93989
602 2 1.77154 1.77154 21.2585 -7.01215
505 2 3.54309 0 17.7155 -6.9915
506 3 5.31463 1.77154 17.7155 -6.52287
507 2 5.31463 0 19.487 -6.94541
508 3 3.54309 1.77154 19.487 -6.6415
605 1 3.54309 0 21.2585 -8.55923
606 2 5.31463 1.77154 21.2585 -7.01384
509 2 7.08618 0 17.7155 -6.84364
510 3 8.85773 1.77154 17.7155 -6.28988
511 1 8.85773 0 19.487 -8.79913
512 1 7.08618 1.77154 19.487 -8.69047
609 3 7.08618 0 21.2585 -6.37132
610 2 8.85773 1.77154 21.2585 -6.92347
513 3 10.6293 0 17.7155 -6.28631
514 1 12.4008 1.77154 17.7155 -8.85717
515 3 12.4008 0 19.487 -6.26258
516 3 10.6293 1.77154 19.487 -6.32211
613 3 10.6293 0 21.2585 -6.2655
614 1 12.4008 1.77154 21.2585 -8.61403
517 2 14.1724 0 17.7155 -6.83188
518 3 15.9439 1.77154 17.7155 -6.19049
519 1 15.9439 0 19.487 -8.77778
520 2 14.1724 1.77154 19.487 -6.88881
617 2 14.1724 0 21.2585 -6.90709
618 3 15.9439 1.77154 21.2585 -6.28787
521 3 0 3.54309 17.7155 -6.37927
522 1 1.77154 5.31463 17.7155 -8.94263
523 2 1.77154 3.54309 19.487 -7.02441
524 3 0 5.31463 19.487 -6.44589
621 2 0 3.54309 21.2585 -6.91334
622 2 1.77154 5.31463 21.2585 -7.01574
525 3 3.54309 3.54309 17.7155 -6.56488
526 1 5.31463 5.31463 17.7155 -8.71641
527 2 5.31463 3.54309 19.487 -7.0352
528 2 3.54309 5.31463 19.487 -7.02225
625 1 3.54309 3.54309 21.2585 -8.60233
626 1 5.31463 5.31463 21.2585 -8.23229
529 3 7.08618 3.54309 17.7155 -6.37286
530 3 8.85773 5.31463 17.7155 -6.28177
531 2 8.85773 3.54309 19.487 -6.90146
532 1 7.08618 5.31463 19.487 -8.3106
629 2 7.08618 3.54309 21.2585 -7.00224
630 1 8.85773 5.31463 21.2585 -8.36575
533 3 10.6293 3.54309 17.7155 -6.30718
534 1 12.4008 5.31463 17.7155 -8.65634
535 2 12.4008 3.54309 19.487 -6.8275
536 3 10.6293 5.31463 19.487 -6.28114
633 1 10.6293 3.54309 21.2585 -8.29255
634 1 12.4008 5.31463 21.2585 -8.67801
537 3 14.1724 3.54309 17.7155 -6.23296
538 2 15.9439 5.31463 17.7155 -6.91312
539 1 15.9439 3.54309 19.487 -8.66114
540 2 14.1724 5.31463 19.487 -6.89785
637 3 14.1724 3.54309 21.2585 -6.26478
638 3 15.9439 5.31463 21.2585 -6.23281
541 2 0 7.08618 17.7155 -6.90646
542 1 1.77154 8.85773 17.7155 -8.83072
543 2 1.77154 7.08618 19.487 -6.99183
544 3 0 8.85773 19.487 -6.38393
641 3 0 7.08618 21.2585 -6.44555
642 2 1.77154 8.85773 21.2585 -6.95206
545 2 3.54309 7.08618 17.7155 -6.9251
546 1 5.31463 8.85773 17.7155 -8.81293
547 2 5.31463 7.08618 19.487 -6.95449
548 3 3.54309 8.85773 19.487 -6.3903
645 1 3.54309 7.08618 21.2585 -8.59765
646 3 5.31463 8.85773 21.2585 -6.28361
549 3 7.08618 7.08618 17.7155 -6.27543
550 3 8.85773 8.85773 17.7155 -6.39545
551 1 8.85773 7.08618 19.487 -8.59735
552 3 7.08618 8.85773 19.487 -6.35555
649 1 7.08618 7.08618 21.2585 -8.43129
650 2 8.85773 8.85773 21.2585 -6.93257
553 2 10.6293 7.08618 17.7155 -6.85502
554 3 12.4008 8.85773 17.7155 -6.39882
555 2 12.4008 7.08618 19.487 -6.89836
556 1 10.6293 8.85773 19.487 -8.52431
653 3 10.6293 7.08618 21.2585 -6.2799
654 1 12.4008 8.85773 21.2585 -8.60982
557 1 14.1724 7.08618 17.7155 -8.56946
558 1 15.9439 8.85773 17.7155 -8.57687
559 1 15.9439 7.08618 19.487 -8.33376
560 2 14.1724 8.85773 19.487 -6.99672
657 3 14.1724 7.08618 21.2585 -6.25634
658 1 15.9439 8.85773 21.2585 -8.65633
561 3 0 10.6293 17.7155 -6.26573
562 1 1.77154 12.4008 17.7155 -8.42162
563 3 1.77154 10.6293 19.487 -6.29074
564 1 0 12.4008 19.487 -8.46896
661 1 0 10.6293 21.2585 -8.47856
662 2 1.77154 12.4008 21.2585 -6.95703
565 3 3.54309 10.6293 17.7155 -6.24139
566 1 5.31463 12.4008 17.7155 -8.58424
567 2 5.31463 10.6293 19.487 -6.89692
568 2 3.54309 12.4008 19.487 -6.90022
665 1 3.54309 10.6293 21.2585 -8.59108
666 3 5.31463 12.4008 21.2585 -6.28002
569 2 7.08618 10.6293 17.7155 -6.86577
570 1 8.85773 12.4008 17.7155 -8.44317
571 2 8.85773 10.6293 19.487 -6.9258
572 3 7.08618 12.4008 19.487 -6.2724
669 1 7.08618 10.6293 21.2585 -8.91382
670 3 8.85773 12.4008 21.2585 -6.2627
573 2 10.6293 10.6293 17.7155 -6.94152
574 2 12.4008 12.4008 17.7155 -6.90754
575 2 12.4008 10.6293 19.487 -7.04192
576 1 10.6293 12.4008 19.487 -8.3499
673 2 10.6293 10.6293 21.2585 -6.95083
674 1 12.4008 12.4008 21.2585 -8.48628
577 2 14.1724 10.6293 17.7155 -7.01283
578 1 15.9439 12.4008 17.7155 -8.39549
579 2 15.9439 10.6293 19.487 -6.99665
580 1 14.1724 12.4008 19.487 -8.57167
677 2 14.1724 10.6293 21.2585 -6.93854
678 3 15.9439 12.4008 21.2585 -6.41779
581 2 0 14.1724 17.7155 -6.99647
582 1 1.77154 15.9439 17.7155 -8.54048
583 1 1.77154 14.1724 19.487 -8.549
584 3 0 15.9439 19.487 -6.1764
681 2 0 14.1724 21.2585 -6.90416
682 3 1.77154 15.9439 21.2585 -6.28583
585 2 3.54309 14.1724 17.7155 -6.93571
586 1 5.31463 15.9439 17.7155 -8.35596
587 2 5.31463 14.1724 19.487 -6.91352
588 3 3.54309 15.9439 19.487 -6.25628
685 3 3.54309 14.1724 21.2585 -6.36273
686 3 5.31463 15.9439 21.2585 -6.45577
589 1 7.08618 14.1724 17.7155 -8.34344
590 2 8.85773 15.9439 17.7155 -6.95568
591 1 8.85773 14.1724 19.487 -8.35504
592 2 7.08618 15.9439 19.487 -7.00019
689 1 7.08618 14.1724 21.2585 -8.86274
690 2 8.85773 15.9439 21.2585 -6.92992
593 1 10.6293 14.1724 17.7155 -8.56597
594 3 12.4008 15.9439 17.7155 -6.38749
595 2 12.4008 14.1724 19.487 -6.94382
596 2 10.6293 15.9439 19.487 -6.91531
693 3 10.6293 14.1724 21.2585 -6.28927
694 3 12.4008 15.9439 21.2585 -6.39139
597 3 14.1724 14.1724 17.7155 -6.36779
598 1 15.9439 15.9439 17.7155 -8.6552
599 2 15.9439 14.1724 19.487 -6.97754
600 2 14.1724 15.9439 19.487 -6.96972
697 3 14.1724 14.1724 21.2585 -6.45048
698 2 15.9439 15.9439 21.2585 -6.97713
603 2 1.77154 0 23.0301 -7.00033
604 1 0 1.77154 23.0301 -8.69104
701 2 0 0 24.8016 -6.9007
702 3 1.77154 1.77154 24.8016 -6.39333
607 3 5.31463 0 23.0301 -6.50258
608 2 3.54309 1.77154 23.0301 -6.91904
703 1 3.54309 0 24.8016 -8.75762
704 3 5.31463 1.77154 24.8016 -6.35381
611 1 8.85773 0 23.0301 -8.53785
612 1 7.08618 1.77154 23.0301 -8.6798
705 3 7.08618 0 24.8016 -6.44291
706 2 8.85773 1.77154 24.8016 -7.02144
615 3 12.4008 0 23.0301 -6.27909
616 1 10.6293 1.77154 23.0301 -8.2567
707 1 10.6293 0 24.8016 -8.33334
708 2 12.4008 1.77154 24.8016 -7.02339
619 3 15.9439 0 23.0301 -6.33817
620 1 14.1724 1.77154 23.0301 -8.86266
709 2 14.1724 0 24.8016 -7.02988
710 2 15.9439 1.77154 24.8016 -6.96085
623 3 1.77154 3.54309 23.0301 -6.38486
624 1 0 5.31463 23.0301 -8.81163
711 3 0 3.54309 24.8016 -6.33372
712 2 1.77154 5.31463 24.8016 -6.95346
627 2 5.31463 3.54309 23.0301 -7.03152
628 2 3.54309 5.31463 23.0301 -7.02608
713 1 3.54309 3.54309 24.8016 -8.63118
714 1 5.31463 5.31463 24.8016 -8.32403
631 2 8.85773 3.54309 23.0301 -7.05961
632 2 7.08618 5.31463 23.0301 -7.01934
715 2 7.08618 3.54309 24.8016 -6.97739
716 1 8.85773 5.31463 24.8016 -8.39969
635 3 12.4008 3.54309 23.0301 -6.19759
636 2 10.6293 5.31463 23.0301 -6.91247
717 1 10.6293 3.54309 24.8016 -8.31315
718 2 12.4008 5.31463 24.8016 -6.89629
639 3 15.9439 3.54309 23.0301 -6.2808
640 1 14.1724 5.31463 23.0301 -8.79327
719 3 14.1724 3.54309 24.8016 -6.37432
720 3 15.9439 5.31463 24.8016 -6.2121
643 2 1.77154 7.08618 23.0301 -7.02194
644 1 0 8.85773 23.0301 -8.49054
721 3 0 7.08618 24.8016 -6.30884
722 1 1.77154 8.85773 24.8016 -8.44098
647 2 5.31463 7.08618 23.0301 -6.99701
648 2 3.54309 8.85773 23.0301 -6.95761
723 1 3.54309 7.08618 24.8016 -8.47627
724 2 5.31463 8.85773 24.8016 -6.91067
651 2 8.85773 7.08618 23.0301 -6.98395
652 3 7.08618 8.85773 23.0301 -6.24335
725 1 7.08618 7.08618 24.8016 -8.50301
726 2 8.85773 8.85773 24.8016 -6.91447
655 3 12.4008 7.08618 23.0301 -6.20899
656 1 10.6293 8.85773 23.0301 -8.52825
727 1 10.6293 7.08618 24.8016 -8.35384
728 2 12.4008 8.85773 24.8016 -6.86416
659 3 15.9439 7.08618 23.0301 -6.23885
660 3 14.1724 8.85773 23.0301 -6.23753
729 1 14.1724 7.08618 24.8016 -8.53804
730 1 15.9439 8.85773 24.8016 -8.72684
663 2 1.77154 10.6293 23.0301 -6.94544
664 1 0 12.4008 23.0301 -8.46562
731 1 0 10.6293 24.8016 -8.47976
732 3 1.77154 12.4008 24.8016 -6.18668
667 1 5.31463 10.6293 23.0301 -8.50393
668 1 3.54309 12.4008 23.0301 -8.61228
733 3 3.54309 10.6293 24.8016 -6.29814
734 3 5.31463 12.4008 24.8016 -6.19193
671 3 8.85773 10.6293 23.0301 -6.32461
672 3 7.08618 12.4008 23.0301 -6.16718
735 1 7.08618 10.6293 24.8016 -8.58208
736 3 8.85773 12.4008 24.8016 -6.18452
675 2 12.4008 10.6293 23.0301 -6.93613
676 1 10.6293 12.4008 23.0301 -8.68076
737 3 10.6293 10.6293 24.8016 -6.38296
738 2 12.4008 12.4008 24.8016 -6.83027
679 3 15.9439 10.6293 23.0301 -6.25547
680 3 14.1724 12.4008 23.0301 -6.42443
739 1 14.1724 10.6293 24.8016 -8.50077
740 2 15.9439 12.4008 24.8016 -6.89686
683 1 1.77154 14.1724 23.0301 -8.57016
684 3 0 15.9439 23.0301 -6.36614
741 2 0 14.1724 24.8016 -6.80755
742 3 1.77154 15.9439 24.8016 -6.39802
687 3 5.31463 14.1724 23.0301 -6.3569
688 1 3.54309 15.9439 23.0301 -8.74488
743 2 3.54309 14.1724 24.8016 -6.8603
744 2 5.31463 15.9439 24.8016 -6.98038
691 3 8.85773 14.1724 23.0301 -6.24006
692 3 7.08618 15.9439 23.0301 -6.5316
745 1 7.08618 14.1724 24.8016 -9.1241
746 3 8.85773 15.9439 24.8016 -6.38765
695 3 12.4008 14.1724 23.0301 -6.37311
696 1 10.6293 15.9439 23.0301 -8.94175
747 1 10.6293 14.1724 24.8016 -8.80126
748 3 12.4008 15.9439 24.8016 -6.3452
699 1 15.9439 14.1724 23.0301 -8.74677
700 3 14.1724 15.9439 23.0301 -6.41659
749 3 14.1724 14.1724 24.8016 -6.3431
750 3 15.9439 15.9439 24.8016 -6.10731
751 2 1.77154 0 26.5732 -6.93286
752 1 0 1.77154 26.5732 -8.55136
801 1 0 0 28.3447 -8.27995
802 2 1.77154 1.77154 28.3447 -6.96226
803 1 1.77154 0 30.1163 -8.34147
804 2 0 1.77154 30.1163 -7.00325
753 2 5.31463 0 26.5732 -6.87883
754 3 3.54309 1.77154 26.5732 -6.34042
805 1 3.54309 0 28.3447 -8.522
806 3 5.31463 1.77154 28.3447 -6.3184
807 2 5.31463 0 30.1163 -6.92822
808 3 3.54309 1.77154 30.1163 -6.27076
755 1 8.85773 0 26.5732 -8.48776
756 1 7.08618 1.77154 26.5732 -8.64719
809 3 7.08618 0 28.3447 -6.32502
810 3 8.85773 1.77154 28.3447 -6.30518
811 3 8.85773 0 30.1163 -6.36468
812 1 7.08618 1.77154 30.1163 -8.97091
757 2 12.4008 0 26.5732 -7.08012
758 2 10.6293 1.77154 26.5732 -6.96644
813 1 10.6293 0 28.3447 -8.6217
814 2 12.4008 1.77154 28.3447 -7.019
815 3 12.4008 0 30.1163 -6.26421
816 3 10.6293 1.77154 30.1163 -6.26959
759 1 15.9439 0 26.5732 -8.66208
760 2 14.1724 1.77154 26.5732 -7.04056
817 2 14.1724 0 28.3447 -7.07147
818 2 15.9439 1.77154 28.3447 -6.98961
819 2 15.9439 0 30.1163 -6.95962
820 1 14.1724 1.77154 30.1163 -8.45494
761 2 1.77154 3.54309 26.5732 -6.95002
762 1 0 5.31463 26.5732 -8.6923
821 2 0 3.54309 28.3447 -6.974
822 2 1.77154 5.31463 28.3447 -6.90271
823 1 1.77154 3.54309 30.1163 -8.71255
824 3 0 5.31463 30.1163 -6.43976
763 1 5.31463 3.54309 26.5732 -8.54277
764 3 3.54309 5.31463 26.5732 -6.30793
825 3 3.54309 3.54309 28.3447 -6.39858
826 1 5.31463 5.31463 28.3447 -8.79256
827 3 5.31463 3.54309 30.1163 -6.28183
828 3 3.54309 5.31463 30.1163 -6.27816
765 2 8.85773 3.54309 26.5732 -6.9351
766 3 7.08618 5.31463 26.5732 -6.21842
829 3 7.08618 3.54309 28.3447 -6.28192
830 1 8.85773 5.31463 28.3447 -8.6141
831 3 8.85773 3.54309 30.1163 -6.26065
832 3 7.08618 5.31463 30.1163 -6.22578
767 1 12.4008 3.54309 26.5732 -8.56248
768 2 10.6293 5.31463 26.5732 -7.01209
833 1 10.6293 3.54309 28.3447 -8.58219
834 3 12.4008 5.31463 28.3447 -6.3374
835 2 12.4008 3.54309 30.1163 -7.01153