ITEM: TIMESTEP
0
ITEM: NUMBER OF ATOMS
4000
ITEM: BOX BOUNDS pp pp pp
0.0000000000000000e+00 3.5848190000000002e+01
0.0000000000000000e+00 3.5848190000000002e+01
0.0000000000000000e+00 3.5848190000000002e+01
ITEM: ATOMS id type x y z c_peratom
1 1 0 0 0 -8.42199
2 3 1.79241 1.79241 0 -6.45517
3 3 1.79241 0 1.79241 -6.3795
4 3 0 1.79241 1.79241 -6.42971
101 2 0 0 3.58482 -6.9734
102 1 1.79241 1.79241 3.58482 -8.3219
5 1 3.58482 0 0 -8.41772
6 3 5.37723 1.79241 0 -6.4317
7 1 5.37723 0 1.79241 -8.15143
8 3 3.58482 1.79241 1.79241 -6.41517
105 2 3.58482 0 3.58482 -7.02907
106 2 5.37723 1.79241 3.58482 -6.99971
9 2 7.16964 0 0 -7.0555
10 2 8.96205 1.79241 0 -7.08302
11 2 8.96205 0 1.79241 -6.9632
12 1 7.16964 1.79241 1.79241 -8.43085
109 3 7.16964 0 3.58482 -6.28374
110 2 8.96205 1.79241 3.58482 -7.06072
13 3 10.7545 0 0 -6.58207
14 3 12.5469 1.79241 0 -6.38681
15 2 12.5469 0 1.79241 -6.85316
16 3 10.7545 1.79241 1.79241 -6.64498
113 3 10.7545 0 3.58482 -6.41688
114 3 12.5469 1.79241 3.58482 -6.42357
17 2 14.3393 0 0 -7.01662
18 1 16.1317 1.79241 0 -8.18008
19 2 16.1317 0 1.79241 -6.91882
20 1 14.3393 1.79241 1.79241 -8.45337
117 3 14.3393 0 3.58482 -6.3702
118 3 16.1317 1.79241 3.58482 -6.37532
21 2 0 3.58482 0 -6.96076
22 3 1.79241 5.37723 0 -6.38824
23 2 1.79241 3.58482 1.79241 -6.94528
24 1 0 5.37723 1.79241 -8.15211
121 1 0 3.58482 3.58482 -8.19742
122 3 1.79241 5.37723 3.58482 -6.3775
25 3 3.58482 3.58482 0 -6.49621
26 2 5.37723 5.37723 0 -6.96027
27 3 5.37723 3.58482 1.79241 -6.47303
28 1 3.58482 5.37723 1.79241 -8.45043
125 1 3.58482 3.58482 3.58482 -8.43633
126 2 5.37723 5.37723 3.58482 -6.95761
29 2 7.16964 3.58482 0 -7.01749
30 3 8.96205 5.37723 0 -6.46026
31 2 8.96205 3.58482 1.79241 -7.04661
32 1 7.16964 5.37723 1.79241 -8.49938
129 2 7.16964 3.58482 3.58482 -7.05451
130 1 8.96205 5.37723 3.58482 -8.36788
33 3 10.7545 3.58482 0 -6.40532
34 2 12.5469 5.37723 0 -6.92783
35 1 12.5469 3.58482 1.79241 -8.40247
36 2 10.7545 5.37723 1.79241 -7.05272
133 2 10.7545 3.58482 3.58482 -7.08763
134 1 12.5469 5.37723 3.58482 -8.04223
37 3 14.3393 3.58482 0 -6.24985
38 1 16.1317 5.37723 0 -8.17935
39 2 16.1317 3.58482 1.79241 -6.95522
40 1 14.3393 5.37723 1.79241 -8.05976
137 2 14.3393 3.58482 3.58482 -6.99577
138 2 16.1317 5.37723 3.58482 -7.00713
41 1 0 7.16964 0 -8.34212
42 1 1.79241 8.96205 0 -8.10142
43 3 1.79241 7.16964 1.79241 -6.30281
44 2 0 8.96205 1.79241 -6.99285
141 1 0 7.16964 3.58482 -8.36774
142 2 1.79241 8.96205 3.58482 -7.01095
45 1 3.58482 7.16964 0 -8.33887
46 3 5.37723 8.96205 0 -6.41061
47 2 5.37723 7.16964 1.79241 -6.95955
48 3 3.58482 8.96205 1.79241 -6.38834
145 3 3.58482 7.16964 3.58482 -6.57606
146 1 5.37723 8.96205 3.58482 -8.49982
49 3 7.16964 7.16964 0 -6.4926
50 3 8.96205 8.96205 0 -6.50813
51 2 8.96205 7.16964 1.79241 -7.0453
52 2 7.16964 8.96205 1.79241 -6.95265
149 3 7.16964 7.16964 3.58482 -6.44841
150 1 8.96205 8.96205 3.58482 -8.40441
53 2 10.7545 7.16964 0 -6.98283
54 3 12.5469 8.96205 0 -6.44801
55 1 12.5469 7.16964 1.79241 -8.16088
56 2 10.7545 8.96205 1.79241 -7.04439
153 2 10.7545 7.16964 3.58482 -7.03254
154 1 12.5469 8.96205 3.58482 -8.05849
57 1 14.3393 7.16964 0 -8.40802
58 2 16.1317 8.96205 0 -7.05219
59 2 16.1317 7.16964 1.79241 -7.07301
60 2 14.3393 8.96205 1.79241 -6.99168
157 1 14.3393 7.16964 3.58482 -8.202
158 3 16.1317 8.96205 3.58482 -6.36903
61 2 0 10.7545 0 -7.01322
62 1 1.79241 12.5469 0 -8.15465
63 1 1.79241 10.7545 1.79241 -8.3258
64 3 0 12.5469 1.79241 -6.36489
161 2 0 10.7545 3.58482 -6.91316
162 3 1.79241 12.5469 3.58482 -6.52202
65 1 3.58482 10.7545 0 -8.46182
66 3 5.37723 12.5469 0 -6.40545
67 3 5.37723 10.7545 1.79241 -6.38362
68 2 3.58482 12.5469 1.79241 -6.95588
165 2 3.58482 10.7545 3.58482 -6.98609
166 2 5.37723 12.5469 3.58482 -6.93521
69 1 7.16964 10.7545 0 -8.6302
70 3 8.96205 12.5469 0 -6.32477
71 3 8.96205 10.7545 1.79241 -6.37182
72 1 7.16964 12.5469 1.79241 -8.45051
169 1 7.16964 10.7545 3.58482 -8.14277
170 3 8.96205 12.5469 3.58482 -6.28158
73 3 10.7545 10.7545 0 -6.40631
74 2 12.5469 12.5469 0 -6.90255
75 2 12.5469 10.7545 1.79241 -7.03389
76 1 10.7545 12.5469 1.79241 -8.55502
173 2 10.7545 10.7545 3.58482 -6.99461
174 1 12.5469 12.5469 3.58482 -8.07942
77 1 14.3393 10.7545 0 -8.58372
78 2 16.1317 12.5469 0 -7.05926
79 2 16.1317 10.7545 1.79241 -7.01866
80 2 14.3393 12.5469 1.79241 -6.97549
177 1 14.3393 10.7545 3.58482 -8.124
178 3 16.1317 12.5469 3.58482 -6.34703
81 2 0 14.3393 0 -7.059
82 2 1.79241 16.1317 0 -7.11096
83 3 1.79241 14.3393 1.79241 -6.49457
84 2 0 16.1317 1.79241 -7.04104
181 1 0 14.3393 3.58482 -8.70904
182 2 1.79241 16.1317 3.58482 -6.88655
85 2 3.58482 14.3393 0 -7.00601
86 2 5.37723 16.1317 0 -7.01907
87 3 5.37723 14.3393 1.79241 -6.45092
88 1 3.58482 16.1317 1.79241 -8.47648
185 1 3.58482 14.3393 3.58482 -8.5576
186 1 5.37723 16.1317 3.58482 -8.47374
89 3 7.16964 14.3393 0 -6.45866
90 2 8.96205 16.1317 0 -6.9876
91 2 8.96205 14.3393 1.79241 -6.98847
92 3 7.16964 16.1317 1.79241 -6.609
189 1 7.16964 14.3393 3.58482 -8.45274
190 2 8.96205 16.1317 3.58482 -7.00758
93 3 10.7545 14.3393 0 -6.44149
94 1 12.5469 16.1317 0 -8.57482
95 3 12.5469 14.3393 1.79241 -6.40565
96 2 10.7545 16.1317 1.79241 -7.03984
193 1 10.7545 14.3393 3.58482 -8.19634
194 1 12.5469 16.1317 3.58482 -8.29279
97 3 14.3393 14.3393 0 -6.5187
98 3 16.1317 16.1317 0 -6.51996
99 1 16.1317 14.3393 1.79241 -8.47878
100 2 14.3393 16.1317 1.79241 -7.02981
197 3 14.3393 14.3393 3.58482 -6.46543
198 3 16.1317 16.1317 3.58482 -6.47631
103 2 1.79241 0 5.37723 -7.10843
104 1 0 1.79241 5.37723 -8.01347
201 1 0 0 7.16964 -8.24241
202 2 1.79241 1.79241 7.16964 -6.99474
107 1 5.37723 0 5.37723 -8.14033
108 2 3.58482 1.79241 5.37723 -7.03711
203 2 3.58482 0 7.16964 -7.14438
204 1 5.37723 1.79241 7.16964 -8.16536
111 1 8.96205 0 5.37723 -8.36472
112 1 7.16964 1.79241 5.37723 -8.18917
205 1 7.16964 0 7.16964 -8.10024
206 3 8.96205 1.79241 7.16964 -6.31508
115 1 12.5469 0 5.37723 -8.42903
116 2 10.7545 1.79241 5.37723 -6.91784
207 3 10.7545 0 7.16964 -6.36155
208 2 12.5469 1.79241 7.16964 -6.96487
119 1 16.1317 0 5.37723 -8.49441
120 2 14.3393 1.79241 5.37723 -6.91869
209 1 14.3393 0 7.16964 -8.36754
210 3 16.1317 1.79241 7.16964 -6.39351
123 3 1.79241 3.58482 5.37723 -6.35799
124 3 0 5.37723 5.37723 -6.34704
211 2 0 3.58482 7.16964 -6.94931
212 1 1.79241 5.37723 7.16964 -8.6506
127 2 5.37723 3.58482 5.37723 -6.9754
128 3 3.58482 5.37723 5.37723 -6.52071
213 3 3.58482 3.58482 7.16964 -6.41488
214 1 5.37723 5.37723 7.16964 -8.67815
131 1 8.96205 3.58482 5.37723 -8.27665
132 3 7.16964 5.37723 5.37723 -6.41873
215 3 7.16964 3.58482 7.16964 -6.30642
216 1 8.96205 5.37723 7.16964 -8.66733
135 1 12.5469 3.58482 5.37723 -8.2742
136 2 10.7545 5.37723 5.37723 -7.0111
217 2 10.7545 3.58482 7.16964 -6.96452
218 1 12.5469 5.37723 7.16964 -8.39343
139 1 16.1317 3.58482 5.37723 -8.55361
140 3 14.3393 5.37723 5.37723 -6.31202
219 1 14.3393 3.58482 7.16964 -8.4573
220 3 16.1317 5.37723 7.16964 -6.37265
143 2 1.79241 7.16964 5.37723 -7.03413
144 3 0 8.96205 5.37723 -6.47154
221 2 0 7.16964 7.16964 -7.0137
222 1 1.79241 8.96205 7.16964 -8.45628
147 3 5.37723 7.16964 5.37723 -6.51446
148 2 3.58482 8.96205 5.37723 -7.10314
223 2 3.58482 7.16964 7.16964 -7.01642
224 2 5.37723 8.96205 7.16964 -6.98947
151 3 8.96205 7.16964 5.37723 -6.3345
152 2 7.16964 8.96205 5.37723 -7.03165
225 3 7.16964 7.16964 7.16964 -6.31467
226 1 8.96205 8.96205 7.16964 -8.32103
155 1 12.5469 7.16964 5.37723 -8.13207
156 3 10.7545 8.96205 5.37723 -6.26722
227 3 10.7545 7.16964 7.16964 -6.28383
228 2 12.5469 8.96205 7.16964 -6.99676
159 3 16.1317 7.16964 5.37723 -6.43379
160 1 14.3393 8.96205 5.37723 -8.13283
229 2 14.3393 7.16964 7.16964 -6.93034
230 3 16.1317 8.96205 7.16964 -6.32287
163 2 1.79241 10.7545 5.37723 -7.02516
164 3 0 12.5469 5.37723 -6.44899
231 3 0 10.7545 7.16964 -6.38667
232 1 1.79241 12.5469 7.16964 -8.56907
167 1 5.37723 10.7545 5.37723 -8.14151
168 3 3.58482 12.5469 5.37723 -6.42718
233 2 3.58482 10.7545 7.16964 -7.05175
234 1 5.37723 12.5469 7.16964 -8.09142
171 1 8.96205 10.7545 5.37723 -8.08655
172 2 7.16964 12.5469 5.37723 -6.98174
235 1 7.16964 10.7545 7.16964 -8.05406
236 3 8.96205 12.5469 7.16964 -6.30749
175 1 12.5469 10.7545 5.37723 -8.11045
176 1 10.7545 12.5469 5.37723 -8.15996
237 2 10.7545 10.7545 7.16964 -7.03195
238 2 12.5469 12.5469 7.16964 -7.08867
179 1 16.1317 10.7545 5.37723 -8.27984
180 1 14.3393 12.5469 5.37723 -8.25664
239 2 14.3393 10.7545 7.16964 -7.06035
240 2 16.1317 12.5469 7.16964 -7.09293
183 3 1.79241 14.3393 5.37723 -6.40192
184 3 0 16.1317 5.37723 -6.20741
241 2 0 14.3393 7.16964 -6.9113
242 1 1.79241 16.1317 7.16964 -8.23994
187 3 5.37723 14.3393 5.37723 -6.26382
188 2 3.58482 16.1317 5.37723 -6.90189
243 2 3.58482 14.3393 7.16964 -6.92557
244 1 5.37723 16.1317 7.16964 -8.18259
191 2 8.96205 14.3393 5.37723 -6.94559
192 3 7.16964 16.1317 5.37723 -6.3898
245 1 7.16964 14.3393 7.16964 -8.41542
246 3 8.96205 16.1317 7.16964 -6.40781
195 2 12.5469 14.3393 5.37723 -7.03749
196 3 10.7545 16.1317 5.37723 -6.42622
247 2 10.7545 14.3393 7.16964 -7.00157
248 1 12.5469 16.1317 7.16964 -8.29313
199 2 16.1317 14.3393 5.37723 -7.03028
200 2 14.3393 16.1317 5.37723 -7.10475
249 2 14.3393 14.3393 7.16964 -7.14759
250 2 16.1317 16.1317 7.16964 -7.21095
251 2 1.79241 0 8.96205 -7.08338
252 1 0 1.79241 8.96205 -8.25219
301 3 0 0 10.7545 -6.34918
302 1 1.79241 1.79241 10.7545 -8.23717
303 3 1.79241 0 12.5469 -6.24766
304 3 0 1.79241 12.5469 -6.32238
253 2 5.37723 0 8.96205 -7.04959
254 1 3.58482 1.79241 8.96205 -8.32076
305 3 3.58482 0 10.7545 -6.39807
306 3 5.37723 1.79241 10.7545 -6.41208
307 1 5.37723 0 12.5469 -8.31332
308 1 3.58482 1.79241 12.5469 -8.216
255 3 8.96205 0 8.96205 -6.38502
256 1 7.16964 1.79241 8.96205 -8.47453
309 2 7.16964 0 10.7545 -6.92324
310 3 8.96205 1.79241 10.7545 -6.46057
311 1 8.96205 0 12.5469 -8.21575
312 3 7.16964 1.79241 12.5469 -6.55357
257 3 12.5469 0 8.96205 -6.36861
258 1 10.7545 1.79241 8.96205 -8.643
313 1 10.7545 0 10.7545 -8.28728
314 2 12.5469 1.79241 10.7545 -7.02024
315 1 12.5469 0 12.5469 -8.16022
316 2 10.7545 1.79241 12.5469 -7.01787
259 2 16.1317 0 8.96205 -6.96538
260 3 14.3393 1.79241 8.96205 -6.46759
317 1 14.3393 0 10.7545 -8.57292
318 2 16.1317 1.79241 10.7545 -7.1417
319 2 16.1317 0 12.5469 -7.10807
320 3 14.3393 1.79241 12.5469 -6.65587
261 3 1.79241 3.58482 8.96205 -6.28569
262 2 0 5.37723 8.96205 -6.95109
321 1 0 3.58482 10.7545 -8.15874
322 1 1.79241 5.37723 10.7545 -8.19705
323 2 1.79241 3.58482 12.5469 -7.05297
324 1 0 5.37723 12.5469 -8.4369
263 2 5.37723 3.58482 8.96205 -6.96235
264 3 3.58482 5.37723 8.96205 -6.37378
325 1 3.58482 3.58482 10.7545 -8.25375
326 2 5.37723 5.37723 10.7545 -6.99855
327 3 5.37723 3.58482 12.5469 -6.57733
328 2 3.58482 5.37723 12.5469 -7.10118
265 3 8.96205 3.58482 8.96205 -6.46363
266 3 7.16964 5.37723 8.96205 -6.48088
329 2 7.16964 3.58482 10.7545 -7.00187
330 3 8.96205 5.37723 10.7545 -6.56292
331 2 8.96205 3.58482 12.5469 -7.00421
332 3 7.16964 5.37723 12.5469 -6.69527
267 3 12.5469 3.58482 8.96205 -6.49221
268 3 10.7545 5.37723 8.96205 -6.41673
333 3 10.7545 3.58482 10.7545 -6.57802
334 1 12.5469 5.37723 10.7545 -8.67193
335 2 12.5469 3.58482 12.5469 -7.11852
336 3 10.7545 5.37723 12.5469 -6.49748
269 3 16.1317 3.58482 8.96205 -6.53053
270 2 14.3393 5.37723 8.96205 -6.9777
337 2 14.3393 3.58482 10.7545 -7.08327
338 3 16.1317 5.37723 10.7545 -6.50782
339 2 16.1317 3.58482 12.5469 -7.21701
340 2 14.3393 5.37723 12.5469 -7.0635
271 2 1.79241 7.16964 8.96205 -7.01822
272 1 0 8.96205 8.96205 -8.19135
341 3 0 7.16964 10.7545 -6.36357
342 1 1.79241 8.96205 10.7545 -8.25703
343 2 1.79241 7.16964 12.5469 -7.03727
344 3 0 8.96205 12.5469 -6.36232
273 1 5.37723 7.16964 8.96205 -8.2897
274 2 3.58482 8.96205 8.96205 -7.05739
345 1 3.58482 7.16964 10.7545 -8.2341
346 2 5.37723 8.96205 10.7545 -7.04167
347 2 5.37723 7.16964 12.5469 -7.0796
348 3 3.58482 8.96205 12.5469 -6.56569
275 3 8.96205 7.16964 8.96205 -6.38277
276 1 7.16964 8.96205 8.96205 -8.20254
349 3 7.16964 7.16964 10.7545 -6.44664
350 2 8.96205 8.96205 10.7545 -6.84772
351 1 8.96205 7.16964 12.5469 -8.39433
352 1 7.16964 8.96205 12.5469 -8.34903
277 3 12.5469 7.16964 8.96205 -6.52581
278 1 10.7545 8.96205 8.96205 -8.50439
353 3 10.7545 7.16964 10.7545 -6.38595
354 3 12.5469 8.96205 10.7545 -6.45622
355 3 12.5469 7.16964 12.5469 -6.38844
356 1 10.7545 8.96205 12.5469 -8.48087
279 1 16.1317 7.16964 8.96205 -8.27696
280 2 14.3393 8.96205 8.96205 -7.06357
357 2 14.3393 7.16964 10.7545 -6.98745
358 2 16.1317 8.96205 10.7545 -7.05199
359 1 16.1317 7.16964 12.5469 -8.34564
360 1 14.3393 8.96205 12.5469 -8.517
281 3 1.79241 10.7545 8.96205 -6.373
282 2 0 12.5469 8.96205 -6.9898
361 1 0 10.7545 10.7545 -8.21036
362 2 1.79241 12.5469 10.7545 -7.04689
363 1 1.79241 10.7545 12.5469 -8.43689
364 3 0 12.5469 12.5469 -6.6125
283 1 5.37723 10.7545 8.96205 -8.20467
284 1 3.58482 12.5469 8.96205 -8.27143
365 2 3.58482 10.7545 10.7545 -7.01729
366 3 5.37723 12.5469 10.7545 -6.29856
367 1 5.37723 10.7545 12.5469 -8.3742
368 2 3.58482 12.5469 12.5469 -7.03219
285 1 8.96205 10.7545 8.96205 -8.21239
286 3 7.16964 12.5469 8.96205 -6.28976
369 2 7.16964 10.7545 10.7545 -6.95825
370 3 8.96205 12.5469 10.7545 -6.50283
371 3 8.96205 10.7545 12.5469 -6.45621
372 3 7.16964 12.5469 12.5469 -6.43928
287 2 12.5469 10.7545 8.96205 -7.05282
288 1 10.7545 12.5469 8.96205 -8.4733
373 3 10.7545 10.7545 10.7545 -6.42957
374 2 12.5469 12.5469 10.7545 -7.11869
375 3 12.5469 10.7545 12.5469 -6.5273
376 2 10.7545 12.5469 12.5469 -6.97176
289 1 16.1317 10.7545 8.96205 -8.19273
290 1 14.3393 12.5469 8.96205 -8.30251
377 2 14.3393 10.7545 10.7545 -7.08574
378 2 16.1317 12.5469 10.7545 -7.03115
379 3 16.1317 10.7545 12.5469 -6.55361
380 2 14.3393 12.5469 12.5469 -7.06651
291 3 1.79241 14.3393 8.96205 -6.46139
292 2 0 16.1317 8.96205 -7.05178
381 2 0 14.3393 10.7545 -7.08253
382 3 1.79241 16.1317 10.7545 -6.39853
383 2 1.79241 14.3393 12.5469 -7.0558
384 1 0 16.1317 12.5469 -8.29771
293 1 5.37723 14.3393 8.96205 -8.17327
294 1 3.58482 16.1317 8.96205 -8.11954
385 3 3.58482 14.3393 10.7545 -6.37437
386 3 5.37723 16.1317 10.7545 -6.21851
387 1 5.37723 14.3393 12.5469 -8.57604
388 3 3.58482 16.1317 12.5469 -6.41051
295 3 8.96205 14.3393 8.96205 -6.41153
296 1 7.16964 16.1317 8.96205 -8.22445
389 3 7.16964 14.3393 10.7545 -6.38249
390 2 8.96205 16.1317 10.7545 -7.0266
391 3 8.96205 14.3393 12.5469 -6.58243
392 2 7.16964 16.1317 12.5469 -6.87239
297 2 12.5469 14.3393 8.96205 -7.07474
298 1 10.7545 16.1317 8.96205 -8.36903
393 2 10.7545 14.3393 10.7545 -6.99225
394 3 12.5469 16.1317 10.7545 -6.40603
395 1 12.5469 14.3393 12.5469 -8.28526
396 1 10.7545 16.1317 12.5469 -8.33198
299 3 16.1317 14.3393 8.96205 -6.57814
300 2 14.3393 16.1317 8.96205 -7.07757
397 1 14.3393 14.3393 10.7545 -8.31238
398 3 16.1317 16.1317 10.7545 -6.43077
399 1 16.1317 14.3393 12.5469 -8.37638
400 3 14.3393 16.1317 12.5469 -6.30951
401 1 0 0 14.3393 -8.16539
402 2 1.79241 1.79241 14.3393 -6.9301
403 3 1.79241 0 16.1317 -6.25661
404 1 0 1.79241 16.1317 -8.19839
405 2 3.58482 0 14.3393 -6.93314
406 1 5.37723 1.79241 14.3393 -8.36387
407 3 5.37723 0 16.1317 -6.42007
408 1 3.58482 1.79241 16.1317 -8.26881
409 2 7.16964 0 14.3393 -7.00512
410 2 8.96205 1.79241 14.3393 -7.0689
411 2 8.96205 0 16.1317 -7.02607
412 2 7.16964 1.79241 16.1317 -7.01127
413 1 10.7545 0 14.3393 -7.96221
414 2 12.5469 1.79241 14.3393 -7.16636
415 1 12.5469 0 16.1317 -8.09609
416 1 10.7545 1.79241 16.1317 -8.06599
417 1 14.3393 0 14.3393 -8.301
418 2 16.1317 1.79241 14.3393 -7.25308
419 2 16.1317 0 16.1317 -7.078
420 2 14.3393 1.79241 16.1317 -7.15465
421 3 0 3.58482 14.3393 -6.45691
422 3 1.79241 5.37723 14.3393 -6.54991
423 1 1.79241 3.58482 16.1317 -8.3101
424 2 0 5.37723 16.1317 -7.00224
425 2 3.58482 3.58482 14.3393 -7.08181
426 2 5.37723 5.37723 14.3393 -7.1733
427 2 5.37723 3.58482 16.1317 -7.00196
428 3 3.58482 5.37723 16.1317 -6.5444
429 3 7.16964 3.58482 14.3393 -6.5963
430 2 8.96205 5.37723 14.3393 -7.02178
431 1 8.96205 3.58482 16.1317 -8.2191
432 3 7.16964 5.37723 16.1317 -6.5013
433 1 10.7545 3.58482 14.3393 -8.24716
434 2 12.5469 5.37723 14.3393 -7.06107
435 2 12.5469 3.58482 16.1317 -7.09887
436 1 10.7545 5.37723 16.1317 -8.04834
437 2 14.3393 3.58482 14.3393 -7.19666
438 3 16.1317 5.37723 14.3393 -6.57956
439 2 16.1317 3.58482 16.1317 -7.20278
440 1 14.3393 5.37723 16.1317 -8.45751
441 2 0 7.16964 14.3393 -7.00701
442 2 1.79241 8.96205 14.3393 -6.99719
443 1 1.79241 7.16964 16.1317 -8.36617
444 1 0 8.96205 16.1317 -8.1417
445 2 3.58482 7.16964 14.3393 -7.1665
446 2 5.37723 8.96205 14.3393 -7.17199
447 2 5.37723 7.16964 16.1317 -7.11399
448 3 3.58482 8.96205 16.1317 -6.67257
449 2 7.16964 7.16964 14.3393 -7.08957
450 3 8.96205 8.96205 14.3393 -6.41142
451 1 8.96205 7.16964 16.1317 -8.35442
452 2 7.16964 8.96205 16.1317 -7.14923
453 1 10.7545 7.16964 14.3393 -8.29291
454 3 12.5469 8.96205 14.3393 -6.27163
455 2 12.5469 7.16964 16.1317 -6.91067
456 2 10.7545 8.96205 16.1317 -6.89758
457 1 14.3393 7.16964 14.3393 -8.2351
458 3 16.1317 8.96205 14.3393 -6.35068
459 1 16.1317 7.16964 16.1317 -8.53256
460 1 14.3393 8.96205 16.1317 -8.54172
461 3 0 10.7545 14.3393 -6.41203
462 2 1.79241 12.5469 14.3393 -7.02366
463 1 1.79241 10.7545 16.1317 -8.3689
464 1 0 12.5469 16.1317 -8.51472
465 2 3.58482 10.7545 14.3393 -7.04371
466 1 5.37723 12.5469 14.3393 -8.17906
467 2 5.37723 10.7545 16.1317 -7.1012
468 3 3.58482 12.5469 16.1317 -6.44738
469 2 7.16964 10.7545 14.3393 -7.00086
470 1 8.96205 12.5469 14.3393 -8.44105
471 3 8.96205 10.7545 16.1317 -6.52541
472 1 7.16964 12.5469 16.1317 -8.29784
473 1 10.7545 10.7545 14.3393 -8.48544
474 2 12.5469 12.5469 14.3393 -7.03771
475 3 12.5469 10.7545 16.1317 -6.43394
476 2 10.7545 12.5469 16.1317 -6.89022
477 2 14.3393 10.7545 14.3393 -6.93098
478 1 16.1317 12.5469 14.3393 -8.24778
479 2 16.1317 10.7545 16.1317 -6.99543
480 1 14.3393 12.5469 16.1317 -8.26905
481 2 0 14.3393 14.3393 -7.01727
482 2 1.79241 16.1317 14.3393 -7.05148
483 3 1.79241 14.3393 16.1317 -6.46006
484 1 0 16.1317 16.1317 -8.25293
485 1 3.58482 14.3393 14.3393 -8.39759
486 3 5.37723 16.1317 14.3393 -6.33635
487 1 5.37723 14.3393 16.1317 -8.13715
488 3 3.58482 16.1317 16.1317 -6.40102
489 3 7.16964 14.3393 14.3393 -6.32058
490 3 8.96205 16.1317 14.3393 -6.43413
491 3 8.96205 14.3393 16.1317 -6.41135
492 1 7.16964 16.1317 16.1317 -8.50257
493 2 10.7545 14.3393 14.3393 -7.03878
494 2 12.5469 16.1317 14.3393 -7.05993
495 1 12.5469 14.3393 16.1317 -8.3059
496 2 10.7545 16.1317 16.1317 -6.97986
497 2 14.3393 14.3393 14.3393 -7.00916
498 3 16.1317 16.1317 14.3393 -6.54133
499 3 16.1317 14.3393 16.1317 -6.4404
500 2 14.3393 16.1317 16.1317 -6.99998
501 1 0 0 17.9241 -8.33395
502 2 1.79241 1.79241 17.9241 -6.90244
503 3 1.79241 0 19.7165 -6.30646
504 3 0 1.79241 19.7165 -6.35636
601 2 0 0 21.5089 -7.01441
602 1 1.79241 1.79241 21.5089 -8.33566
505 1 3.58482 0 17.9241 -8.36209
506 3 5.37723 1.79241 17.9241 -6.28305
507 3 5.37723 0 19.7165 -6.21642
508 1 3.58482 1.79241 19.7165 -8.38759
605 3 3.58482 0 21.5089 -6.4163
606 2 5.37723 1.79241 21.5089 -6.93838
509 1 7.16964 0 17.9241 -8.43149
510 2 8.96205 1.79241 17.9241 -7.1198
511 1 8.96205 0 19.7165 -8.08702
512 1 7.16964 1.79241 19.7165 -8.08285
609 1 7.16964 0 21.5089 -8.34604
610 2 8.96205 1.79241 21.5089 -7.07127
513 2 10.7545 0 17.9241 -7.05945
514 2 12.5469 1.79241 17.9241 -7.15951
515 1 12.5469 0 19.7165 -8.30421
516 2 10.7545 1.79241 19.7165 -7.06516
613 2 10.7545 0 21.5089 -7.1019
614 2 12.5469 1.79241 21.5089 -7.07331
517 2 14.3393 0 17.9241 -7.03337
518 2 16.1317 1.79241 17.9241 -7.13722
519 3 16.1317 0 19.7165 -6.57074
520 1 14.3393 1.79241 19.7165 -8.22649
617 1 14.3393 0 21.5089 -8.25151
618 1 16.1317 1.79241 21.5089 -8.35949
521 3 0 3.58482 17.9241 -6.30232
522 1 1.79241 5.37723 17.9241 -8.32894
523 3 1.79241 3.58482 19.7165 -6.28958
524 3 0 5.37723 19.7165 -6.11714
621 3 0 3.58482 21.5089 -6.19976
622 1 1.79241 5.37723 21.5089 -8.25624
525 2 3.58482 3.58482 17.9241 -6.98033
526 1 5.37723 5.37723 17.9241 -8.35104
527 2 5.37723 3.58482 19.7165 -6.98901
528 2 3.58482 5.37723 19.7165 -6.98803
625 1 3.58482 3.58482 21.5089 -8.28508
626 3 5.37723 5.37723 21.5089 -6.30593
529 1 7.16964 3.58482 17.9241 -8.18345
530 3 8.96205 5.37723 17.9241 -6.20193
531 1 8.96205 3.58482 19.7165 -8.14601
532 2 7.16964 5.37723 19.7165 -6.93733
629 1 7.16964 3.58482 21.5089 -8.39662
630 3 8.96205 5.37723 21.5089 -6.28393
533 1 10.7545 3.58482 17.9241 -8.12276
534 3 12.5469 5.37723 17.9241 -6.3566
535 2 12.5469 3.58482 19.7165 -7.05285
536 1 10.7545 5.37723 19.7165 -8.15495
633 2 10.7545 3.58482 21.5089 -7.03682
634 1 12.5469 5.37723 21.5089 -8.27964
537 2 14.3393 3.58482 17.9241 -7.09447
538 3 16.1317 5.37723 17.9241 -6.54506
539 3 16.1317 3.58482 19.7165 -6.55303
540 2 14.3393 5.37723 19.7165 -6.88693
637 1 14.3393 3.58482 21.5089 -8.26544
638 3 16.1317 5.37723 21.5089 -6.37918
541 1 0 7.16964 17.9241 -8.09761
542 2 1.79241 8.96205 17.9241 -6.98213
543 1 1.79241 7.16964 19.7165 -8.17688
544 2 0 8.96205 19.7165 -6.98752
641 3 0 7.16964 21.5089 -6.21871
642 1 1.79241 8.96205 21.5089 -8.42212
545 3 3.58482 7.16964 17.9241 -6.39599
546 2 5.37723 8.96205 17.9241 -7.12367
547 1 5.37723 7.16964 19.7165 -8.49773
548 3 3.58482 8.96205 19.7165 -6.41234
645 1 3.58482 7.16964 21.5089 -8.22028
646 3 5.37723 8.96205 21.5089 -6.39531
549 2 7.16964 7.16964 17.9241 -6.98137
550 2 8.96205 8.96205 17.9241 -7.02713
551 1 8.96205 7.16964 19.7165 -8.50259
552 3 7.16964 8.96205 19.7165 -6.51579
649 3 7.16964 7.16964 21.5089 -6.38655
650 3 8.96205 8.96205 21.5089 -6.35649
553 1 10.7545 7.16964 17.9241 -8.31522
554 3 12.5469 8.96205 17.9241 -6.42485
555 3 12.5469 7.16964 19.7165 -6.35951
556 3 10.7545 8.96205 19.7165 -6.45265
653 2 10.7545 7.16964 21.5089 -6.84408
654 3 12.5469 8.96205 21.5089 -6.33618
557 3 14.3393 7.16964 17.9241 -6.35297
558 3 16.1317 8.96205 17.9241 -6.34255
559 1 16.1317 7.16964 19.7165 -8.53692
560 1 14.3393 8.96205 19.7165 -8.55765
657 3 14.3393 7.16964 21.5089 -6.39751
658 3 16.1317 8.96205 21.5089 -6.32329
561 2 0 10.7545 17.9241 -6.97637
562 2 1.79241 12.5469 17.9241 -6.96725
563 1 1.79241 10.7545 19.7165 -8.29038
564 3 0 12.5469 19.7165 -6.41921
661 2 0 10.7545 21.5089 -6.92506
662 1 1.79241 12.5469 21.5089 -8.31327
565 2 3.58482 10.7545 17.9241 -7.09749
566 2 5.37723 12.5469 17.9241 -7.04999
567 2 5.37723 10.7545 19.7165 -7.00555
568 1 3.58482 12.5469 19.7165 -8.18463
665 2 3.58482 10.7545 21.5089 -6.96341
666 3 5.37723 12.5469 21.5089 -6.45714
569 3 7.16964 10.7545 17.9241 -6.59085
570 3 8.96205 12.5469 17.9241 -6.33196
571 3 8.96205 10.7545 19.7165 -6.41809
572 1 7.16964 12.5469 19.7165 -8.42465
669 1 7.16964 10.7545 21.5089 -8.48462
670 3 8.96205 12.5469 21.5089 -6.32187
573 3 10.7545 10.7545 17.9241 -6.50823
574 1 12.5469 12.5469 17.9241 -8.22211
575 2 12.5469 10.7545 19.7165 -6.95958
576 1 10.7545 12.5469 19.7165 -8.4471
673 1 10.7545 10.7545 21.5089 -8.48711
674 2 12.5469 12.5469 21.5089 -7.044
577 2 14.3393 10.7545 17.9241 -6.90814
578 1 16.1317 12.5469 17.9241 -8.35555
579 3 16.1317 10.7545 19.7165 -6.26992
580 1 14.3393 12.5469 19.7165 -8.2623
677 1 14.3393 10.7545 21.5089 -8.26007
678 3 16.1317 12.5469 21.5089 -6.3333
581 3 0 14.3393 17.9241 -6.36507
582 2 1.79241 16.1317 17.9241 -6.97029
583 1 1.79241 14.3393 19.7165 -8.24312
584 2 0 16.1317 19.7165 -6.98294
681 3 0 14.3393 21.5089 -6.32198
682 1 1.79241 16.1317 21.5089 -8.22107
585 1 3.58482 14.3393 17.9241 -8.25181
586 3 5.37723 16.1317 17.9241 -6.19819
587 2 5.37723 14.3393 19.7165 -6.88326
588 1 3.58482 16.1317 19.7165 -8.19601
685 3 3.58482 14.3393 21.5089 -6.39829
686 3 5.37723 16.1317 21.5089 -6.28114
589 1 7.16964 14.3393 17.9241 -8.22392
590 3 8.96205 16.1317 17.9241 -6.29557
591 3 8.96205 14.3393 19.7165 -6.21405
592 1 7.16964 16.1317 19.7165 -8.49992
689 1 7.16964 14.3393 21.5089 -8.44604
690 3 8.96205 16.1317 21.5089 -6.30756
593 3 10.7545 14.3393 17.9241 -6.38621
594 2 12.5469 16.1317 17.9241 -6.94481
595 1 12.5469 14.3393 19.7165 -8.31571
596 1 10.7545 16.1317 19.7165 -8.51742
693 2 10.7545 14.3393 21.5089 -6.91078
694 3 12.5469 16.1317 21.5089 -6.33783
597 3 14.3393 14.3393 17.9241 -6.30105
598 1 16.1317 16.1317 17.9241 -8.51192
599 3 16.1317 14.3393 19.7165 -6.33909
600 3 14.3393 16.1317 19.7165 -6.35173
697 3 14.3393 14.3393 21.5089 -6.41906
698 3 16.1317 16.1317 21.5089 -6.45101
603 1 1.79241 0 23.3013 -8.29511
604 1 0 1.79241 23.3013 -8.26681
701 3 0 0 25.0937 -6.50555
702 2 1.79241 1.79241 25.0937 -7.00095
703 2 1.79241 0 26.8861 -6.96553
704 2 0 1.79241 26.8861 -7.1082
607 2 5.37723 0 23.3013 -6.92481
608 3 3.58482 1.79241 23.3013 -6.37207
705 1 3.58482 0 25.0937 -8.39396
706 1 5.37723 1.79241 25.0937 -8.42878
707 3 5.37723 0 26.8861 -6.37288
708 3 3.58482 1.79241 26.8861 -6.37879
611 1 8.96205 0 23.3013 -8.2831
612 3 7.16964 1.79241 23.3013 -6.30254
709 2 7.16964 0 25.0937 -6.91433
710 3 8.96205 1.79241 25.0937 -6.35265
711 2 8.96205 0 26.8861 -6.92761
712 3 7.16964 1.79241 26.8861 -6.48096
615 2 12.5469 0 23.3013 -6.96553
616 1 10.7545 1.79241 23.3013 -8.21401
713 3 10.7545 0 25.0937 -6.28174
714 1 12.5469 1.79241 25.0937 -8.23961
715 3 12.5469 0 26.8861 -6.2579
716 1 10.7545 1.79241 26.8861 -8.42034
619 3 16.1317 0 23.3013 -6.44071
620 3 14.3393 1.79241 23.3013 -6.28501
717 3 14.3393 0 25.0937 -6.35035
718 1 16.1317 1.79241 25.0937 -8.32808
719 3 16.1317 0 26.8861 -6.34474
720 2 14.3393 1.79241 26.8861 -6.91516
623 2 1.79241 3.58482 23.3013 -7.00533
624 1 0 5.37723 23.3013 -8.34843
721 3 0 3.58482 25.0937 -6.52895
722 2 1.79241 5.37723 25.0937 -6.91244
723 3 1.79241 3.58482 26.8861 -6.62325
724 2 0 5.37723 26.8861 -6.97752
627 3 5.37723 3.58482 23.3013 -6.24547
628 1 3.58482 5.37723 23.3013 -8.28155
725 2 3.58482 3.58482 25.0937 -6.91506
726 1 5.37723 5.37723 25.0937 -8.27097
727 1 5.37723 3.58482 26.8861 -8.20166
728 3 3.58482 5.37723 26.8861 -6.33848
631 1 8.96205 3.58482 23.3013 -8.11629
632 3 7.16964 5.37723 23.3013 -6.23277
729 1 7.16964 3.58482 25.0937 -8.30451
730 1 8.96205 5.37723 25.0937 -8.23887
731 3 8.96205 3.58482 26.8861 -6.27884
732 1 7.16964 5.37723 26.8861 -8.14801
635 2 12.5469 3.58482 23.3013 -6.96388
636 1 10.7545 5.37723 23.3013 -8.36404
733 2 10.7545 3.58482 25.0937 -6.88038
734 3 12.5469 5.37723 25.0937 -6.46305
735 1 12.5469 3.58482 26.8861 -8.36321
736 3 10.7545 5.37723 26.8861 -6.41065
639 1 16.1317 3.58482 23.3013 -8.29282
640 3 14.3393 5.37723 23.3013 -6.43243
737 1 14.3393 3.58482 25.0937 -8.17574
738 2 16.1317 5.37723 25.0937 -7.01157
739 1 16.1317 3.58482 26.8861 -8.19931
740 2 14.3393 5.37723 26.8861 -7.01958
643 3 1.79241 7.16964 23.3013 -6.35588
644 3 0 8.96205 23.3013 -6.40567
741 3 0 7.16964 25.0937 -6.40166
742 3 1.79241 8.96205 25.0937 -6.40695
743 1 1.79241 7.16964 26.8861 -8.44955
744 2 0 8.96205 26.8861 -6.94696
647 3 5.37723 7.16964 23.3013 -6.21671
648 3 3.58482 8.96205 23.3013 -6.37339
745 3 3.58482 7.16964 25.0937 -6.37262
746 1 5.37723 8.96205 25.0937 -8.54006
747 2 5.37723 7.16964 26.8861 -6.91097
748 3 3.58482 8.96205 26.8861 -6.26897
651 3 8.96205 7.16964 23.3013 -6.22996
652 1 7.16964 8.96205 23.3013 -8.35802
749 1 7.16964 7.16964 25.0937 -8.14439
750 1 8.96205 8.96205 25.0937 -8.28599
751 3 8.96205 7.16964 26.8861 -6.25425
752 2 7.16964 8.96205 26.8861 -6.82815
655 3 12.5469 7.16964 23.3013 -6.2727
656 1 10.7545 8.96205 23.3013 -8.3892
753 3 10.7545 7.16964 25.0937 -6.24144
754 1 12.5469 8.96205 25.0937 -8.14215
755 2 12.5469 7.16964 26.8861 -6.93062
756 1 10.7545 8.96205 26.8861 -8.36986
659 2 16.1317 7.16964 23.3013 -6.90564
660 1 14.3393 8.96205 23.3013 -8.31001
757 3 14.3393 7.16964 25.0937 -6.50107
758 1 16.1317 8.96205 25.0937 -8.34823
759 3 16.1317 7.16964 26.8861 -6.57182
760 2 14.3393 8.96205 26.8861 -7.00421
663 3 1.79241 10.7545 23.3013 -6.41999
664 1 0 12.5469 23.3013 -8.42569
761 1 0 10.7545 25.0937 -8.32472
762 3 1.79241 12.5469 25.0937 -6.40195
763 1 1.79241 10.7545 26.8861 -8.28524
764 1 0 12.5469 26.8861 -8.27141
667 2 5.37723 10.7545 23.3013 -6.95672
668 3 3.58482 12.5469 23.3013 -6.4668
765 3 3.58482 10.7545 25.0937 -6.42415
766 1 5.37723 12.5469 25.0937 -8.58927
767 3 5.37723 10.7545 26.8861 -6.34956
768 2 3.58482 12.5469 26.8861 -6.83643
671 2 8.96205 10.7545 23.3013 -7.00058
672 2 7.16964 12.5469 23.3013 -6.91516
769 3 7.16964 10.7545 25.0937 -6.36091
770 3 8.96205 12.5469 25.0937 -6.49785
771 3 8.96205 10.7545 26.8861 -6.36483
772 1 7.16964 12.5469 26.8861 -8.45062
675 2 12.5469 10.7545 23.3013 -7.00777
676 2 10.7545 12.5469 23.3013 -6.98847
773 2 10.7545 10.7545 25.0937 -7.019
774 3 12.5469 12.5469 25.0937 -6.40668
775 1 12.5469 10.7545 26.8861 -8.23022
776 3 10.7545 12.5469 26.8861 -6.46948
679 2 16.1317 10.7545 23.3013 -7.05649
680 1 14.3393 12.5469 23.3013 -8.2004
777 1 14.3393 10.7545 25.0937 -8.01789
778 1 16.1317 12.5469 25.0937 -8.16011
779 2 16.1317 10.7545 26.8861 -7.0663
780 2 14.3393 12.5469 26.8861 -6.93366
683 2 1.79241 14.3393 23.3013 -6.90002
684 2 0 16.1317 23.3013 -6.99266
781 2 0 14.3393 25.0937 -6.98669
782 1 1.79241 16.1317 25.0937 -8.31881
783 1 1.79241 14.3393 26.8861 -8.28509
784 1 0 16.1317 26.8861 -8.28662
687 3 5.37723 14.3393 23.3013 -6.39081
688 3 3.58482 16.1317 23.3013 -6.34479
785 3 3.58482 14.3393 25.0937 -6.3281
786 1 5.37723 16.1317 25.0937 -8.43242
787 3 5.37723 14.3393 26.8861 -6.32209
788 1 3.58482 16.1317 26.8861 -8.194
691 1 8.96205 14.3393 23.3013 -8.45364
692 3 7.16964 16.1317 23.3013 -6.31953
789 2 7.16964 14.3393 25.0937 -6.9087
790 3 8.96205 16.1317 25.0937 -6.30398
791 1 8.96205 14.3393 26.8861 -8.40757
792 1 7.16964 16.1317 26.8861 -8.27135
695 1 12.5469 14.3393 23.3013 -8.39958
696 1 10.7545 16.1317 23.3013 -8.48887
793 2 10.7545 14.3393 25.0937 -6.93132
794 3 12.5469 16.1317 25.0937 -6.47147
795 2 12.5469 14.3393 26.8861 -6.87855
796 1 10.7545 16.1317 26.8861 -8.48582
699 2 16.1317 14.3393 23.3013 -6.99017
700 2 14.3393 16.1317 23.3013 -6.96839
797 1 14.3393 14.3393 25.0937 -8.34097
798 2 16.1317 16.1317 25.0937 -7.0647
799 3 16.1317 14.3393 26.8861 -6.37322
800 3 14.3393 16.1317 26.8861 -6.38792