ITEM: TIMESTEP
0
ITEM: NUMBER OF ATOMS
4000
ITEM: BOX BOUNDS pp pp pp
0.0000000000000000e+00 3.6322460000000000e+01
0.0000000000000000e+00 3.6322460000000000e+01
0.0000000000000000e+00 3.6322460000000000e+01
ITEM: ATOMS id type x y z c_peratom
1 3 0 0 0 -6.44292
2 3 1.81612 1.81612 0 -6.42136
3 3 1.81612 0 1.81612 -6.57021
4 3 0 1.81612 1.81612 -6.2848
101 3 0 0 3.63225 -6.44483
102 1 1.81612 1.81612 3.63225 -8.29847
5 2 3.63225 0 0 -7.12566
6 2 5.44837 1.81612 0 -7.08668
7 2 5.44837 0 1.81612 -7.09409
8 2 3.63225 1.81612 1.81612 -7.11156
105 2 3.63225 0 3.63225 -7.08571
106 1 5.44837 1.81612 3.63225 -8.19073
9 1 7.26449 0 0 -7.97704
10 2 9.08061 1.81612 0 -7.0361
11 1 9.08061 0 1.81612 -8.06371
12 3 7.26449 1.81612 1.81612 -6.50713
109 3 7.26449 0 3.63225 -6.5195
110 2 9.08061 1.81612 3.63225 -6.98188
13 2 10.8967 0 0 -7.01548
14 3 12.7129 1.81612 0 -6.45279
15 2 12.7129 0 1.81612 -7.112
16 3 10.8967 1.81612 1.81612 -6.45565
113 1 10.8967 0 3.63225 -8.03653
114 1 12.7129 1.81612 3.63225 -8.05363
17 2 14.529 0 0 -6.98897
18 2 16.3451 1.81612 0 -6.98259
19 3 16.3451 0 1.81612 -6.51511
20 2 14.529 1.81612 1.81612 -7.03498
117 1 14.529 0 3.63225 -8.04241
118 1 16.3451 1.81612 3.63225 -8.15831
21 1 0 3.63225 0 -7.93739
22 1 1.81612 5.44837 0 -7.89113
23 1 1.81612 3.63225 1.81612 -7.99577
24 1 0 5.44837 1.81612 -7.85754
121 3 0 3.63225 3.63225 -6.34323
122 1 1.81612 5.44837 3.63225 -8.13313
25 1 3.63225 3.63225 0 -8.12952
26 3 5.44837 5.44837 0 -6.52518
27 1 5.44837 3.63225 1.81612 -8.13304
28 3 3.63225 5.44837 1.81612 -6.26257
125 3 3.63225 3.63225 3.63225 -6.29933
126 1 5.44837 5.44837 3.63225 -8.06821
29 2 7.26449 3.63225 0 -7.02811
30 1 9.08061 5.44837 0 -8.33372
31 3 9.08061 3.63225 1.81612 -6.48312
32 3 7.26449 5.44837 1.81612 -6.46423
129 2 7.26449 3.63225 3.63225 -6.99302
130 3 9.08061 5.44837 3.63225 -6.4045
33 1 10.8967 3.63225 0 -8.18739
34 2 12.7129 5.44837 0 -7.00095
35 2 12.7129 3.63225 1.81612 -7.06541
36 3 10.8967 5.44837 1.81612 -6.5178
133 1 10.8967 3.63225 3.63225 -8.16057
134 2 12.7129 5.44837 3.63225 -7.09125
37 1 14.529 3.63225 0 -8.11083
38 1 16.3451 5.44837 0 -8.1131
39 3 16.3451 3.63225 1.81612 -6.45072
40 1 14.529 5.44837 1.81612 -8.20353
137 2 14.529 3.63225 3.63225 -7.07006
138 3 16.3451 5.44837 3.63225 -6.5031
41 3 0 7.26449 0 -6.38986
42 2 1.81612 9.08061 0 -7.09188
43 1 1.81612 7.26449 1.81612 -7.9721
44 1 0 9.08061 1.81612 -8.21896
141 3 0 7.26449 3.63225 -6.3422
142 2 1.81612 9.08061 3.63225 -7.02801
45 2 3.63225 7.26449 0 -7.11532
46 1 5.44837 9.08061 0 -8.1312
47 1 5.44837 7.26449 1.81612 -8.09417
48 1 3.63225 9.08061 1.81612 -8.04003
145 2 3.63225 7.26449 3.63225 -7.0836
146 2 5.44837 9.08061 3.63225 -6.9959
49 3 7.26449 7.26449 0 -6.43504
50 1 9.08061 9.08061 0 -8.24345
51 2 9.08061 7.26449 1.81612 -6.98234
52 1 7.26449 9.08061 1.81612 -7.96324
149 2 7.26449 7.26449 3.63225 -7.05149
150 2 9.08061 9.08061 3.63225 -7.02621
53 2 10.8967 7.26449 0 -6.91092
54 1 12.7129 9.08061 0 -8.16867
55 2 12.7129 7.26449 1.81612 -7.04075
56 3 10.8967 9.08061 1.81612 -6.35752
153 1 10.8967 7.26449 3.63225 -8.23435
154 1 12.7129 9.08061 3.63225 -8.06836
57 3 14.529 7.26449 0 -6.37431
58 1 16.3451 9.08061 0 -8.19923
59 3 16.3451 7.26449 1.81612 -6.42363
60 3 14.529 9.08061 1.81612 -6.38383
157 2 14.529 7.26449 3.63225 -7.12754
158 2 16.3451 9.08061 3.63225 -7.02921
61 3 0 10.8967 0 -6.58546
62 1 1.81612 12.7129 0 -8.1229
63 2 1.81612 10.8967 1.81612 -7.01147
64 1 0 12.7129 1.81612 -8.12164
161 2 0 10.8967 3.63225 -6.96061
162 1 1.81612 12.7129 3.63225 -8.17877
65 2 3.63225 10.8967 0 -7.19575
66 1 5.44837 12.7129 0 -8.28511
67 1 5.44837 10.8967 1.81612 -8.10641
68 2 3.63225 12.7129 1.81612 -6.96998
165 3 3.63225 10.8967 3.63225 -6.4659
166 2 5.44837 12.7129 3.63225 -6.84651
69 3 7.26449 10.8967 0 -6.40496
70 2 9.08061 12.7129 0 -6.97741
71 1 9.08061 10.8967 1.81612 -8.0107
72 3 7.26449 12.7129 1.81612 -6.39079
169 3 7.26449 10.8967 3.63225 -6.38668
170 1 9.08061 12.7129 3.63225 -8.15308
73 1 10.8967 10.8967 0 -7.96047
74 1 12.7129 12.7129 0 -7.9732
75 1 12.7129 10.8967 1.81612 -7.86519
76 1 10.8967 12.7129 1.81612 -7.94633
173 1 10.8967 10.8967 3.63225 -7.95857
174 1 12.7129 12.7129 3.63225 -7.88829
77 3 14.529 10.8967 0 -6.31357
78 1 16.3451 12.7129 0 -7.98306
79 1 16.3451 10.8967 1.81612 -7.96901
80 1 14.529 12.7129 1.81612 -7.75317
177 2 14.529 10.8967 3.63225 -7.11649
178 1 16.3451 12.7129 3.63225 -7.99663
81 2 0 14.529 0 -7.01415
82 3 1.81612 16.3451 0 -6.36777
83 1 1.81612 14.529 1.81612 -8.17051
84 1 0 16.3451 1.81612 -8.02138
181 3 0 14.529 3.63225 -6.30059
182 2 1.81612 16.3451 3.63225 -6.96016
85 3 3.63225 14.529 0 -6.39333
86 3 5.44837 16.3451 0 -6.44121
87 3 5.44837 14.529 1.81612 -6.47756
88 3 3.63225 16.3451 1.81612 -6.36878
185 3 3.63225 14.529 3.63225 -6.37554
186 1 5.44837 16.3451 3.63225 -8.33911
89 3 7.26449 14.529 0 -6.5027
90 3 9.08061 16.3451 0 -6.59106
91 3 9.08061 14.529 1.81612 -6.53255
92 2 7.26449 16.3451 1.81612 -6.90244
189 3 7.26449 14.529 3.63225 -6.4296
190 1 9.08061 16.3451 3.63225 -8.20498
93 2 10.8967 14.529 0 -7.09621
94 2 12.7129 16.3451 0 -7.12563
95 2 12.7129 14.529 1.81612 -7.17762
96 2 10.8967 16.3451 1.81612 -7.08353
193 2 10.8967 14.529 3.63225 -7.03413
194 1 12.7129 16.3451 3.63225 -8.22581
97 1 14.529 14.529 0 -8.08265
98 2 16.3451 16.3451 0 -7.09204
99 2 16.3451 14.529 1.81612 -7.15556
100 3 14.529 16.3451 1.81612 -6.45769
197 1 14.529 14.529 3.63225 -7.99779
198 2 16.3451 16.3451 3.63225 -7.14123
103 2 1.81612 0 5.44837 -7.02854
104 2 0 1.81612 5.44837 -6.97681
201 1 0 0 7.26449 -8.01893
202 1 1.81612 1.81612 7.26449 -8.1466
107 2 5.44837 0 5.44837 -7.0232
108 3 3.63225 1.81612 5.44837 -6.46711
203 2 3.63225 0 7.26449 -6.96615
204 3 5.44837 1.81612 7.26449 -6.44975
111 2 9.08061 0 5.44837 -6.98507
112 3 7.26449 1.81612 5.44837 -6.44172
205 1 7.26449 0 7.26449 -8.39812
206 3 9.08061 1.81612 7.26449 -6.30875
115 2 12.7129 0 5.44837 -7.09052
116 1 10.8967 1.81612 5.44837 -7.89219
207 1 10.8967 0 7.26449 -8.2245
208 2 12.7129 1.81612 7.26449 -7.032
119 1 16.3451 0 5.44837 -7.94661
120 2 14.529 1.81612 5.44837 -7.1228
209 1 14.529 0 7.26449 -8.22236
210 2 16.3451 1.81612 7.26449 -7.04313
123 2 1.81612 3.63225 5.44837 -6.96564
124 2 0 5.44837 5.44837 -7.04395
211 3 0 3.63225 7.26449 -6.54846
212 2 1.81612 5.44837 7.26449 -7.06268
127 1 5.44837 3.63225 5.44837 -8.09571
128 2 3.63225 5.44837 5.44837 -7.0598
213 1 3.63225 3.63225 7.26449 -8.17204
214 3 5.44837 5.44837 7.26449 -6.39852
131 1 9.08061 3.63225 5.44837 -8.07516
132 1 7.26449 5.44837 5.44837 -8.00627
215 2 7.26449 3.63225 7.26449 -6.9274
216 1 9.08061 5.44837 7.26449 -7.81991
135 2 12.7129 3.63225 5.44837 -7.1348
136 3 10.8967 5.44837 5.44837 -6.34505
217 1 10.8967 3.63225 7.26449 -7.94886
218 1 12.7129 5.44837 7.26449 -8.15021
139 3 16.3451 3.63225 5.44837 -6.55694
140 2 14.529 5.44837 5.44837 -7.16756
219 3 14.529 3.63225 7.26449 -6.59253
220 2 16.3451 5.44837 7.26449 -7.02427
143 1 1.81612 7.26449 5.44837 -8.18426
144 3 0 9.08061 5.44837 -6.56554
221 2 0 7.26449 7.26449 -6.99556
222 2 1.81612 9.08061 7.26449 -7.06049
147 3 5.44837 7.26449 5.44837 -6.48933
148 3 3.63225 9.08061 5.44837 -6.51741
223 1 3.63225 7.26449 7.26449 -8.26221
224 2 5.44837 9.08061 7.26449 -6.99846
151 1 9.08061 7.26449 5.44837 -8.00665
152 1 7.26449 9.08061 5.44837 -8.21688
225 2 7.26449 7.26449 7.26449 -6.93848
226 3 9.08061 9.08061 7.26449 -6.31639
155 2 12.7129 7.26449 5.44837 -7.07979
156 3 10.8967 9.08061 5.44837 -6.3027
227 1 10.8967 7.26449 7.26449 -7.94292
228 1 12.7129 9.08061 7.26449 -8.02599
159 3 16.3451 7.26449 5.44837 -6.69425
160 2 14.529 9.08061 5.44837 -7.15961
229 2 14.529 7.26449 7.26449 -7.15298
230 3 16.3451 9.08061 7.26449 -6.69503
163 3 1.81612 10.8967 5.44837 -6.5529
164 1 0 12.7129 5.44837 -8.28102
231 2 0 10.8967 7.26449 -7.03764
232 2 1.81612 12.7129 7.26449 -7.02391
167 1 5.44837 10.8967 5.44837 -8.20693
168 3 3.63225 12.7129 5.44837 -6.42769
233 1 3.63225 10.8967 7.26449 -8.20108
234 2 5.44837 12.7129 7.26449 -6.96009
171 2 9.08061 10.8967 5.44837 -6.94883
172 3 7.26449 12.7129 5.44837 -6.39695
235 3 7.26449 10.8967 7.26449 -6.46693
236 1 9.08061 12.7129 7.26449 -8.16752
175 1 12.7129 10.8967 5.44837 -7.84622
176 2 10.8967 12.7129 5.44837 -7.10615
237 1 10.8967 10.8967 7.26449 -8.032
238 1 12.7129 12.7129 7.26449 -8.09092
179 3 16.3451 10.8967 5.44837 -6.57756
180 1 14.529 12.7129 5.44837 -8.02456
239 2 14.529 10.8967 7.26449 -7.03318
240 3 16.3451 12.7129 7.26449 -6.66559
183 1 1.81612 14.529 5.44837 -8.13076
184 1 0 16.3451 5.44837 -8.21412
241 3 0 14.529 7.26449 -6.43677
242 3 1.81612 16.3451 7.26449 -6.33063
187 1 5.44837 14.529 5.44837 -8.26693
188 3 3.63225 16.3451 5.44837 -6.44433
243 1 3.63225 14.529 7.26449 -8.13773
244 2 5.44837 16.3451 7.26449 -6.96453
191 1 9.08061 14.529 5.44837 -8.05155
192 2 7.26449 16.3451 5.44837 -7.032
245 2 7.26449 14.529 7.26449 -6.97037
246 3 9.08061 16.3451 7.26449 -6.43676
195 3 12.7129 14.529 5.44837 -6.34478
196 2 10.8967 16.3451 5.44837 -7.10642
247 1 10.8967 14.529 7.26449 -8.13818
248 2 12.7129 16.3451 7.26449 -6.95465
199 2 16.3451 14.529 5.44837 -7.13562
200 3 14.529 16.3451 5.44837 -6.50471
249 3 14.529 14.529 7.26449 -6.49262
250 3 16.3451 16.3451 7.26449 -6.5975
251 2 1.81612 0 9.08061 -7.01236
252 1 0 1.81612 9.08061 -8.0498
301 1 0 0 10.8967 -8.14616
302 3 1.81612 1.81612 10.8967 -6.31207
303 3 1.81612 0 12.7129 -6.29686
304 2 0 1.81612 12.7129 -6.98994
253 3 5.44837 0 9.08061 -6.46073
254 3 3.63225 1.81612 9.08061 -6.39655
305 1 3.63225 0 10.8967 -8.24739
306 3 5.44837 1.81612 10.8967 -6.35769
307 1 5.44837 0 12.7129 -8.07915
308 1 3.63225 1.81612 12.7129 -8.02896
255 1 9.08061 0 9.08061 -8.19322
256 3 7.26449 1.81612 9.08061 -6.42372
309 2 7.26449 0 10.8967 -6.97459
310 2 9.08061 1.81612 10.8967 -7.06542
311 2 9.08061 0 12.7129 -7.05949
312 2 7.26449 1.81612 12.7129 -7.10614
257 2 12.7129 0 9.08061 -6.91409
258 3 10.8967 1.81612 9.08061 -6.36717
313 3 10.8967 0 10.8967 -6.41555
314 1 12.7129 1.81612 10.8967 -8.25949
315 1 12.7129 0 12.7129 -8.1158
316 2 10.8967 1.81612 12.7129 -7.12865
259 1 16.3451 0 9.08061 -8.18546
260 3 14.529 1.81612 9.08061 -6.52404
317 2 14.529 0 10.8967 -6.89768
318 2 16.3451 1.81612 10.8967 -6.97163
319 1 16.3451 0 12.7129 -8.34983
320 3 14.529 1.81612 12.7129 -6.4419
261 3 1.81612 3.63225 9.08061 -6.43291
262 2 0 5.44837 9.08061 -7.00183
321 1 0 3.63225 10.8967 -8.11558
322 3 1.81612 5.44837 10.8967 -6.41759
323 1 1.81612 3.63225 12.7129 -8.09725
324 2 0 5.44837 12.7129 -6.98443
263 1 5.44837 3.63225 9.08061 -8.22945
264 3 3.63225 5.44837 9.08061 -6.45191
325 3 3.63225 3.63225 10.8967 -6.32752
326 2 5.44837 5.44837 10.8967 -7.10634
327 1 5.44837 3.63225 12.7129 -8.00127
328 1 3.63225 5.44837 12.7129 -8.08657
265 1 9.08061 3.63225 9.08061 -8.03593
266 1 7.26449 5.44837 9.08061 -8.14569
329 2 7.26449 3.63225 10.8967 -7.06291
330 2 9.08061 5.44837 10.8967 -7.08579
331 1 9.08061 3.63225 12.7129 -8.06599
332 1 7.26449 5.44837 12.7129 -7.92133
267 3 12.7129 3.63225 9.08061 -6.40777
268 1 10.8967 5.44837 9.08061 -7.81723
333 1 10.8967 3.63225 10.8967 -7.94674
334 1 12.7129 5.44837 10.8967 -8.17787
335 2 12.7129 3.63225 12.7129 -7.03615
336 3 10.8967 5.44837 12.7129 -6.39435
269 1 16.3451 3.63225 9.08061 -8.1005
270 2 14.529 5.44837 9.08061 -7.0705
337 2 14.529 3.63225 10.8967 -7.0627
338 1 16.3451 5.44837 10.8967 -8.09737
339 1 16.3451 3.63225 12.7129 -8.16744
340 2 14.529 5.44837 12.7129 -7.1332
271 1 1.81612 7.26449 9.08061 -8.25862
272 3 0 9.08061 9.08061 -6.56979
341 3 0 7.26449 10.8967 -6.51235
342 2 1.81612 9.08061 10.8967 -7.06897
343 3 1.81612 7.26449 12.7129 -6.44434
344 2 0 9.08061 12.7129 -6.96871
273 3 5.44837 7.26449 9.08061 -6.54516
274 2 3.63225 9.08061 9.08061 -7.04348
345 2 3.63225 7.26449 10.8967 -6.98765
346 3 5.44837 9.08061 10.8967 -6.44308
347 1 5.44837 7.26449 12.7129 -7.92342
348 1 3.63225 9.08061 12.7129 -8.16477
275 3 9.08061 7.26449 9.08061 -6.25592
276 1 7.26449 9.08061 9.08061 -8.46378
349 2 7.26449 7.26449 10.8967 -6.99739
350 3 9.08061 9.08061 10.8967 -6.28812
351 1 9.08061 7.26449 12.7129 -7.9527
352 1 7.26449 9.08061 12.7129 -8.16826
277 2 12.7129 7.26449 9.08061 -7.15252
278 1 10.8967 9.08061 9.08061 -7.99966
353 1 10.8967 7.26449 10.8967 -7.97539
354 1 12.7129 9.08061 10.8967 -8.02595
355 3 12.7129 7.26449 12.7129 -6.39616
356 1 10.8967 9.08061 12.7129 -8.11927
279 1 16.3451 7.26449 9.08061 -8.2427
280 2 14.529 9.08061 9.08061 -7.05756
357 3 14.529 7.26449 10.8967 -6.46346
358 3 16.3451 9.08061 10.8967 -6.59501
359 2 16.3451 7.26449 12.7129 -7.04915
360 1 14.529 9.08061 12.7129 -8.10035
281 2 1.81612 10.8967 9.08061 -7.14586
282 2 0 12.7129 9.08061 -6.96734
361 3 0 10.8967 10.8967 -6.53362
362 3 1.81612 12.7129 10.8967 -6.47873
363 3 1.81612 10.8967 12.7129 -6.48211
364 1 0 12.7129 12.7129 -8.158
283 3 5.44837 10.8967 9.08061 -6.56192
284 1 3.63225 12.7129 9.08061 -8.22372
365 2 3.63225 10.8967 10.8967 -7.0261
366 2 5.44837 12.7129 10.8967 -6.95671
367 3 5.44837 10.8967 12.7129 -6.54704
368 3 3.63225 12.7129 12.7129 -6.52754
285 3 9.08061 10.8967 9.08061 -6.40394
286 3 7.26449 12.7129 9.08061 -6.52492
369 3 7.26449 10.8967 10.8967 -6.50589
370 2 9.08061 12.7129 10.8967 -6.99908
371 3 9.08061 10.8967 12.7129 -6.51197
372 2 7.26449 12.7129 12.7129 -7.03296
287 3 12.7129 10.8967 9.08061 -6.41672
288 2 10.8967 12.7129 9.08061 -7.00806
373 1 10.8967 10.8967 10.8967 -8.19922
374 2 12.7129 12.7129 10.8967 -7.03071
375 2 12.7129 10.8967 12.7129 -7.06398
376 2 10.8967 12.7129 12.7129 -7.04166
289 2 16.3451 10.8967 9.08061 -7.0915
290 3 14.529 12.7129 9.08061 -6.55149
377 3 14.529 10.8967 10.8967 -6.55729
378 1 16.3451 12.7129 10.8967 -8.28025
379 2 16.3451 10.8967 12.7129 -7.07334
380 3 14.529 12.7129 12.7129 -6.6359
291 2 1.81612 14.529 9.08061 -6.92146
292 1 0 16.3451 9.08061 -8.23876
381 3 0 14.529 10.8967 -6.32801
382 1 1.81612 16.3451 10.8967 -8.10858
383 1 1.81612 14.529 12.7129 -8.13955
384 3 0 16.3451 12.7129 -6.33001
293 3 5.44837 14.529 9.08061 -6.52466
294 3 3.63225 16.3451 9.08061 -6.37329
385 3 3.63225 14.529 10.8967 -6.39669
386 1 5.44837 16.3451 10.8967 -8.39354
387 1 5.44837 14.529 12.7129 -8.19541
388 1 3.63225 16.3451 12.7129 -8.03337
295 1 9.08061 14.529 9.08061 -8.14784
296 3 7.26449 16.3451 9.08061 -6.49479
389 3 7.26449 14.529 10.8967 -6.5133
390 3 9.08061 16.3451 10.8967 -6.47619
391 3 9.08061 14.529 12.7129 -6.52554
392 2 7.26449 16.3451 12.7129 -6.90496
297 3 12.7129 14.529 9.08061 -6.4567
298 3 10.8967 16.3451 9.08061 -6.3314
393 1 10.8967 14.529 10.8967 -8.16366
394 3 12.7129 16.3451 10.8967 -6.44991
395 1 12.7129 14.529 12.7129 -8.19936
396 1 10.8967 16.3451 12.7129 -8.19168
299 2 16.3451 14.529 9.08061 -7.06789
300 1 14.529 16.3451 9.08061 -8.08162
397 2 14.529 14.529 10.8967 -7.04519
398 1 16.3451 16.3451 10.8967 -8.05196
399 2 16.3451 14.529 12.7129 -7.18065
400 2 14.529 16.3451 12.7129 -7.06195
401 3 0 0 14.529 -6.5089
402 3 1.81612 1.81612 14.529 -6.39757
403 3 1.81612 0 16.3451 -6.41766
404 2 0 1.81612 16.3451 -7.06189
405 1 3.63225 0 14.529 -8.08823
406 1 5.44837 1.81612 14.529 -8.00896
407 3 5.44837 0 16.3451 -6.29898
408 3 3.63225 1.81612 16.3451 -6.27826
409 3 7.26449 0 14.529 -6.52417
410 2 9.08061 1.81612 14.529 -7.04618
411 2 9.08061 0 16.3451 -7.08139
412 3 7.26449 1.81612 16.3451 -6.46619
413 2 10.8967 0 14.529 -7.09462
414 1 12.7129 1.81612 14.529 -8.13853
415 1 12.7129 0 16.3451 -7.92917
416 3 10.8967 1.81612 16.3451 -6.51054
417 1 14.529 0 14.529 -8.10884
418 3 16.3451 1.81612 14.529 -6.44054
419 1 16.3451 0 16.3451 -8.21091
420 2 14.529 1.81612 16.3451 -7.138
421 2 0 3.63225 14.529 -7.02879
422 3 1.81612 5.44837 14.529 -6.31038
423 1 1.81612 3.63225 16.3451 -8.34879
424 3 0 5.44837 16.3451 -6.4079
425 1 3.63225 3.63225 14.529 -7.98985
426 3 5.44837 5.44837 14.529 -6.14925
427 1 5.44837 3.63225 16.3451 -8.13519
428 2 3.63225 5.44837 16.3451 -7.03099
429 1 7.26449 3.63225 14.529 -7.97377
430 1 9.08061 5.44837 14.529 -8.00477
431 3 9.08061 3.63225 16.3451 -6.44173
432 3 7.26449 5.44837 16.3451 -6.31806
433 3 10.8967 3.63225 14.529 -6.47475
434 2 12.7129 5.44837 14.529 -7.07073
435 3 12.7129 3.63225 16.3451 -6.54257
436 1 10.8967 5.44837 16.3451 -8.10654
437 2 14.529 3.63225 14.529 -7.13285
438 2 16.3451 5.44837 14.529 -7.08371
439 2 16.3451 3.63225 16.3451 -7.12856
440 2 14.529 5.44837 16.3451 -7.16508
441 1 0 7.26449 14.529 -8.09248
442 1 1.81612 9.08061 14.529 -8.07832
443 1 1.81612 7.26449 16.3451 -7.98529
444 3 0 9.08061 16.3451 -6.31058
445 1 3.63225 7.26449 14.529 -7.94925
446 1 5.44837 9.08061 14.529 -8.05386
447 1 5.44837 7.26449 16.3451 -7.97049
448 3 3.63225 9.08061 16.3451 -6.18733
449 1 7.26449 7.26449 14.529 -8.0052
450 3 9.08061 9.08061 14.529 -6.44666
451 2 9.08061 7.26449 16.3451 -7.08033
452 2 7.26449 9.08061 16.3451 -7.04099
453 2 10.8967 7.26449 14.529 -6.95513
454 3 12.7129 9.08061 14.529 -6.39869
455 3 12.7129 7.26449 16.3451 -6.41979
456 1 10.8967 9.08061 16.3451 -8.09949
457 1 14.529 7.26449 14.529 -8.15102
458 2 16.3451 9.08061 14.529 -7.16555
459 1 16.3451 7.26449 16.3451 -7.92247
460 2 14.529 9.08061 16.3451 -7.04143
461 3 0 10.8967 14.529 -6.36593
462 2 1.81612 12.7129 14.529 -6.87572
463 1 1.81612 10.8967 16.3451 -8.10996
464 3 0 12.7129 16.3451 -6.45337
465 3 3.63225 10.8967 14.529 -6.35847
466 2 5.44837 12.7129 14.529 -6.99264
467 3 5.44837 10.8967 16.3451 -6.38632
468 1 3.63225 12.7129 16.3451 -8.30056
469 2 7.26449 10.8967 14.529 -7.02659
470 1 9.08061 12.7129 14.529 -8.28595
471 2 9.08061 10.8967 16.3451 -7.05812
472 1 7.26449 12.7129 16.3451 -8.29399
473 2 10.8967 10.8967 14.529 -7.07375
474 2 12.7129 12.7129 14.529 -7.12196
475 1 12.7129 10.8967 16.3451 -8.08378
476 2 10.8967 12.7129 16.3451 -7.03203
477 1 14.529 10.8967 14.529 -8.04193
478 2 16.3451 12.7129 14.529 -7.16201
479 1 16.3451 10.8967 16.3451 -8.12441
480 2 14.529 12.7129 16.3451 -7.124
481 1 0 14.529 14.529 -8.22773
482 3 1.81612 16.3451 14.529 -6.256
483 3 1.81612 14.529 16.3451 -6.37039
484 1 0 16.3451 16.3451 -8.13066
485 3 3.63225 14.529 14.529 -6.37102
486 1 5.44837 16.3451 14.529 -8.21306
487 2 5.44837 14.529 16.3451 -7.03785
488 1 3.63225 16.3451 16.3451 -8.21764
489 2 7.26449 14.529 14.529 -7.08575
490 1 9.08061 16.3451 14.529 -8.13633
491 3 9.08061 14.529 16.3451 -6.38529
492 2 7.26449 16.3451 16.3451 -7.00131
493 3 10.8967 14.529 14.529 -6.46488
494 3 12.7129 16.3451 14.529 -6.52548
495 3 12.7129 14.529 16.3451 -6.57969
496 1 10.8967 16.3451 16.3451 -8.13204
497 2 14.529 14.529 14.529 -7.14523
498 3 16.3451 16.3451 14.529 -6.60985
499 2 16.3451 14.529 16.3451 -7.09984
500 2 14.529 16.3451 16.3451 -6.94704
501 2 0 0 18.1612 -6.9636
502 3 1.81612 1.81612 18.1612 -6.53075
503 3 1.81612 0 19.9774 -6.46323
504 3 0 1.81612 19.9774 -6.56425
601 3 0 0 21.7935 -6.48445
602 3 1.81612 1.81612 21.7935 -6.63875
505 1 3.63225 0 18.1612 -8.28212
506 3 5.44837 1.81612 18.1612 -6.34202
507 1 5.44837 0 19.9774 -8.01266
508 2 3.63225 1.81612 19.9774 -6.84319
605 3 3.63225 0 21.7935 -6.50334
606 1 5.44837 1.81612 21.7935 -8.14093
509 3 7.26449 0 18.1612 -6.40883
510 2 9.08061 1.81612 18.1612 -6.99066
511 3 9.08061 0 19.9774 -6.44701
512 1 7.26449 1.81612 19.9774 -8.20296
609 2 7.26449 0 21.7935 -6.95266
610 3 9.08061 1.81612 21.7935 -6.40087
513 2 10.8967 0 18.1612 -7.07304
514 1 12.7129 1.81612 18.1612 -8.00489
515 1 12.7129 0 19.9774 -7.98675
516 2 10.8967 1.81612 19.9774 -7.05588
613 3 10.8967 0 21.7935 -6.43194
614 2 12.7129 1.81612 21.7935 -7.09489
517 2 14.529 0 18.1612 -7.16584
518 1 16.3451 1.81612 18.1612 -7.92835
519 1 16.3451 0 19.9774 -7.93645
520 1 14.529 1.81612 19.9774 -7.9934
617 2 14.529 0 21.7935 -7.14694
618 2 16.3451 1.81612 21.7935 -7.10431
521 3 0 3.63225 18.1612 -6.57256
522 2 1.81612 5.44837 18.1612 -7.01159
523 3 1.81612 3.63225 19.9774 -6.55174
524 1 0 5.44837 19.9774 -8.1782
621 2 0 3.63225 21.7935 -6.98318
622 2 1.81612 5.44837 21.7935 -7.04153
525 3 3.63225 3.63225 18.1612 -6.44604
526 1 5.44837 5.44837 18.1612 -8.11493
527 3 5.44837 3.63225 19.9774 -6.38058
528 1 3.63225 5.44837 19.9774 -8.27939
625 3 3.63225 3.63225 21.7935 -6.5096
626 3 5.44837 5.44837 21.7935 -6.44373
529 3 7.26449 3.63225 18.1612 -6.4215
530 2 9.08061 5.44837 18.1612 -6.97609
531 1 9.08061 3.63225 19.9774 -7.99731
532 2 7.26449 5.44837 19.9774 -6.99188
629 1 7.26449 3.63225 21.7935 -8.11444
630 1 9.08061 5.44837 21.7935 -8.15079
533 1 10.8967 3.63225 18.1612 -8.10714
534 2 12.7129 5.44837 18.1612 -6.97725
535 2 12.7129 3.63225 19.9774 -7.11233
536 3 10.8967 5.44837 19.9774 -6.36744
633 1 10.8967 3.63225 21.7935 -8.27945
634 3 12.7129 5.44837 21.7935 -6.45035
537 2 14.529 3.63225 18.1612 -7.07325
538 1 16.3451 5.44837 18.1612 -7.94044
539 3 16.3451 3.63225 19.9774 -6.35875
540 1 14.529 5.44837 19.9774 -8.09923
637 2 14.529 3.63225 21.7935 -7.09756
638 1 16.3451 5.44837 21.7935 -8.14727
541 1 0 7.26449 18.1612 -8.00138
542 1 1.81612 9.08061 18.1612 -7.98425
543 2 1.81612 7.26449 19.9774 -7.16481
544 2 0 9.08061 19.9774 -7.06925
641 3 0 7.26449 21.7935 -6.54257
642 2 1.81612 9.08061 21.7935 -7.14655
545 1 3.63225 7.26449 18.1612 -7.88778
546 1 5.44837 9.08061 18.1612 -8.10754
547 3 5.44837 7.26449 19.9774 -6.41686
548 1 3.63225 9.08061 19.9774 -7.93062
645 2 3.63225 7.26449 21.7935 -7.04554
646 1 5.44837 9.08061 21.7935 -8.07785
549 2 7.26449 7.26449 18.1612 -7.01029
550 1 9.08061 9.08061 18.1612 -8.07663
551 3 9.08061 7.26449 19.9774 -6.40832
552 3 7.26449 9.08061 19.9774 -6.38871
649 2 7.26449 7.26449 21.7935 -6.92923
650 3 9.08061 9.08061 21.7935 -6.41489
553 1 10.8967 7.26449 18.1612 -8.10832
554 1 12.7129 9.08061 18.1612 -8.03417
555 3 12.7129 7.26449 19.9774 -6.33697
556 1 10.8967 9.08061 19.9774 -8.03402
653 1 10.8967 7.26449 21.7935 -8.34899
654 3 12.7129 9.08061 21.7935 -6.40157
557 1 14.529 7.26449 18.1612 -8.0233
558 2 16.3451 9.08061 18.1612 -7.01362
559 1 16.3451 7.26449 19.9774 -7.99355
560 3 14.529 9.08061 19.9774 -6.416
657 2 14.529 7.26449 21.7935 -6.93267
658 2 16.3451 9.08061 21.7935 -6.99317
561 2 0 10.8967 18.1612 -7.01116
562 2 1.81612 12.7129 18.1612 -6.98415
563 2 1.81612 10.8967 19.9774 -7.0973
564 3 0 12.7129 19.9774 -6.6231
661 1 0 10.8967 21.7935 -8.25247
662 3 1.81612 12.7129 21.7935 -6.56985
565 1 3.63225 10.8967 18.1612 -8.03392
566 3 5.44837 12.7129 18.1612 -6.44603
567 3 5.44837 10.8967 19.9774 -6.41322
568 2 3.63225 12.7129 19.9774 -6.95281
665 1 3.63225 10.8967 21.7935 -8.06859
666 3 5.44837 12.7129 21.7935 -6.49731
569 3 7.26449 10.8967 18.1612 -6.44945
570 3 9.08061 12.7129 18.1612 -6.51552
571 1 9.08061 10.8967 19.9774 -8.17169
572 2 7.26449 12.7129 19.9774 -6.97558
669 3 7.26449 10.8967 21.7935 -6.37346
670 1 9.08061 12.7129 21.7935 -8.17121
573 2 10.8967 10.8967 18.1612 -7.04926
574 2 12.7129 12.7129 18.1612 -6.98831
575 3 12.7129 10.8967 19.9774 -6.4182
576 3 10.8967 12.7129 19.9774 -6.44932
673 2 10.8967 10.8967 21.7935 -6.9315
674 1 12.7129 12.7129 21.7935 -8.12169
577 3 14.529 10.8967 18.1612 -6.44499
578 3 16.3451 12.7129 18.1612 -6.44176
579 1 16.3451 10.8967 19.9774 -8.22675
580 3 14.529 12.7129 19.9774 -6.33776
677 3 14.529 10.8967 21.7935 -6.33763
678 1 16.3451 12.7129 21.7935 -8.07586
581 3 0 14.529 18.1612 -6.43858
582 3 1.81612 16.3451 18.1612 -6.32885
583 1 1.81612 14.529 19.9774 -8.32263
584 3 0 16.3451 19.9774 -6.542
681 2 0 14.529 21.7935 -7.11217
682 2 1.81612 16.3451 21.7935 -7.08629
585 3 3.63225 14.529 18.1612 -6.42019
586 1 5.44837 16.3451 18.1612 -8.02362
587 3 5.44837 14.529 19.9774 -6.54881
588 1 3.63225 16.3451 19.9774 -8.23031
685 2 3.63225 14.529 21.7935 -7.04131
686 2 5.44837 16.3451 21.7935 -7.12511
589 1 7.26449 14.529 18.1612 -8.12765
590 1 9.08061 16.3451 18.1612 -7.95007
591 2 9.08061 14.529 19.9774 -7.03626
592 2 7.26449 16.3451 19.9774 -7.07072
689 2 7.26449 14.529 21.7935 -7.11193
690 1 9.08061 16.3451 21.7935 -8.18574
593 1 10.8967 14.529 18.1612 -8.18318
594 3 12.7129 16.3451 18.1612 -6.3192
595 1 12.7129 14.529 19.9774 -8.10783
596 3 10.8967 16.3451 19.9774 -6.31746
693 2 10.8967 14.529 21.7935 -7.02366
694 3 12.7129 16.3451 21.7935 -6.34153
597 3 14.529 14.529 18.1612 -6.49645
598 3 16.3451 16.3451 18.1612 -6.53775
599 1 16.3451 14.529 19.9774 -8.15797
600 1 14.529 16.3451 19.9774 -8.03439
697 1 14.529 14.529 21.7935 -7.90969
698 2 16.3451 16.3451 21.7935 -7.11687
603 2 1.81612 0 23.6096 -7.01093
604 3 0 1.81612 23.6096 -6.59365
701 3 0 0 25.4257 -6.67573
702 3 1.81612 1.81612 25.4257 -6.69272
607 2 5.44837 0 23.6096 -6.97579
608 2 3.63225 1.81612 23.6096 -6.9734
703 3 3.63225 0 25.4257 -6.70331
704 3 5.44837 1.81612 25.4257 -6.46783
611 3 9.08061 0 23.6096 -6.39515
612 1 7.26449 1.81612 23.6096 -8.27969
705 3 7.26449 0 25.4257 -6.41259
706 3 9.08061 1.81612 25.4257 -6.35101
615 1 12.7129 0 23.6096 -8.00113
616 3 10.8967 1.81612 23.6096 -6.36419
707 1 10.8967 0 25.4257 -8.16264
708 3 12.7129 1.81612 25.4257 -6.32229
619 2 16.3451 0 23.6096 -7.09066
620 1 14.529 1.81612 23.6096 -8.13331
709 1 14.529 0 25.4257 -7.98088
710 2 16.3451 1.81612 25.4257 -7.09608
623 2 1.81612 3.63225 23.6096 -7.09254
624 1 0 5.44837 23.6096 -8.27305
711 2 0 3.63225 25.4257 -6.94783
712 2 1.81612 5.44837 25.4257 -7.08921
627 3 5.44837 3.63225 23.6096 -6.29539
628 1 3.63225 5.44837 23.6096 -8.15042
713 1 3.63225 3.63225 25.4257 -8.17885
714 1 5.44837 5.44837 25.4257 -7.94328
631 3 9.08061 3.63225 23.6096 -6.26654
632 3 7.26449 5.44837 23.6096 -6.28974
715 1 7.26449 3.63225 25.4257 -8.09676
716 1 9.08061 5.44837 25.4257 -8.16137
635 2 12.7129 3.63225 23.6096 -7.04392
636 2 10.8967 5.44837 23.6096 -6.92957
717 1 10.8967 3.63225 25.4257 -8.23772
718 1 12.7129 5.44837 25.4257 -8.13835
639 2 16.3451 3.63225 23.6096 -7.14887
640 1 14.529 5.44837 23.6096 -8.21532
719 2 14.529 3.63225 25.4257 -7.05511
720 2 16.3451 5.44837 25.4257 -7.06511
643 2 1.81612 7.26449 23.6096 -7.12074
644 1 0 9.08061 23.6096 -8.22429
721 2 0 7.26449 25.4257 -6.99365
722 3 1.81612 9.08061 25.4257 -6.34508
647 2 5.44837 7.26449 23.6096 -7.16593
648 1 3.63225 9.08061 23.6096 -7.95333
723 1 3.63225 7.26449 25.4257 -7.92066
724 1 5.44837 9.08061 25.4257 -7.86233
651 3 9.08061 7.26449 23.6096 -6.40255
652 1 7.26449 9.08061 23.6096 -8.11817
725 1 7.26449 7.26449 25.4257 -8.02273
726 2 9.08061 9.08061 25.4257 -6.98931
655 3 12.7129 7.26449 23.6096 -6.45495
656 3 10.8967 9.08061 23.6096 -6.49419
727 3 10.8967 7.26449 25.4257 -6.55614
728 3 12.7129 9.08061 25.4257 -6.55646
659 3 16.3451 7.26449 23.6096 -6.54587
660 1 14.529 9.08061 23.6096 -8.32986
729 3 14.529 7.26449 25.4257 -6.5333
730 2 16.3451 9.08061 25.4257 -6.96567
663 2 1.81612 10.8967 23.6096 -7.01991
664 2 0 12.7129 23.6096 -7.02117
731 1 0 10.8967 25.4257 -8.23209
732 3 1.81612 12.7129 25.4257 -6.51833
667 2 5.44837 10.8967 23.6096 -7.08042
668 1 3.63225 12.7129 23.6096 -8.11659
733 1 3.63225 10.8967 25.4257 -8.02758
734 2 5.44837 12.7129 25.4257 -7.13555
671 3 9.08061 10.8967 23.6096 -6.46514
672 1 7.26449 12.7129 23.6096 -8.06341
735 1 7.26449 10.8967 25.4257 -8.00167
736 3 9.08061 12.7129 25.4257 -6.50847
675 1 12.7129 10.8967 23.6096 -8.18042
676 2 10.8967 12.7129 23.6096 -7.03226
737 3 10.8967 10.8967 25.4257 -6.63875
738 2 12.7129 12.7129 25.4257 -7.03913
679 3 16.3451 10.8967 23.6096 -6.44171
680 1 14.529 12.7129 23.6096 -7.90076
739 2 14.529 10.8967 25.4257 -7.01373
740 1 16.3451 12.7129 25.4257 -8.01167
683 2 1.81612 14.529 23.6096 -7.11103
684 3 0 16.3451 23.6096 -6.57238
741 1 0 14.529 25.4257 -8.27998
742 1 1.81612 16.3451 25.4257 -8.06715
687 1 5.44837 14.529 23.6096 -8.10989
688 2 3.63225 16.3451 23.6096 -7.10961
743 2 3.63225 14.529 25.4257 -7.02356
744 3 5.44837 16.3451 25.4257 -6.5807
691 2 9.08061 14.529 23.6096 -7.05549
692 2 7.26449 16.3451 23.6096 -7.08513
745 1 7.26449 14.529 25.4257 -8.10907
746 1 9.08061 16.3451 25.4257 -7.86291
695 1 12.7129 14.529 23.6096 -8.02415
696 1 10.8967 16.3451 23.6096 -7.99903
747 1 10.8967 14.529 25.4257 -8.13045
748 2 12.7129 16.3451 25.4257 -7.07637
699 1 16.3451 14.529 23.6096 -7.95405
700 3 14.529 16.3451 23.6096 -6.49725
749 3 14.529 14.529 25.4257 -6.43082
750 1 16.3451 16.3451 25.4257 -8.08348
751 2 1.81612 0 27.2418 -7.15034
752 3 0 1.81612 27.2418 -6.67202
801 2 0 0 29.058 -7.16271
802 2 1.81612 1.81612 29.058 -7.08242
803 2 1.81612 0 30.8741 -7.03677
804 3 0 1.81612 30.8741 -6.63473
753 3 5.44837 0 27.2418 -6.47444
754 2 3.63225 1.81612 27.2418 -6.96304
805 3 3.63225 0 29.058 -6.5974
806 1 5.44837 1.81612 29.058 -8.20243
807 1 5.44837 0 30.8741 -8.11364
808 3 3.63225 1.81612 30.8741 -6.52475
755 1 9.08061 0 27.2418 -8.19081
756 1 7.26449 1.81612 27.2418 -8.17798
809 2 7.26449 0 29.058 -6.99324
810 3 9.08061 1.81612 29.058 -6.57208
811 1 9.08061 0 30.8741 -8.27377
812 3 7.26449 1.81612 30.8741 -6.49673
757 1 12.7129 0 27.2418 -8.02911
758 3 10.8967 1.81612 27.2418 -6.36119
813 3 10.8967 0 29.058 -6.44791
814 3 12.7129 1.81612 29.058 -6.5043
815 2 12.7129 0 30.8741 -7.02366
816 2 10.8967 1.81612 30.8741 -7.13543
759 1 16.3451 0 27.2418 -7.91304
760 3 14.529 1.81612 27.2418 -6.40391
817 1 14.529 0 29.058 -8.05948
818 1 16.3451 1.81612 29.058 -8.15954
819 2 16.3451 0 30.8741 -7.04329
820 3 14.529 1.81612 30.8741 -6.4584
761 3 1.81612 3.63225 27.2418 -6.47362
762 1 0 5.44837 27.2418 -8.14674
821 1 0 3.63225 29.058 -8.33473
822 3 1.81612 5.44837 29.058 -6.36661
823 2 1.81612 3.63225 30.8741 -6.91304
824 3 0 5.44837 30.8741 -6.42609
763 3 5.44837 3.63225 27.2418 -6.3731
764 1 3.63225 5.44837 27.2418 -7.9842
825 3 3.63225 3.63225 29.058 -6.52768
826 1 5.44837 5.44837 29.058 -8.21071
827 2 5.44837 3.63225 30.8741 -7.05732
828 2 3.63225 5.44837 30.8741 -7.00194
765 2 9.08061 3.63225 27.2418 -7.05154
766 2 7.26449 5.44837 27.2418 -7.08613
829 2 7.26449 3.63225 29.058 -7.1135
830 2 9.08061 5.44837 29.058 -7.16377
831 2 9.08061 3.63225 30.8741 -7.14946
832 2 7.26449 5.44837 30.8741 -7.13847
767 1 12.7129 3.63225 27.2418 -8.19636
768 3 10.8967 5.44837 27.2418 -6.47854
833 2 10.8967 3.63225 29.058 -7.09039
834 1 12.7129 5.44837 29.058 -7.98406
835 2 12.7129 3.63225 30.8741 -7.05081
836 2 10.8967 5.44837 30.8741 -7.06937
769 3 16.3451 3.63225 27.2418 -6.60462
770 2 14.529 5.44837 27.2418 -7.07802
837 2 14.529 3.63225 29.058 -6.99622