ITEM: TIMESTEP
0
ITEM: NUMBER OF ATOMS
4000
ITEM: BOX BOUNDS pp pp pp
0.0000000000000000e+00 3.6167240000000000e+01
0.0000000000000000e+00 3.6167240000000000e+01
0.0000000000000000e+00 3.6167240000000000e+01
ITEM: ATOMS id type x y z c_peratom
1 2 0 0 0 -7.02274
2 3 1.80836 1.80836 0 -6.45937
3 1 1.80836 0 1.80836 -8.23188
4 2 0 1.80836 1.80836 -7.03393
101 2 0 0 3.61672 -7.03718
102 2 1.80836 1.80836 3.61672 -7.11966
5 3 3.61672 0 0 -6.39627
6 3 5.42509 1.80836 0 -6.40757
7 3 5.42509 0 1.80836 -6.3658
8 1 3.61672 1.80836 1.80836 -8.35604
105 3 3.61672 0 3.61672 -6.36278
106 3 5.42509 1.80836 3.61672 -6.36873
9 1 7.23345 0 0 -8.29071
10 1 9.04181 1.80836 0 -8.08603
11 1 9.04181 0 1.80836 -8.0677
12 1 7.23345 1.80836 1.80836 -8.17588
109 2 7.23345 0 3.61672 -7.03611
110 2 9.04181 1.80836 3.61672 -7.0403
13 2 10.8502 0 0 -7.04853
14 2 12.6585 1.80836 0 -7.11482
15 2 12.6585 0 1.80836 -7.06038
16 3 10.8502 1.80836 1.80836 -6.45451
113 1 10.8502 0 3.61672 -8.1259
114 3 12.6585 1.80836 3.61672 -6.43983
17 2 14.4669 0 0 -7.07143
18 1 16.2753 1.80836 0 -8.17476
19 2 16.2753 0 1.80836 -7.18521
20 1 14.4669 1.80836 1.80836 -8.2361
117 3 14.4669 0 3.61672 -6.66916
118 2 16.2753 1.80836 3.61672 -7.0777
21 1 0 3.61672 0 -8.28799
22 3 1.80836 5.42509 0 -6.42788
23 2 1.80836 3.61672 1.80836 -6.97585
24 1 0 5.42509 1.80836 -8.3048
121 3 0 3.61672 3.61672 -6.57949
122 2 1.80836 5.42509 3.61672 -7.01819
25 2 3.61672 3.61672 0 -7.01048
26 1 5.42509 5.42509 0 -8.07957
27 1 5.42509 3.61672 1.80836 -8.04226
28 1 3.61672 5.42509 1.80836 -8.2533
125 2 3.61672 3.61672 3.61672 -7.07147
126 1 5.42509 5.42509 3.61672 -8.16806
29 3 7.23345 3.61672 0 -6.23297
30 3 9.04181 5.42509 0 -6.28314
31 1 9.04181 3.61672 1.80836 -8.15604
32 1 7.23345 5.42509 1.80836 -8.14792
129 3 7.23345 3.61672 3.61672 -6.28284
130 3 9.04181 5.42509 3.61672 -6.37177
33 3 10.8502 3.61672 0 -6.47718
34 3 12.6585 5.42509 0 -6.58568
35 3 12.6585 3.61672 1.80836 -6.55053
36 2 10.8502 5.42509 1.80836 -6.89323
133 1 10.8502 3.61672 3.61672 -8.18101
134 2 12.6585 5.42509 3.61672 -6.99018
37 2 14.4669 3.61672 0 -6.93275
38 3 16.2753 5.42509 0 -6.51303
39 3 16.2753 3.61672 1.80836 -6.44696
40 2 14.4669 5.42509 1.80836 -7.00567
137 1 14.4669 3.61672 3.61672 -8.2816
138 3 16.2753 5.42509 3.61672 -6.48207
41 1 0 7.23345 0 -8.1067
42 1 1.80836 9.04181 0 -8.22832
43 3 1.80836 7.23345 1.80836 -6.41787
44 3 0 9.04181 1.80836 -6.29426
141 2 0 7.23345 3.61672 -7.00644
142 1 1.80836 9.04181 3.61672 -8.36049
45 2 3.61672 7.23345 0 -7.06504
46 1 5.42509 9.04181 0 -8.23497
47 2 5.42509 7.23345 1.80836 -6.92931
48 3 3.61672 9.04181 1.80836 -6.36926
145 3 3.61672 7.23345 3.61672 -6.34644
146 1 5.42509 9.04181 3.61672 -8.42421
49 3 7.23345 7.23345 0 -6.37026
50 2 9.04181 9.04181 0 -7.00122
51 1 9.04181 7.23345 1.80836 -8.3621
52 2 7.23345 9.04181 1.80836 -6.92194
149 3 7.23345 7.23345 3.61672 -6.41718
150 1 9.04181 9.04181 3.61672 -8.18903
53 3 10.8502 7.23345 0 -6.55472
54 2 12.6585 9.04181 0 -7.07309
55 3 12.6585 7.23345 1.80836 -6.71125
56 2 10.8502 9.04181 1.80836 -6.91168
153 3 10.8502 7.23345 3.61672 -6.49193
154 3 12.6585 9.04181 3.61672 -6.52406
57 2 14.4669 7.23345 0 -7.01585
58 3 16.2753 9.04181 0 -6.51435
59 2 16.2753 7.23345 1.80836 -7.06117
60 2 14.4669 9.04181 1.80836 -7.04888
157 3 14.4669 7.23345 3.61672 -6.60951
158 2 16.2753 9.04181 3.61672 -7.08462
61 2 0 10.8502 0 -6.93531
62 3 1.80836 12.6585 0 -6.57516
63 3 1.80836 10.8502 1.80836 -6.44292
64 3 0 12.6585 1.80836 -6.49384
161 3 0 10.8502 3.61672 -6.30681
162 1 1.80836 12.6585 3.61672 -8.25708
65 2 3.61672 10.8502 0 -7.0431
66 2 5.42509 12.6585 0 -7.06284
67 1 5.42509 10.8502 1.80836 -8.32274
68 2 3.61672 12.6585 1.80836 -7.09388
165 3 3.61672 10.8502 3.61672 -6.3631
166 2 5.42509 12.6585 3.61672 -6.99432
69 3 7.23345 10.8502 0 -6.55768
70 2 9.04181 12.6585 0 -6.99555
71 1 9.04181 10.8502 1.80836 -8.33428
72 3 7.23345 12.6585 1.80836 -6.37337
169 3 7.23345 10.8502 3.61672 -6.46793
170 3 9.04181 12.6585 3.61672 -6.33564
73 3 10.8502 10.8502 0 -6.50717
74 2 12.6585 12.6585 0 -7.00663
75 3 12.6585 10.8502 1.80836 -6.56844
76 1 10.8502 12.6585 1.80836 -8.19377
173 3 10.8502 10.8502 3.61672 -6.4056
174 2 12.6585 12.6585 3.61672 -6.99922
77 3 14.4669 10.8502 0 -6.58904
78 3 16.2753 12.6585 0 -6.49682
79 3 16.2753 10.8502 1.80836 -6.54229
80 1 14.4669 12.6585 1.80836 -8.32232
177 3 14.4669 10.8502 3.61672 -6.60769
178 2 16.2753 12.6585 3.61672 -7.02745
81 2 0 14.4669 0 -6.98744
82 1 1.80836 16.2753 0 -8.07583
83 2 1.80836 14.4669 1.80836 -6.99302
84 3 0 16.2753 1.80836 -6.35098
181 1 0 14.4669 3.61672 -8.33277
182 1 1.80836 16.2753 3.61672 -8.27598
85 1 3.61672 14.4669 0 -8.17404
86 2 5.42509 16.2753 0 -6.98543
87 1 5.42509 14.4669 1.80836 -8.17504
88 2 3.61672 16.2753 1.80836 -7.08672
185 1 3.61672 14.4669 3.61672 -8.15847
186 2 5.42509 16.2753 3.61672 -7.04617
89 3 7.23345 14.4669 0 -6.54208
90 2 9.04181 16.2753 0 -6.94705
91 1 9.04181 14.4669 1.80836 -8.1892
92 3 7.23345 16.2753 1.80836 -6.44162
189 1 7.23345 14.4669 3.61672 -8.0488
190 3 9.04181 16.2753 3.61672 -6.37389
93 3 10.8502 14.4669 0 -6.2694
94 3 12.6585 16.2753 0 -6.3097
95 1 12.6585 14.4669 1.80836 -8.08883
96 1 10.8502 16.2753 1.80836 -8.07991
193 1 10.8502 14.4669 3.61672 -8.20636
194 2 12.6585 16.2753 3.61672 -7.1151
97 2 14.4669 14.4669 0 -7.07148
98 2 16.2753 16.2753 0 -7.10266
99 2 16.2753 14.4669 1.80836 -7.0715
100 3 14.4669 16.2753 1.80836 -6.34793
197 1 14.4669 14.4669 3.61672 -8.17041
198 2 16.2753 16.2753 3.61672 -7.05858
103 2 1.80836 0 5.42509 -7.01248
104 3 0 1.80836 5.42509 -6.5814
201 1 0 0 7.23345 -8.41925
202 3 1.80836 1.80836 7.23345 -6.46986
107 1 5.42509 0 5.42509 -8.27345
108 2 3.61672 1.80836 5.42509 -6.9889
203 2 3.61672 0 7.23345 -6.98618
204 3 5.42509 1.80836 7.23345 -6.36353
111 1 9.04181 0 5.42509 -8.18879
112 2 7.23345 1.80836 5.42509 -6.99749
205 2 7.23345 0 7.23345 -7.04116
206 2 9.04181 1.80836 7.23345 -7.05182
115 1 12.6585 0 5.42509 -8.23397
116 2 10.8502 1.80836 5.42509 -7.0549
207 2 10.8502 0 7.23345 -7.03348
208 2 12.6585 1.80836 7.23345 -7.1027
119 2 16.2753 0 5.42509 -7.15939
120 3 14.4669 1.80836 5.42509 -6.59812
209 2 14.4669 0 7.23345 -7.04535
210 3 16.2753 1.80836 7.23345 -6.49311
123 1 1.80836 3.61672 5.42509 -8.3423
124 2 0 5.42509 5.42509 -7.06119
211 2 0 3.61672 7.23345 -7.04281
212 2 1.80836 5.42509 7.23345 -6.98939
127 1 5.42509 3.61672 5.42509 -8.23178
128 3 3.61672 5.42509 5.42509 -6.36477
213 1 3.61672 3.61672 7.23345 -8.07035
214 1 5.42509 5.42509 7.23345 -8.20108
131 1 9.04181 3.61672 5.42509 -8.33462
132 2 7.23345 5.42509 5.42509 -6.90938
215 3 7.23345 3.61672 7.23345 -6.33483
216 3 9.04181 5.42509 7.23345 -6.4615
135 2 12.6585 3.61672 5.42509 -7.0071
136 1 10.8502 5.42509 5.42509 -8.29822
217 3 10.8502 3.61672 7.23345 -6.51928
218 1 12.6585 5.42509 7.23345 -8.2197
139 2 16.2753 3.61672 5.42509 -6.94726
140 1 14.4669 5.42509 5.42509 -8.22331
219 3 14.4669 3.61672 7.23345 -6.49533
220 3 16.2753 5.42509 7.23345 -6.29621
143 1 1.80836 7.23345 5.42509 -8.22077
144 1 0 9.04181 5.42509 -8.0609
221 2 0 7.23345 7.23345 -7.09481
222 1 1.80836 9.04181 7.23345 -8.04315
147 3 5.42509 7.23345 5.42509 -6.35265
148 2 3.61672 9.04181 5.42509 -6.98361
223 3 3.61672 7.23345 7.23345 -6.25003
224 1 5.42509 9.04181 7.23345 -8.21405
151 2 9.04181 7.23345 5.42509 -6.98565
152 2 7.23345 9.04181 5.42509 -6.97798
225 3 7.23345 7.23345 7.23345 -6.46593
226 3 9.04181 9.04181 7.23345 -6.57605
155 3 12.6585 7.23345 5.42509 -6.42498
156 1 10.8502 9.04181 5.42509 -8.29771
227 2 10.8502 7.23345 7.23345 -7.05048
228 3 12.6585 9.04181 7.23345 -6.47455
159 1 16.2753 7.23345 5.42509 -8.26467
160 3 14.4669 9.04181 5.42509 -6.53957
229 3 14.4669 7.23345 7.23345 -6.37517
230 2 16.2753 9.04181 7.23345 -7.03755
163 1 1.80836 10.8502 5.42509 -8.06919
164 3 0 12.6585 5.42509 -6.23495
231 3 0 10.8502 7.23345 -6.18415
232 1 1.80836 12.6585 7.23345 -8.14317
167 2 5.42509 10.8502 5.42509 -7.02332
168 3 3.61672 12.6585 5.42509 -6.29396
233 1 3.61672 10.8502 7.23345 -8.04236
234 1 5.42509 12.6585 7.23345 -8.19547
171 2 9.04181 10.8502 5.42509 -6.96542
172 1 7.23345 12.6585 5.42509 -8.25725
235 2 7.23345 10.8502 7.23345 -7.00366
236 2 9.04181 12.6585 7.23345 -7.01549
175 1 12.6585 10.8502 5.42509 -8.42508
176 3 10.8502 12.6585 5.42509 -6.49626
237 1 10.8502 10.8502 7.23345 -8.33423
238 3 12.6585 12.6585 7.23345 -6.4126
179 2 16.2753 10.8502 5.42509 -7.07044
180 3 14.4669 12.6585 5.42509 -6.56398
239 3 14.4669 10.8502 7.23345 -6.56569
240 2 16.2753 12.6585 7.23345 -7.03621
183 3 1.80836 14.4669 5.42509 -6.25952
184 1 0 16.2753 5.42509 -8.31865
241 1 0 14.4669 7.23345 -8.16201
242 2 1.80836 16.2753 7.23345 -7.00647
187 2 5.42509 14.4669 5.42509 -7.00917
188 2 3.61672 16.2753 5.42509 -7.03909
243 1 3.61672 14.4669 7.23345 -8.10461
244 3 5.42509 16.2753 7.23345 -6.50203
191 3 9.04181 14.4669 5.42509 -6.51177
192 1 7.23345 16.2753 5.42509 -8.26186
245 3 7.23345 14.4669 7.23345 -6.5265
246 2 9.04181 16.2753 7.23345 -7.10406
195 2 12.6585 14.4669 5.42509 -6.99365
196 2 10.8502 16.2753 5.42509 -7.11429
247 2 10.8502 14.4669 7.23345 -7.03925
248 2 12.6585 16.2753 7.23345 -7.09979
199 3 16.2753 14.4669 5.42509 -6.44854
200 1 14.4669 16.2753 5.42509 -7.87395
249 1 14.4669 14.4669 7.23345 -8.16511
250 2 16.2753 16.2753 7.23345 -7.04639
251 2 1.80836 0 9.04181 -7.09758
252 2 0 1.80836 9.04181 -7.10468
301 1 0 0 10.8502 -7.98533
302 1 1.80836 1.80836 10.8502 -7.87449
303 2 1.80836 0 12.6585 -7.11812
304 1 0 1.80836 12.6585 -7.81112
253 1 5.42509 0 9.04181 -8.15905
254 1 3.61672 1.80836 9.04181 -8.0693
305 1 3.61672 0 10.8502 -8.11721
306 3 5.42509 1.80836 10.8502 -6.32196
307 3 5.42509 0 12.6585 -6.48358
308 2 3.61672 1.80836 12.6585 -6.9801
255 1 9.04181 0 9.04181 -8.24364
256 1 7.23345 1.80836 9.04181 -8.20942
309 2 7.23345 0 10.8502 -7.01348
310 3 9.04181 1.80836 10.8502 -6.40277
311 1 9.04181 0 12.6585 -8.13218
312 2 7.23345 1.80836 12.6585 -6.93427
257 3 12.6585 0 9.04181 -6.66149
258 3 10.8502 1.80836 9.04181 -6.59907
313 2 10.8502 0 10.8502 -7.06223
314 2 12.6585 1.80836 10.8502 -7.07105
315 2 12.6585 0 12.6585 -6.99442
316 1 10.8502 1.80836 12.6585 -8.34545
259 1 16.2753 0 9.04181 -8.18751
260 2 14.4669 1.80836 9.04181 -7.05
317 1 14.4669 0 10.8502 -8.24095
318 2 16.2753 1.80836 10.8502 -6.98533
319 1 16.2753 0 12.6585 -8.39683
320 2 14.4669 1.80836 12.6585 -7.07374
261 1 1.80836 3.61672 9.04181 -8.05399
262 1 0 5.42509 9.04181 -8.00513
321 2 0 3.61672 10.8502 -7.0498
322 2 1.80836 5.42509 10.8502 -7.00252
323 1 1.80836 3.61672 12.6585 -8.04387
324 3 0 5.42509 12.6585 -6.31042
263 3 5.42509 3.61672 9.04181 -6.23024
264 3 3.61672 5.42509 9.04181 -6.23283
325 1 3.61672 3.61672 10.8502 -8.28789
326 3 5.42509 5.42509 10.8502 -6.27398
327 3 5.42509 3.61672 12.6585 -6.30459
328 3 3.61672 5.42509 12.6585 -6.25812
265 1 9.04181 3.61672 9.04181 -8.2677
266 1 7.23345 5.42509 9.04181 -8.25112
329 1 7.23345 3.61672 10.8502 -8.36941
330 3 9.04181 5.42509 10.8502 -6.40423
331 3 9.04181 3.61672 12.6585 -6.52858
332 3 7.23345 5.42509 12.6585 -6.44
267 3 12.6585 3.61672 9.04181 -6.56881
268 2 10.8502 5.42509 9.04181 -6.96785
333 2 10.8502 3.61672 10.8502 -6.93746
334 1 12.6585 5.42509 10.8502 -8.36433
335 3 12.6585 3.61672 12.6585 -6.61765
336 3 10.8502 5.42509 12.6585 -6.56509
269 1 16.2753 3.61672 9.04181 -8.14449
270 1 14.4669 5.42509 9.04181 -8.14841
337 3 14.4669 3.61672 10.8502 -6.49709
338 2 16.2753 5.42509 10.8502 -6.97912
339 1 16.2753 3.61672 12.6585 -8.24775
340 3 14.4669 5.42509 12.6585 -6.41182
271 1 1.80836 7.23345 9.04181 -8.06976
272 1 0 9.04181 9.04181 -7.99399
341 1 0 7.23345 10.8502 -8.06162
342 2 1.80836 9.04181 10.8502 -7.05123
343 1 1.80836 7.23345 12.6585 -8.06746
344 1 0 9.04181 12.6585 -8.071
273 1 5.42509 7.23345 9.04181 -8.12158
274 3 3.61672 9.04181 9.04181 -6.37189
345 1 3.61672 7.23345 10.8502 -8.2746
346 3 5.42509 9.04181 10.8502 -6.4802
347 2 5.42509 7.23345 12.6585 -6.92019
348 3 3.61672 9.04181 12.6585 -6.46944
275 2 9.04181 7.23345 9.04181 -6.9514
276 1 7.23345 9.04181 9.04181 -8.36281
349 3 7.23345 7.23345 10.8502 -6.34028
350 3 9.04181 9.04181 10.8502 -6.41972
351 1 9.04181 7.23345 12.6585 -8.28533
352 1 7.23345 9.04181 12.6585 -8.25964
277 2 12.6585 7.23345 9.04181 -7.03349
278 2 10.8502 9.04181 9.04181 -6.992
353 1 10.8502 7.23345 10.8502 -8.3202
354 2 12.6585 9.04181 10.8502 -6.98991
355 3 12.6585 7.23345 12.6585 -6.49777
356 3 10.8502 9.04181 12.6585 -6.44616
279 1 16.2753 7.23345 9.04181 -8.19493
280 1 14.4669 9.04181 9.04181 -8.42842
357 3 14.4669 7.23345 10.8502 -6.38255
358 3 16.2753 9.04181 10.8502 -6.46192
359 1 16.2753 7.23345 12.6585 -8.18503
360 1 14.4669 9.04181 12.6585 -8.33483
281 2 1.80836 10.8502 9.04181 -6.9981
282 3 0 12.6585 9.04181 -6.30433
361 3 0 10.8502 10.8502 -6.386
362 2 1.80836 12.6585 10.8502 -7.10887
363 1 1.80836 10.8502 12.6585 -8.14863
364 2 0 12.6585 12.6585 -6.9871
283 3 5.42509 10.8502 9.04181 -6.49644
284 2 3.61672 12.6585 9.04181 -7.12169
365 2 3.61672 10.8502 10.8502 -7.12132
366 2 5.42509 12.6585 10.8502 -7.11536
367 2 5.42509 10.8502 12.6585 -7.08779
368 1 3.61672 12.6585 12.6585 -7.97552
285 3 9.04181 10.8502 9.04181 -6.47054
286 3 7.23345 12.6585 9.04181 -6.49801
369 2 7.23345 10.8502 10.8502 -7.00845
370 1 9.04181 12.6585 10.8502 -8.01503
371 1 9.04181 10.8502 12.6585 -8.14405
372 2 7.23345 12.6585 12.6585 -6.97348
287 2 12.6585 10.8502 9.04181 -6.96269
288 2 10.8502 12.6585 9.04181 -7.07912
373 1 10.8502 10.8502 10.8502 -8.13983
374 1 12.6585 12.6585 10.8502 -8.07177
375 1 12.6585 10.8502 12.6585 -8.21573
376 1 10.8502 12.6585 12.6585 -8.08685
289 3 16.2753 10.8502 9.04181 -6.56292
290 3 14.4669 12.6585 9.04181 -6.42698
377 3 14.4669 10.8502 10.8502 -6.4448
378 1 16.2753 12.6585 10.8502 -8.3429
379 2 16.2753 10.8502 12.6585 -6.90592
380 3 14.4669 12.6585 12.6585 -6.42528
291 1 1.80836 14.4669 9.04181 -7.94551
292 2 0 16.2753 9.04181 -6.97422
381 1 0 14.4669 10.8502 -8.09053
382 2 1.80836 16.2753 10.8502 -7.09417
383 1 1.80836 14.4669 12.6585 -7.92264
384 2 0 16.2753 12.6585 -7.08009
293 2 5.42509 14.4669 9.04181 -7.02458
294 1 3.61672 16.2753 9.04181 -8.19343
385 1 3.61672 14.4669 10.8502 -7.95114
386 2 5.42509 16.2753 10.8502 -7.0801
387 2 5.42509 14.4669 12.6585 -7.12379
388 1 3.61672 16.2753 12.6585 -7.99151
295 1 9.04181 14.4669 9.04181 -8.2162
296 3 7.23345 16.2753 9.04181 -6.57791
389 1 7.23345 14.4669 10.8502 -8.25912
390 3 9.04181 16.2753 10.8502 -6.36546
391 3 9.04181 14.4669 12.6585 -6.33043
392 2 7.23345 16.2753 12.6585 -6.99929
297 1 12.6585 14.4669 9.04181 -8.17795
298 3 10.8502 16.2753 9.04181 -6.59642
393 1 10.8502 14.4669 10.8502 -7.97825
394 2 12.6585 16.2753 10.8502 -7.0838
395 2 12.6585 14.4669 12.6585 -6.99369
396 1 10.8502 16.2753 12.6585 -8.08822
299 1 16.2753 14.4669 9.04181 -8.13337
300 3 14.4669 16.2753 9.04181 -6.45875
397 1 14.4669 14.4669 10.8502 -7.9468
398 1 16.2753 16.2753 10.8502 -8.13147
399 2 16.2753 14.4669 12.6585 -6.99692
400 1 14.4669 16.2753 12.6585 -8.05554
401 1 0 0 14.4669 -7.93077
402 1 1.80836 1.80836 14.4669 -7.97481
403 3 1.80836 0 16.2753 -6.34477
404 1 0 1.80836 16.2753 -7.97342
405 1 3.61672 0 14.4669 -8.28804
406 3 5.42509 1.80836 14.4669 -6.51013
407 2 5.42509 0 16.2753 -7.08885
408 3 3.61672 1.80836 16.2753 -6.41939
409 3 7.23345 0 14.4669 -6.62524
410 2 9.04181 1.80836 14.4669 -7.08912
411 3 9.04181 0 16.2753 -6.69694
412 2 7.23345 1.80836 16.2753 -7.18094
413 2 10.8502 0 14.4669 -6.98912
414 3 12.6585 1.80836 14.4669 -6.65426
415 1 12.6585 0 16.2753 -8.30324
416 3 10.8502 1.80836 16.2753 -6.72155
417 2 14.4669 0 14.4669 -6.99542
418 2 16.2753 1.80836 14.4669 -7.05531
419 3 16.2753 0 16.2753 -6.60826
420 2 14.4669 1.80836 16.2753 -7.1217
421 3 0 3.61672 14.4669 -6.15601
422 1 1.80836 5.42509 14.4669 -8.00784
423 2 1.80836 3.61672 16.2753 -7.01056
424 1 0 5.42509 16.2753 -8.11125
425 1 3.61672 3.61672 14.4669 -8.18209
426 1 5.42509 5.42509 14.4669 -8.08462
427 2 5.42509 3.61672 16.2753 -7.05095
428 3 3.61672 5.42509 16.2753 -6.19685
429 1 7.23345 3.61672 14.4669 -8.33172
430 2 9.04181 5.42509 14.4669 -7.0419
431 2 9.04181 3.61672 16.2753 -7.15198
432 1 7.23345 5.42509 16.2753 -8.103
433 2 10.8502 3.61672 14.4669 -7.00708
434 3 12.6585 5.42509 14.4669 -6.57069
435 2 12.6585 3.61672 16.2753 -7.04062
436 1 10.8502 5.42509 16.2753 -8.34662
437 3 14.4669 3.61672 14.4669 -6.59917
438 1 16.2753 5.42509 14.4669 -8.24111
439 2 16.2753 3.61672 16.2753 -7.00635
440 3 14.4669 5.42509 16.2753 -6.49251
441 2 0 7.23345 14.4669 -6.95177
442 3 1.80836 9.04181 14.4669 -6.29248
443 1 1.80836 7.23345 16.2753 -8.0324
444 2 0 9.04181 16.2753 -6.93982
445 1 3.61672 7.23345 14.4669 -8.04967
446 2 5.42509 9.04181 14.4669 -7.05624
447 1 5.42509 7.23345 16.2753 -7.98752
448 1 3.61672 9.04181 16.2753 -8.12656
449 2 7.23345 7.23345 14.4669 -7.02007
450 2 9.04181 9.04181 14.4669 -7.05161
451 3 9.04181 7.23345 16.2753 -6.41008
452 1 7.23345 9.04181 16.2753 -8.3147
453 2 10.8502 7.23345 14.4669 -6.97116
454 2 12.6585 9.04181 14.4669 -6.99427
455 3 12.6585 7.23345 16.2753 -6.52727
456 1 10.8502 9.04181 16.2753 -8.29926
457 3 14.4669 7.23345 14.4669 -6.44199
458 3 16.2753 9.04181 14.4669 -6.48579
459 1 16.2753 7.23345 16.2753 -8.25922
460 3 14.4669 9.04181 16.2753 -6.50249
461 1 0 10.8502 14.4669 -8.26617
462 1 1.80836 12.6585 14.4669 -8.13331
463 3 1.80836 10.8502 16.2753 -6.32904
464 3 0 12.6585 16.2753 -6.41519
465 2 3.61672 10.8502 14.4669 -7.00182
466 1 5.42509 12.6585 14.4669 -8.25907
467 3 5.42509 10.8502 16.2753 -6.38215
468 2 3.61672 12.6585 16.2753 -6.9295
469 3 7.23345 10.8502 14.4669 -6.37537
470 3 9.04181 12.6585 14.4669 -6.32258
471 1 9.04181 10.8502 16.2753 -8.13308
472 1 7.23345 12.6585 16.2753 -8.21977
473 2 10.8502 10.8502 14.4669 -7.02255
474 2 12.6585 12.6585 14.4669 -7.00268
475 2 12.6585 10.8502 16.2753 -6.946
476 3 10.8502 12.6585 16.2753 -6.39942
477 3 14.4669 10.8502 14.4669 -6.47819
478 3 16.2753 12.6585 14.4669 -6.36456
479 3 16.2753 10.8502 16.2753 -6.38788
480 1 14.4669 12.6585 16.2753 -8.1545
481 3 0 14.4669 14.4669 -6.4251
482 1 1.80836 16.2753 14.4669 -8.07066
483 2 1.80836 14.4669 16.2753 -6.94636
484 3 0 16.2753 16.2753 -6.35439
485 2 3.61672 14.4669 14.4669 -7.10904
486 1 5.42509 16.2753 14.4669 -8.27775
487 3 5.42509 14.4669 16.2753 -6.46619
488 2 3.61672 16.2753 16.2753 -7.0332
489 3 7.23345 14.4669 14.4669 -6.36973
490 1 9.04181 16.2753 14.4669 -8.18586
491 1 9.04181 14.4669 16.2753 -8.09148
492 3 7.23345 16.2753 16.2753 -6.29691
493 3 10.8502 14.4669 14.4669 -6.38051
494 3 12.6585 16.2753 14.4669 -6.32818
495 2 12.6585 14.4669 16.2753 -7.02628
496 2 10.8502 16.2753 16.2753 -7.01107
497 1 14.4669 14.4669 14.4669 -8.29316
498 2 16.2753 16.2753 14.4669 -6.8983
499 3 16.2753 14.4669 16.2753 -6.22859
500 3 14.4669 16.2753 16.2753 -6.35228
501 2 0 0 18.0836 -6.98896
502 1 1.80836 1.80836 18.0836 -8.23648
503 3 1.80836 0 19.892 -6.44417
504 3 0 1.80836 19.892 -6.55014
601 1 0 0 21.7003 -8.20153
602 3 1.80836 1.80836 21.7003 -6.44986
505 3 3.61672 0 18.0836 -6.54405
506 2 5.42509 1.80836 18.0836 -7.04416
507 3 5.42509 0 19.892 -6.48638
508 1 3.61672 1.80836 19.892 -8.11262
605 2 3.61672 0 21.7003 -6.99115
606 1 5.42509 1.80836 21.7003 -7.96178
509 2 7.23345 0 18.0836 -7.08144
510 2 9.04181 1.80836 18.0836 -7.15216
511 1 9.04181 0 19.892 -8.03221
512 3 7.23345 1.80836 19.892 -6.50681
609 1 7.23345 0 21.7003 -7.95931
610 2 9.04181 1.80836 21.7003 -7.04969
513 2 10.8502 0 18.0836 -6.98512
514 2 12.6585 1.80836 18.0836 -7.11027
515 1 12.6585 0 19.892 -8.0592
516 3 10.8502 1.80836 19.892 -6.62071
613 1 10.8502 0 21.7003 -8.02636
614 3 12.6585 1.80836 21.7003 -6.60308
517 1 14.4669 0 18.0836 -8.28244
518 2 16.2753 1.80836 18.0836 -7.04793
519 3 16.2753 0 19.892 -6.42911
520 2 14.4669 1.80836 19.892 -7.04187
617 1 14.4669 0 21.7003 -8.18258
618 3 16.2753 1.80836 21.7003 -6.39741
521 2 0 3.61672 18.0836 -7.11391
522 1 1.80836 5.42509 18.0836 -8.15321
523 2 1.80836 3.61672 19.892 -7.06133
524 2 0 5.42509 19.892 -6.97621
621 3 0 3.61672 21.7003 -6.54126
622 1 1.80836 5.42509 21.7003 -8.14429
525 1 3.61672 3.61672 18.0836 -8.04705
526 1 5.42509 5.42509 18.0836 -8.01899
527 1 5.42509 3.61672 19.892 -7.97625
528 1 3.61672 5.42509 19.892 -8.09826
625 2 3.61672 3.61672 21.7003 -7.057
626 2 5.42509 5.42509 21.7003 -7.00819
529 2 7.23345 3.61672 18.0836 -7.08434
530 3 9.04181 5.42509 18.0836 -6.49752
531 3 9.04181 3.61672 19.892 -6.71676
532 1 7.23345 5.42509 19.892 -8.2957
629 2 7.23345 3.61672 21.7003 -7.08955
630 2 9.04181 5.42509 21.7003 -7.09112
533 2 10.8502 3.61672 18.0836 -7.11125
534 3 12.6585 5.42509 18.0836 -6.50502
535 2 12.6585 3.61672 19.892 -7.13523
536 2 10.8502 5.42509 19.892 -7.0409
633 2 10.8502 3.61672 21.7003 -7.20464
634 2 12.6585 5.42509 21.7003 -7.16325
537 1 14.4669 3.61672 18.0836 -8.25115
538 1 16.2753 5.42509 18.0836 -8.1171
539 1 16.2753 3.61672 19.892 -8.1716
540 1 14.4669 5.42509 19.892 -8.1353
637 2 14.4669 3.61672 21.7003 -7.07363
638 2 16.2753 5.42509 21.7003 -7.00387
541 3 0 7.23345 18.0836 -6.30555
542 1 1.80836 9.04181 18.0836 -8.07557
543 3 1.80836 7.23345 19.892 -6.2203
544 3 0 9.04181 19.892 -6.22758
641 1 0 7.23345 21.7003 -8.09746
642 1 1.80836 9.04181 21.7003 -8.07283
545 3 3.61672 7.23345 18.0836 -6.16007
546 3 5.42509 9.04181 18.0836 -6.26191
547 3 5.42509 7.23345 19.892 -6.33014
548 1 3.61672 9.04181 19.892 -8.26317
645 3 3.61672 7.23345 21.7003 -6.32487
646 2 5.42509 9.04181 21.7003 -6.99647
549 2 7.23345 7.23345 18.0836 -6.9221
550 3 9.04181 9.04181 18.0836 -6.38854
551 3 9.04181 7.23345 19.892 -6.56652
552 1 7.23345 9.04181 19.892 -8.57444
649 3 7.23345 7.23345 21.7003 -6.51255
650 2 9.04181 9.04181 21.7003 -6.95991
553 1 10.8502 7.23345 18.0836 -8.39481
554 3 12.6585 9.04181 18.0836 -6.54085
555 3 12.6585 7.23345 19.892 -6.58284
556 2 10.8502 9.04181 19.892 -6.86909
653 3 10.8502 7.23345 21.7003 -6.64042
654 3 12.6585 9.04181 21.7003 -6.63176
557 2 14.4669 7.23345 18.0836 -6.92378
558 1 16.2753 9.04181 18.0836 -8.21541
559 1 16.2753 7.23345 19.892 -8.2155
560 3 14.4669 9.04181 19.892 -6.56146
657 3 14.4669 7.23345 21.7003 -6.57007
658 2 16.2753 9.04181 21.7003 -7.05036
561 1 0 10.8502 18.0836 -8.33971
562 3 1.80836 12.6585 18.0836 -6.44684
563 1 1.80836 10.8502 19.892 -8.08871
564 3 0 12.6585 19.892 -6.31997
661 2 0 10.8502 21.7003 -6.9137
662 3 1.80836 12.6585 21.7003 -6.37994
565 1 3.61672 10.8502 18.0836 -8.24022
566 3 5.42509 12.6585 18.0836 -6.38518
567 3 5.42509 10.8502 19.892 -6.39667
568 1 3.61672 12.6585 19.892 -8.4127
665 2 3.61672 10.8502 21.7003 -7.01832
666 2 5.42509 12.6585 21.7003 -6.96673
569 2 7.23345 10.8502 18.0836 -6.91104
570 1 9.04181 12.6585 18.0836 -7.97642
571 3 9.04181 10.8502 19.892 -6.42147
572 1 7.23345 12.6585 19.892 -8.36321
669 3 7.23345 10.8502 21.7003 -6.51014
670 2 9.04181 12.6585 21.7003 -6.93464
573 3 10.8502 10.8502 18.0836 -6.3893
574 1 12.6585 12.6585 18.0836 -8.17895
575 3 12.6585 10.8502 19.892 -6.53578
576 1 10.8502 12.6585 19.892 -8.14296
673 3 10.8502 10.8502 21.7003 -6.52642
674 2 12.6585 12.6585 21.7003 -7.03554
577 3 14.4669 10.8502 18.0836 -6.45478
578 1 16.2753 12.6585 18.0836 -8.06496
579 2 16.2753 10.8502 19.892 -7.01419
580 2 14.4669 12.6585 19.892 -7.02777
677 3 14.4669 10.8502 21.7003 -6.73359
678 3 16.2753 12.6585 21.7003 -6.51083
581 3 0 14.4669 18.0836 -6.46431
582 1 1.80836 16.2753 18.0836 -8.27816
583 3 1.80836 14.4669 19.892 -6.41694
584 2 0 16.2753 19.892 -6.99793
681 3 0 14.4669 21.7003 -6.34237
682 1 1.80836 16.2753 21.7003 -8.39179
585 3 3.61672 14.4669 18.0836 -6.48657
586 3 5.42509 16.2753 18.0836 -6.39733
587 3 5.42509 14.4669 19.892 -6.3753
588 3 3.61672 16.2753 19.892 -6.35261
685 3 3.61672 14.4669 21.7003 -6.39477
686 1 5.42509 16.2753 21.7003 -8.19498
589 2 7.23345 14.4669 18.0836 -7.00055
590 1 9.04181 16.2753 18.0836 -8.0513
591 1 9.04181 14.4669 19.892 -7.92145
592 1 7.23345 16.2753 19.892 -8.04166
689 3 7.23345 14.4669 21.7003 -6.36821
690 2 9.04181 16.2753 21.7003 -7.00588
593 1 10.8502 14.4669 18.0836 -7.92363
594 1 12.6585 16.2753 18.0836 -8.1071
595 2 12.6585 14.4669 19.892 -7.06589
596 2 10.8502 16.2753 19.892 -7.06983
693 1 10.8502 14.4669 21.7003 -8.19815
694 3 12.6585 16.2753 21.7003 -6.39952
597 1 14.4669 14.4669 18.0836 -7.94233
598 1 16.2753 16.2753 18.0836 -8.27619
599 1 16.2753 14.4669 19.892 -8.06095
600 1 14.4669 16.2753 19.892 -8.10665
697 1 14.4669 14.4669 21.7003 -8.18488
698 1 16.2753 16.2753 21.7003 -8.00965
603 1 1.80836 0 23.5087 -8.10156
604 2 0 1.80836 23.5087 -7.00551
701 1 0 0 25.3171 -8.08877
702 2 1.80836 1.80836 25.3171 -6.98879
607 1 5.42509 0 23.5087 -7.93067
608 1 3.61672 1.80836 23.5087 -8.12302
703 2 3.61672 0 25.3171 -7.03252
704 3 5.42509 1.80836 25.3171 -6.41852
611 1 9.04181 0 23.5087 -7.88905
612 1 7.23345 1.80836 23.5087 -7.99513
705 2 7.23345 0 25.3171 -7.03489
706 1 9.04181 1.80836 25.3171 -8.14276
615 2 12.6585 0 23.5087 -7.04978
616 2 10.8502 1.80836 23.5087 -7.08817
707 3 10.8502 0 25.3171 -6.49452
708 2 12.6585 1.80836 25.3171 -7.09838
619 1 16.2753 0 23.5087 -8.05916
620 3 14.4669 1.80836 23.5087 -6.60079
709 2 14.4669 0 25.3171 -7.1138
710 1 16.2753 1.80836 25.3171 -8.26443
623 1 1.80836 3.61672 23.5087 -8.34139
624 3 0 5.42509 23.5087 -6.38921
711 3 0 3.61672 25.3171 -6.46442
712 3 1.80836 5.42509 25.3171 -6.46973
627 2 5.42509 3.61672 23.5087 -7.00182
628 3 3.61672 5.42509 23.5087 -6.39151
713 3 3.61672 3.61672 25.3171 -6.46237
714 3 5.42509 5.42509 25.3171 -6.48349
631 1 9.04181 3.61672 23.5087 -8.10264
632 2 7.23345 5.42509 23.5087 -7.08293
715 2 7.23345 3.61672 25.3171 -7.089
716 1 9.04181 5.42509 25.3171 -8.07898
635 2 12.6585 3.61672 23.5087 -7.17175
636 2 10.8502 5.42509 23.5087 -7.07737
717 3 10.8502 3.61672 25.3171 -6.53606
718 2 12.6585 5.42509 25.3171 -7.0694
639 2 16.2753 3.61672 23.5087 -6.98606
640 1 14.4669 5.42509 23.5087 -8.221
719 3 14.4669 3.61672 25.3171 -6.5475
720 1 16.2753 5.42509 25.3171 -8.10817
643 1 1.80836 7.23345 23.5087 -8.24114
644 2 0 9.04181 23.5087 -6.98334
721 3 0 7.23345 25.3171 -6.53971
722 3 1.80836 9.04181 25.3171 -6.37685
647 1 5.42509 7.23345 23.5087 -8.3044
648 3 3.61672 9.04181 23.5087 -6.32137
723 1 3.61672 7.23345 25.3171 -8.1632
724 1 5.42509 9.04181 25.3171 -8.0541
651 1 9.04181 7.23345 23.5087 -8.08492
652 2 7.23345 9.04181 23.5087 -7.05234
725 2 7.23345 7.23345 25.3171 -7.04049
726 1 9.04181 9.04181 25.3171 -8.10466
655 2 12.6585 7.23345 23.5087 -7.05042
656 1 10.8502 9.04181 23.5087 -8.21184
727 1 10.8502 7.23345 25.3171 -7.93371
728 2 12.6585 9.04181 25.3171 -7.13193
659 1 16.2753 7.23345 23.5087 -8.3029
660 2 14.4669 9.04181 23.5087 -7.10193
729 2 14.4669 7.23345 25.3171 -7.07622
730 3 16.2753 9.04181 25.3171 -6.47189
663 1 1.80836 10.8502 23.5087 -8.18573
664 1 0 12.6585 23.5087 -8.19746
731 1 0 10.8502 25.3171 -8.27209
732 1 1.80836 12.6585 25.3171 -8.25185
667 2 5.42509 10.8502 23.5087 -6.98157
668 3 3.61672 12.6585 23.5087 -6.42808
733 1 3.61672 10.8502 25.3171 -8.2754
734 3 5.42509 12.6585 25.3171 -6.45835
671 1 9.04181 10.8502 23.5087 -8.15627
672 3 7.23345 12.6585 23.5087 -6.43148
735 1 7.23345 10.8502 25.3171 -8.077
736 1 9.04181 12.6585 25.3171 -7.9872
675 2 12.6585 10.8502 23.5087 -7.06725
676 3 10.8502 12.6585 23.5087 -6.50892
737 2 10.8502 10.8502 25.3171 -7.00671
738 3 12.6585 12.6585 25.3171 -6.51654
679 2 16.2753 10.8502 23.5087 -7.0087
680 2 14.4669 12.6585 23.5087 -7.00927
739 3 14.4669 10.8502 25.3171 -6.52305
740 1 16.2753 12.6585 25.3171 -8.03065
683 3 1.80836 14.4669 23.5087 -6.33559
684 2 0 16.2753 23.5087 -6.99165
741 3 0 14.4669 25.3171 -6.38959
742 1 1.80836 16.2753 25.3171 -8.32238
687 1 5.42509 14.4669 23.5087 -8.44558
688 3 3.61672 16.2753 23.5087 -6.30543
743 3 3.61672 14.4669 25.3171 -6.48826
744 2 5.42509 16.2753 25.3171 -6.98729
691 1 9.04181 14.4669 23.5087 -8.25963
692 2 7.23345 16.2753 23.5087 -7.05795
745 2 7.23345 14.4669 25.3171 -7.00318
746 2 9.04181 16.2753 25.3171 -7.03945
695 3 12.6585 14.4669 23.5087 -6.54838
696 3 10.8502 16.2753 23.5087 -6.45567
747 2 10.8502 14.4669 25.3171 -7.04786
748 2 12.6585 16.2753 25.3171 -7.03014
699 1 16.2753 14.4669 23.5087 -8.09083
700 3 14.4669 16.2753 23.5087 -6.31961
749 3 14.4669 14.4669 25.3171 -6.47176
750 3 16.2753 16.2753 25.3171 -6.31943
751 3 1.80836 0 27.1254 -6.52672
752 1 0 1.80836 27.1254 -8.1911
801 3 0 0 28.9338 -6.40567
802 3 1.80836 1.80836 28.9338 -6.37785
803 1 1.80836 0 30.7422 -8.28557
804 1 0 1.80836 30.7422 -8.22378
753 1 5.42509 0 27.1254 -8.1997
754 3 3.61672 1.80836 27.1254 -6.47087
805 2 3.61672 0 28.9338 -6.99312
806 3 5.42509 1.80836 28.9338 -6.36611
807 2 5.42509 0 30.7422 -6.96451
808 3 3.61672 1.80836 30.7422 -6.45023
755 1 9.04181 0 27.1254 -8.14478
756 2 7.23345 1.80836 27.1254 -7.04368
809 1 7.23345 0 28.9338 -8.22391
810 2 9.04181 1.80836 28.9338 -6.9645
811 3 9.04181 0 30.7422 -6.41681
812 3 7.23345 1.80836 30.7422 -6.41856
757 2 12.6585 0 27.1254 -7.03183
758 3 10.8502 1.80836 27.1254 -6.56889
813 3 10.8502 0 28.9338 -6.48885
814 3 12.6585 1.80836 28.9338 -6.55143
815 1 12.6585 0 30.7422 -8.2533
816 2 10.8502 1.80836 30.7422 -6.9912
759 3 16.2753 0 27.1254 -6.64015
760 3 14.4669 1.80836 27.1254 -6.55943
817 3 14.4669 0 28.9338 -6.60244
818 3 16.2753 1.80836 28.9338 -6.4313
819 1 16.2753 0 30.7422 -8.43325
820 2 14.4669 1.80836 30.7422 -6.90234
761 3 1.80836 3.61672 27.1254 -6.49582
762 2 0 5.42509 27.1254 -7.00262
821 1 0 3.61672 28.9338 -8.09089
822 2 1.80836 5.42509 28.9338 -7.06246
823 3 1.80836 3.61672 30.7422 -6.33306
824 1 0 5.42509 30.7422 -8.36283
763 1 5.42509 3.61672 27.1254 -8.28091
764 2 3.61672 5.42509 27.1254 -7.00974
825 1 3.61672 3.61672 28.9338 -8.25077
826 2 5.42509 5.42509 28.9338 -7.04981
827 1 5.42509 3.61672 30.7422 -8.04174
828 1 3.61672 5.42509 30.7422 -8.07405
765 3 9.04181 3.61672 27.1254 -6.47133
766 2 7.23345 5.42509 27.1254 -7.06252
829 1 7.23345 3.61672 28.9338 -8.21462
830 1 9.04181 5.42509 28.9338 -8.21956
831 3 9.04181 3.61672 30.7422 -6.45807
832 2 7.23345 5.42509 30.7422 -7.02858
767 3 12.6585 3.61672 27.1254 -6.57949
768 1 10.8502 5.42509 27.1254 -8.14399
833 2 10.8502 3.61672 28.9338 -6.97494
834 2 12.6585 5.42509 28.9338 -7.01966
835 3 12.6585 3.61672 30.7422 -6.38543