ITEM: TIMESTEP
0
ITEM: NUMBER OF ATOMS
4000
ITEM: BOX BOUNDS pp pp pp
0.0000000000000000e+00 3.5966380000000001e+01
0.0000000000000000e+00 3.5966380000000001e+01
0.0000000000000000e+00 3.5966380000000001e+01
ITEM: ATOMS id type x y z c_peratom
1 1 0 0 0 -8.0767
2 1 1.79832 1.79832 0 -8.1899
3 2 1.79832 0 1.79832 -7.09839
4 1 0 1.79832 1.79832 -7.98561
101 1 0 0 3.59664 -8.32469
102 1 1.79832 1.79832 3.59664 -8.21727
5 1 3.59664 0 0 -8.14569
6 1 5.39496 1.79832 0 -8.19417
7 2 5.39496 0 1.79832 -6.98994
8 2 3.59664 1.79832 1.79832 -6.97876
105 3 3.59664 0 3.59664 -6.46943
106 3 5.39496 1.79832 3.59664 -6.33882
9 3 7.19328 0 0 -6.26877
10 1 8.9916 1.79832 0 -8.42931
11 2 8.9916 0 1.79832 -7.02421
12 1 7.19328 1.79832 1.79832 -8.17489
109 1 7.19328 0 3.59664 -8.04973
110 2 8.9916 1.79832 3.59664 -7.06502
13 2 10.7899 0 0 -6.9509
14 3 12.5882 1.79832 0 -6.34884
15 1 12.5882 0 1.79832 -8.22755
16 1 10.7899 1.79832 1.79832 -8.00883
113 1 10.7899 0 3.59664 -8.2246
114 1 12.5882 1.79832 3.59664 -8.10179
17 1 14.3866 0 0 -8.20156
18 1 16.1849 1.79832 0 -8.13509
19 2 16.1849 0 1.79832 -7.06402
20 2 14.3866 1.79832 1.79832 -7.05962
117 2 14.3866 0 3.59664 -7.08678
118 2 16.1849 1.79832 3.59664 -7.02095
21 2 0 3.59664 0 -7.0335
22 1 1.79832 5.39496 0 -8.19013
23 3 1.79832 3.59664 1.79832 -6.2215
24 2 0 5.39496 1.79832 -6.95883
121 1 0 3.59664 3.59664 -8.13502
122 1 1.79832 5.39496 3.59664 -8.10377
25 1 3.59664 3.59664 0 -8.21308
26 2 5.39496 5.39496 0 -6.9265
27 1 5.39496 3.59664 1.79832 -8.32126
28 2 3.59664 5.39496 1.79832 -6.97953
125 3 3.59664 3.59664 3.59664 -6.39732
126 2 5.39496 5.39496 3.59664 -7.0024
29 3 7.19328 3.59664 0 -6.43904
30 2 8.9916 5.39496 0 -7.05878
31 2 8.9916 3.59664 1.79832 -7.04693
32 2 7.19328 5.39496 1.79832 -7.07157
129 3 7.19328 3.59664 3.59664 -6.40628
130 2 8.9916 5.39496 3.59664 -7.12008
33 2 10.7899 3.59664 0 -6.9634
34 1 12.5882 5.39496 0 -8.15632
35 1 12.5882 3.59664 1.79832 -8.26089
36 3 10.7899 5.39496 1.79832 -6.50907
133 1 10.7899 3.59664 3.59664 -8.11871
134 3 12.5882 5.39496 3.59664 -6.27923
37 2 14.3866 3.59664 0 -7.01409
38 1 16.1849 5.39496 0 -8.3805
39 2 16.1849 3.59664 1.79832 -7.05109
40 3 14.3866 5.39496 1.79832 -6.38202
137 3 14.3866 3.59664 3.59664 -6.37608
138 3 16.1849 5.39496 3.59664 -6.40944
41 3 0 7.19328 0 -6.3517
42 3 1.79832 8.9916 0 -6.48527
43 1 1.79832 7.19328 1.79832 -8.12524
44 3 0 8.9916 1.79832 -6.51004
141 2 0 7.19328 3.59664 -7.03653
142 2 1.79832 8.9916 3.59664 -7.07355
45 1 3.59664 7.19328 0 -8.3261
46 3 5.39496 8.9916 0 -6.41191
47 3 5.39496 7.19328 1.79832 -6.56187
48 1 3.59664 8.9916 1.79832 -8.27451
145 1 3.59664 7.19328 3.59664 -8.18222
146 2 5.39496 8.9916 3.59664 -7.04766
49 3 7.19328 7.19328 0 -6.57447
50 3 8.9916 8.9916 0 -6.53032
51 2 8.9916 7.19328 1.79832 -7.1701
52 2 7.19328 8.9916 1.79832 -7.07534
149 3 7.19328 7.19328 3.59664 -6.67346
150 2 8.9916 8.9916 3.59664 -7.07859
53 2 10.7899 7.19328 0 -6.97421
54 3 12.5882 8.9916 0 -6.3942
55 1 12.5882 7.19328 1.79832 -8.38501
56 2 10.7899 8.9916 1.79832 -7.05622
153 2 10.7899 7.19328 3.59664 -7.03185
154 2 12.5882 8.9916 3.59664 -6.99102
57 2 14.3866 7.19328 0 -6.91091
58 1 16.1849 8.9916 0 -8.48443
59 3 16.1849 7.19328 1.79832 -6.4251
60 3 14.3866 8.9916 1.79832 -6.45014
157 1 14.3866 7.19328 3.59664 -8.46955
158 2 16.1849 8.9916 3.59664 -6.98747
61 3 0 10.7899 0 -6.3998
62 3 1.79832 12.5882 0 -6.34607
63 2 1.79832 10.7899 1.79832 -6.96715
64 1 0 12.5882 1.79832 -8.23558
161 2 0 10.7899 3.59664 -7.04673
162 1 1.79832 12.5882 3.59664 -8.18144
65 1 3.59664 10.7899 0 -8.43181
66 2 5.39496 12.5882 0 -7.00645
67 3 5.39496 10.7899 1.79832 -6.47395
68 1 3.59664 12.5882 1.79832 -8.20096
165 2 3.59664 10.7899 3.59664 -7.02499
166 3 5.39496 12.5882 3.59664 -6.41733
69 2 7.19328 10.7899 0 -6.93217
70 3 8.9916 12.5882 0 -6.40499
71 2 8.9916 10.7899 1.79832 -6.96667
72 3 7.19328 12.5882 1.79832 -6.42318
169 1 7.19328 10.7899 3.59664 -8.47125
170 3 8.9916 12.5882 3.59664 -6.42459
73 1 10.7899 10.7899 0 -8.54498
74 3 12.5882 12.5882 0 -6.2973
75 1 12.5882 10.7899 1.79832 -8.38513
76 1 10.7899 12.5882 1.79832 -8.57882
173 3 10.7899 10.7899 3.59664 -6.57779
174 3 12.5882 12.5882 3.59664 -6.40974
77 3 14.3866 10.7899 0 -6.32881
78 3 16.1849 12.5882 0 -6.27287
79 3 16.1849 10.7899 1.79832 -6.3801
80 1 14.3866 12.5882 1.79832 -8.37737
177 3 14.3866 10.7899 3.59664 -6.52386
178 1 16.1849 12.5882 3.59664 -8.31022
81 2 0 14.3866 0 -6.90382
82 3 1.79832 16.1849 0 -6.44596
83 1 1.79832 14.3866 1.79832 -8.23329
84 2 0 16.1849 1.79832 -6.90435
181 3 0 14.3866 3.59664 -6.24172
182 1 1.79832 16.1849 3.59664 -8.14229
85 3 3.59664 14.3866 0 -6.46626
86 2 5.39496 16.1849 0 -7.08158
87 1 5.39496 14.3866 1.79832 -8.16223
88 2 3.59664 16.1849 1.79832 -6.97649
185 2 3.59664 14.3866 3.59664 -7.06383
186 1 5.39496 16.1849 3.59664 -8.07897
89 1 7.19328 14.3866 0 -8.35323
90 3 8.9916 16.1849 0 -6.50576
91 3 8.9916 14.3866 1.79832 -6.38767
92 2 7.19328 16.1849 1.79832 -7.00488
189 1 7.19328 14.3866 3.59664 -8.31801
190 2 8.9916 16.1849 3.59664 -6.97922
93 3 10.7899 14.3866 0 -6.4689
94 3 12.5882 16.1849 0 -6.52853
95 3 12.5882 14.3866 1.79832 -6.29253
96 1 10.7899 16.1849 1.79832 -8.49906
193 3 10.7899 14.3866 3.59664 -6.42846
194 1 12.5882 16.1849 3.59664 -8.29116
97 3 14.3866 14.3866 0 -6.28338
98 1 16.1849 16.1849 0 -8.32282
99 1 16.1849 14.3866 1.79832 -8.26489
100 3 14.3866 16.1849 1.79832 -6.30845
197 1 14.3866 14.3866 3.59664 -8.23163
198 2 16.1849 16.1849 3.59664 -6.92632
103 3 1.79832 0 5.39496 -6.3214
104 3 0 1.79832 5.39496 -6.4351
201 1 0 0 7.19328 -8.58255
202 3 1.79832 1.79832 7.19328 -6.36691
107 3 5.39496 0 5.39496 -6.2445
108 1 3.59664 1.79832 5.39496 -8.41791
203 1 3.59664 0 7.19328 -8.2781
204 2 5.39496 1.79832 7.19328 -7.00971
111 1 8.9916 0 5.39496 -8.05339
112 1 7.19328 1.79832 5.39496 -8.11626
205 1 7.19328 0 7.19328 -7.9909
206 1 8.9916 1.79832 7.19328 -7.9314
115 2 12.5882 0 5.39496 -6.95638
116 2 10.7899 1.79832 5.39496 -7.1037
207 2 10.7899 0 7.19328 -7.02172
208 1 12.5882 1.79832 7.19328 -8.35611
119 3 16.1849 0 5.39496 -6.57199
120 3 14.3866 1.79832 5.39496 -6.44299
209 3 14.3866 0 7.19328 -6.44174
210 3 16.1849 1.79832 7.19328 -6.36965
123 2 1.79832 3.59664 5.39496 -7.00088
124 1 0 5.39496 5.39496 -8.29656
211 2 0 3.59664 7.19328 -6.94875
212 3 1.79832 5.39496 7.19328 -6.51132
127 2 5.39496 3.59664 5.39496 -6.94358
128 1 3.59664 5.39496 5.39496 -8.44501
213 2 3.59664 3.59664 7.19328 -6.91865
214 3 5.39496 5.39496 7.19328 -6.36392
131 1 8.9916 3.59664 5.39496 -8.11423
132 1 7.19328 5.39496 5.39496 -8.25743
215 1 7.19328 3.59664 7.19328 -8.03056
216 3 8.9916 5.39496 7.19328 -6.26082
135 1 12.5882 3.59664 5.39496 -8.37404
136 2 10.7899 5.39496 5.39496 -6.94937
217 2 10.7899 3.59664 7.19328 -7.03335
218 3 12.5882 5.39496 7.19328 -6.29552
139 1 16.1849 3.59664 5.39496 -8.54652
140 3 14.3866 5.39496 5.39496 -6.33307
219 3 14.3866 3.59664 7.19328 -6.25807
220 2 16.1849 5.39496 7.19328 -7.02224
143 3 1.79832 7.19328 5.39496 -6.55583
144 2 0 8.9916 5.39496 -7.07513
221 2 0 7.19328 7.19328 -6.99584
222 2 1.79832 8.9916 7.19328 -7.06567
147 3 5.39496 7.19328 5.39496 -6.48844
148 2 3.59664 8.9916 5.39496 -7.07042
223 3 3.59664 7.19328 7.19328 -6.61997
224 2 5.39496 8.9916 7.19328 -7.02469
151 1 8.9916 7.19328 5.39496 -8.28622
152 2 7.19328 8.9916 5.39496 -6.96397
225 1 7.19328 7.19328 7.19328 -8.12412
226 1 8.9916 8.9916 7.19328 -8.45886
155 1 12.5882 7.19328 5.39496 -8.37577
156 3 10.7899 8.9916 5.39496 -6.53143
227 3 10.7899 7.19328 7.19328 -6.47272
228 2 12.5882 8.9916 7.19328 -7.03252
159 3 16.1849 7.19328 5.39496 -6.63344
160 2 14.3866 8.9916 5.39496 -7.04853
229 1 14.3866 7.19328 7.19328 -8.30041
230 2 16.1849 8.9916 7.19328 -7.17384
163 1 1.79832 10.7899 5.39496 -8.15828
164 3 0 12.5882 5.39496 -6.27483
231 1 0 10.7899 7.19328 -8.37206
232 1 1.79832 12.5882 7.19328 -8.26467
167 1 5.39496 10.7899 5.39496 -8.37043
168 2 3.59664 12.5882 5.39496 -7.06393
233 2 3.59664 10.7899 7.19328 -7.02326
234 3 5.39496 12.5882 7.19328 -6.43813
171 3 8.9916 10.7899 5.39496 -6.56284
172 2 7.19328 12.5882 5.39496 -6.90977
235 3 7.19328 10.7899 7.19328 -6.53718
236 3 8.9916 12.5882 7.19328 -6.47722
175 3 12.5882 10.7899 5.39496 -6.61654
176 3 10.7899 12.5882 5.39496 -6.52695
237 3 10.7899 10.7899 7.19328 -6.5795
238 3 12.5882 12.5882 7.19328 -6.54218
179 2 16.1849 10.7899 5.39496 -7.15337
180 2 14.3866 12.5882 5.39496 -6.95169
239 1 14.3866 10.7899 7.19328 -8.36332
240 2 16.1849 12.5882 7.19328 -7.12163
183 3 1.79832 14.3866 5.39496 -6.28962
184 1 0 16.1849 5.39496 -8.40099
241 3 0 14.3866 7.19328 -6.31133
242 1 1.79832 16.1849 7.19328 -8.27066
187 2 5.39496 14.3866 5.39496 -6.9961
188 1 3.59664 16.1849 5.39496 -8.09697
243 2 3.59664 14.3866 7.19328 -7.05292
244 2 5.39496 16.1849 7.19328 -7.01978
191 1 8.9916 14.3866 5.39496 -8.41817
192 3 7.19328 16.1849 5.39496 -6.32478
245 1 7.19328 14.3866 7.19328 -8.3424
246 2 8.9916 16.1849 7.19328 -7.045
195 3 12.5882 14.3866 5.39496 -6.56389
196 2 10.7899 16.1849 5.39496 -7.01244
247 3 10.7899 14.3866 7.19328 -6.61871
248 2 12.5882 16.1849 7.19328 -7.0324
199 2 16.1849 14.3866 5.39496 -7.12289
200 2 14.3866 16.1849 5.39496 -7.08919
249 3 14.3866 14.3866 7.19328 -6.71594
250 2 16.1849 16.1849 7.19328 -7.11967
251 3 1.79832 0 8.9916 -6.30301
252 2 0 1.79832 8.9916 -6.94315
301 1 0 0 10.7899 -8.34398
302 1 1.79832 1.79832 10.7899 -8.11275
303 2 1.79832 0 12.5882 -6.97479
304 3 0 1.79832 12.5882 -6.2959
253 1 5.39496 0 8.9916 -8.114
254 1 3.59664 1.79832 8.9916 -8.08621
305 3 3.59664 0 10.7899 -6.34889
306 1 5.39496 1.79832 10.7899 -8.22807
307 3 5.39496 0 12.5882 -6.41414
308 3 3.59664 1.79832 12.5882 -6.41564
255 1 8.9916 0 8.9916 -8.25382
256 1 7.19328 1.79832 8.9916 -7.99133
309 3 7.19328 0 10.7899 -6.26399
310 1 8.9916 1.79832 10.7899 -8.14374
311 1 8.9916 0 12.5882 -8.22772
312 1 7.19328 1.79832 12.5882 -8.32927
257 2 12.5882 0 8.9916 -6.93904
258 2 10.7899 1.79832 8.9916 -7.03276
313 2 10.7899 0 10.7899 -7.01547
314 1 12.5882 1.79832 10.7899 -8.19501
315 1 12.5882 0 12.5882 -8.33253
316 2 10.7899 1.79832 12.5882 -6.95838
259 1 16.1849 0 8.9916 -8.541
260 3 14.3866 1.79832 8.9916 -6.23999
317 3 14.3866 0 10.7899 -6.33652
318 1 16.1849 1.79832 10.7899 -8.25682
319 2 16.1849 0 12.5882 -6.95866
320 2 14.3866 1.79832 12.5882 -7.00101
261 1 1.79832 3.59664 8.9916 -8.22233
262 3 0 5.39496 8.9916 -6.41063
321 1 0 3.59664 10.7899 -8.34631
322 1 1.79832 5.39496 10.7899 -8.14447
323 1 1.79832 3.59664 12.5882 -8.1206
324 3 0 5.39496 12.5882 -6.42957
263 3 5.39496 3.59664 8.9916 -6.24328
264 3 3.59664 5.39496 8.9916 -6.48465
325 1 3.59664 3.59664 10.7899 -8.11297
326 2 5.39496 5.39496 10.7899 -6.99438
327 2 5.39496 3.59664 12.5882 -7.06186
328 2 3.59664 5.39496 12.5882 -7.10943
265 1 8.9916 3.59664 8.9916 -8.03988
266 1 7.19328 5.39496 8.9916 -8.19688
329 3 7.19328 3.59664 10.7899 -6.27547
330 2 8.9916 5.39496 10.7899 -6.97736
331 3 8.9916 3.59664 12.5882 -6.42152
332 1 7.19328 5.39496 12.5882 -8.28646
267 1 12.5882 3.59664 8.9916 -8.10428
268 1 10.7899 5.39496 8.9916 -8.45151
333 3 10.7899 3.59664 10.7899 -6.3153
334 2 12.5882 5.39496 10.7899 -7.02596
335 1 12.5882 3.59664 12.5882 -8.12586
336 3 10.7899 5.39496 12.5882 -6.49173
269 1 16.1849 3.59664 8.9916 -8.33771
270 1 14.3866 5.39496 8.9916 -8.07586
337 1 14.3866 3.59664 10.7899 -7.8818
338 2 16.1849 5.39496 10.7899 -7.04904
339 2 16.1849 3.59664 12.5882 -6.94934
340 1 14.3866 5.39496 12.5882 -7.9889
271 3 1.79832 7.19328 8.9916 -6.54333
272 2 0 8.9916 8.9916 -6.92425
341 1 0 7.19328 10.7899 -8.43627
342 3 1.79832 8.9916 10.7899 -6.44301
343 1 1.79832 7.19328 12.5882 -8.20873
344 2 0 8.9916 12.5882 -6.94264
273 2 5.39496 7.19328 8.9916 -7.0281
274 3 3.59664 8.9916 8.9916 -6.53435
345 3 3.59664 7.19328 10.7899 -6.44711
346 1 5.39496 8.9916 10.7899 -8.14892
347 2 5.39496 7.19328 12.5882 -7.13848
348 1 3.59664 8.9916 12.5882 -8.22897
275 2 8.9916 7.19328 8.9916 -7.01755
276 2 7.19328 8.9916 8.9916 -7.00818
349 1 7.19328 7.19328 10.7899 -7.97133
350 1 8.9916 8.9916 10.7899 -8.19133
351 2 8.9916 7.19328 12.5882 -7.11369
352 1 7.19328 8.9916 12.5882 -7.97315
277 3 12.5882 7.19328 8.9916 -6.48533
278 2 10.7899 8.9916 8.9916 -7.0122
353 3 10.7899 7.19328 10.7899 -6.53557
354 2 12.5882 8.9916 10.7899 -7.09858
355 1 12.5882 7.19328 12.5882 -8.32779
356 2 10.7899 8.9916 12.5882 -7.07006
279 2 16.1849 7.19328 8.9916 -7.12824
280 2 14.3866 8.9916 8.9916 -7.01288
357 1 14.3866 7.19328 10.7899 -8.03582
358 2 16.1849 8.9916 10.7899 -7.14622
359 1 16.1849 7.19328 12.5882 -8.34062
360 1 14.3866 8.9916 12.5882 -8.20476
281 3 1.79832 10.7899 8.9916 -6.47163
282 3 0 12.5882 8.9916 -6.29062
361 1 0 10.7899 10.7899 -8.51252
362 2 1.79832 12.5882 10.7899 -6.91612
363 3 1.79832 10.7899 12.5882 -6.37464
364 2 0 12.5882 12.5882 -6.98498
283 1 5.39496 10.7899 8.9916 -8.23459
284 1 3.59664 12.5882 8.9916 -8.20609
365 3 3.59664 10.7899 10.7899 -6.34353
366 2 5.39496 12.5882 10.7899 -7.02385
367 3 5.39496 10.7899 12.5882 -6.27824
368 1 3.59664 12.5882 12.5882 -8.40453
285 3 8.9916 10.7899 8.9916 -6.45733
286 2 7.19328 12.5882 8.9916 -6.96841
369 1 7.19328 10.7899 10.7899 -8.14001
370 2 8.9916 12.5882 10.7899 -7.06043
371 2 8.9916 10.7899 12.5882 -7.16681
372 2 7.19328 12.5882 12.5882 -7.03917
287 2 12.5882 10.7899 8.9916 -7.06906
288 1 10.7899 12.5882 8.9916 -8.55267
373 1 10.7899 10.7899 10.7899 -8.17436
374 2 12.5882 12.5882 10.7899 -7.03562
375 2 12.5882 10.7899 12.5882 -7.09032
376 2 10.7899 12.5882 12.5882 -7.14469
289 3 16.1849 10.7899 8.9916 -6.6443
290 1 14.3866 12.5882 8.9916 -8.39125
377 1 14.3866 10.7899 10.7899 -8.15601
378 3 16.1849 12.5882 10.7899 -6.53403
379 2 16.1849 10.7899 12.5882 -7.01887
380 1 14.3866 12.5882 12.5882 -8.27388
291 1 1.79832 14.3866 8.9916 -8.26216
292 2 0 16.1849 8.9916 -7.00563
381 3 0 14.3866 10.7899 -6.47202
382 2 1.79832 16.1849 10.7899 -6.98554
383 1 1.79832 14.3866 12.5882 -8.38953
384 2 0 16.1849 12.5882 -7.0326
293 1 5.39496 14.3866 8.9916 -8.19439
294 3 3.59664 16.1849 8.9916 -6.43669
385 3 3.59664 14.3866 10.7899 -6.36361
386 2 5.39496 16.1849 10.7899 -7.08166
387 1 5.39496 14.3866 12.5882 -8.2167
388 2 3.59664 16.1849 12.5882 -6.88662
295 3 8.9916 14.3866 8.9916 -6.58011
296 2 7.19328 16.1849 8.9916 -7.07878
389 1 7.19328 14.3866 10.7899 -8.17115
390 2 8.9916 16.1849 10.7899 -7.08765
391 2 8.9916 14.3866 12.5882 -7.13013
392 1 7.19328 16.1849 12.5882 -8.20118
297 2 12.5882 14.3866 8.9916 -6.99044
298 2 10.7899 16.1849 8.9916 -7.02996
393 3 10.7899 14.3866 10.7899 -6.67488
394 1 12.5882 16.1849 10.7899 -8.59363
395 2 12.5882 14.3866 12.5882 -6.97002
396 3 10.7899 16.1849 12.5882 -6.54797
299 3 16.1849 14.3866 8.9916 -6.72913
300 3 14.3866 16.1849 8.9916 -6.62691
397 3 14.3866 14.3866 10.7899 -6.57817
398 2 16.1849 16.1849 10.7899 -7.0807
399 2 16.1849 14.3866 12.5882 -7.08214
400 3 14.3866 16.1849 12.5882 -6.56876
401 1 0 0 14.3866 -8.48438
402 3 1.79832 1.79832 14.3866 -6.31852
403 1 1.79832 0 16.1849 -8.22697
404 3 0 1.79832 16.1849 -6.30198
405 2 3.59664 0 14.3866 -7.0572
406 2 5.39496 1.79832 14.3866 -7.0308
407 2 5.39496 0 16.1849 -7.04743
408 3 3.59664 1.79832 16.1849 -6.46963
409 3 7.19328 0 14.3866 -6.32268
410 3 8.9916 1.79832 14.3866 -6.3331
411 2 8.9916 0 16.1849 -7.02548
412 1 7.19328 1.79832 16.1849 -8.52621
413 1 10.7899 0 14.3866 -8.25096
414 3 12.5882 1.79832 14.3866 -6.29112
415 2 12.5882 0 16.1849 -7.02383
416 1 10.7899 1.79832 16.1849 -8.34027
417 3 14.3866 0 14.3866 -6.44456
418 3 16.1849 1.79832 14.3866 -6.4685
419 3 16.1849 0 16.1849 -6.33125
420 1 14.3866 1.79832 16.1849 -8.58373
421 1 0 3.59664 14.3866 -8.41887
422 2 1.79832 5.39496 14.3866 -7.04141
423 3 1.79832 3.59664 16.1849 -6.37971
424 1 0 5.39496 16.1849 -8.34165
425 1 3.59664 3.59664 14.3866 -8.48812
426 2 5.39496 5.39496 14.3866 -7.09762
427 2 5.39496 3.59664 16.1849 -7.05948
428 3 3.59664 5.39496 16.1849 -6.65569
429 2 7.19328 3.59664 14.3866 -6.99189
430 2 8.9916 5.39496 14.3866 -6.94374
431 3 8.9916 3.59664 16.1849 -6.39351
432 3 7.19328 5.39496 16.1849 -6.63333
433 1 10.7899 3.59664 14.3866 -8.27865
434 2 12.5882 5.39496 14.3866 -6.99453
435 3 12.5882 3.59664 16.1849 -6.35745
436 1 10.7899 5.39496 16.1849 -8.24296
437 1 14.3866 3.59664 14.3866 -8.28739
438 2 16.1849 5.39496 14.3866 -6.96533
439 3 16.1849 3.59664 16.1849 -6.40448
440 3 14.3866 5.39496 16.1849 -6.48158
441 2 0 7.19328 14.3866 -7.0456
442 2 1.79832 8.9916 14.3866 -7.01904
443 2 1.79832 7.19328 16.1849 -7.11633
444 1 0 8.9916 16.1849 -8.425
445 2 3.59664 7.19328 14.3866 -7.10675
446 1 5.39496 8.9916 14.3866 -8.11561
447 3 5.39496 7.19328 16.1849 -6.58531
448 2 3.59664 8.9916 16.1849 -6.93726
449 1 7.19328 7.19328 14.3866 -8.14208
450 1 8.9916 8.9916 14.3866 -8.1837
451 2 8.9916 7.19328 16.1849 -7.0279
452 1 7.19328 8.9916 16.1849 -8.23229
453 3 10.7899 7.19328 14.3866 -6.55856
454 2 12.5882 8.9916 14.3866 -7.06593
455 2 12.5882 7.19328 16.1849 -7.04412
456 3 10.7899 8.9916 16.1849 -6.56215
457 3 14.3866 7.19328 14.3866 -6.46108
458 3 16.1849 8.9916 14.3866 -6.41176
459 1 16.1849 7.19328 16.1849 -8.32802
460 2 14.3866 8.9916 16.1849 -7.06465
461 1 0 10.7899 14.3866 -8.45204
462 3 1.79832 12.5882 14.3866 -6.34054
463 3 1.79832 10.7899 16.1849 -6.32404
464 2 0 12.5882 16.1849 -6.9805
465 1 3.59664 10.7899 14.3866 -8.25454
466 3 5.39496 12.5882 14.3866 -6.35766
467 3 5.39496 10.7899 16.1849 -6.40398
468 1 3.59664 12.5882 16.1849 -8.3585
469 2 7.19328 10.7899 14.3866 -7.00652
470 2 8.9916 12.5882 14.3866 -7.13148
471 2 8.9916 10.7899 16.1849 -7.12324
472 3 7.19328 12.5882 16.1849 -6.63339
473 1 10.7899 10.7899 14.3866 -8.16593
474 1 12.5882 12.5882 14.3866 -8.32435
475 2 12.5882 10.7899 16.1849 -7.13366
476 2 10.7899 12.5882 16.1849 -7.17832
477 3 14.3866 10.7899 14.3866 -6.59992
478 2 16.1849 12.5882 14.3866 -7.04106
479 2 16.1849 10.7899 16.1849 -7.11203
480 3 14.3866 12.5882 16.1849 -6.63063
481 1 0 14.3866 14.3866 -8.36566
482 3 1.79832 16.1849 14.3866 -6.39289
483 2 1.79832 14.3866 16.1849 -7.0018
484 3 0 16.1849 16.1849 -6.44908
485 3 3.59664 14.3866 14.3866 -6.42918
486 3 5.39496 16.1849 14.3866 -6.4421
487 3 5.39496 14.3866 16.1849 -6.51249
488 3 3.59664 16.1849 16.1849 -6.61268
489 1 7.19328 14.3866 14.3866 -8.36405
490 2 8.9916 16.1849 14.3866 -6.98951
491 2 8.9916 14.3866 16.1849 -7.07935
492 3 7.19328 16.1849 16.1849 -6.5997
493 3 10.7899 14.3866 14.3866 -6.68802
494 1 12.5882 16.1849 14.3866 -8.53572
495 2 12.5882 14.3866 16.1849 -7.06485
496 3 10.7899 16.1849 16.1849 -6.65252
497 2 14.3866 14.3866 14.3866 -7.05508
498 3 16.1849 16.1849 14.3866 -6.68194
499 3 16.1849 14.3866 16.1849 -6.53598
500 3 14.3866 16.1849 16.1849 -6.67961
501 1 0 0 17.9832 -8.13595
502 1 1.79832 1.79832 17.9832 -8.12075
503 1 1.79832 0 19.7815 -8.06618
504 3 0 1.79832 19.7815 -6.21113
601 3 0 0 21.5798 -6.25373
602 1 1.79832 1.79832 21.5798 -8.25141
505 2 3.59664 0 17.9832 -7.06442
506 3 5.39496 1.79832 17.9832 -6.47502
507 2 5.39496 0 19.7815 -6.97676
508 1 3.59664 1.79832 19.7815 -8.02449
605 2 3.59664 0 21.5798 -7.03247
606 1 5.39496 1.79832 21.5798 -8.27399
509 2 7.19328 0 17.9832 -7.01224
510 2 8.9916 1.79832 17.9832 -6.91427
511 3 8.9916 0 19.7815 -6.26744
512 1 7.19328 1.79832 19.7815 -8.42999
609 3 7.19328 0 21.5798 -6.40818
610 3 8.9916 1.79832 21.5798 -6.44845
513 1 10.7899 0 17.9832 -8.05794
514 2 12.5882 1.79832 17.9832 -6.95801
515 2 12.5882 0 19.7815 -7.02418
516 1 10.7899 1.79832 19.7815 -8.40551
613 2 10.7899 0 21.5798 -6.96858
614 3 12.5882 1.79832 21.5798 -6.26271
517 3 14.3866 0 17.9832 -6.26885
518 3 16.1849 1.79832 17.9832 -6.26663
519 3 16.1849 0 19.7815 -6.18546
520 1 14.3866 1.79832 19.7815 -8.42261
617 3 14.3866 0 21.5798 -6.17461
618 1 16.1849 1.79832 21.5798 -8.012
521 3 0 3.59664 17.9832 -6.35721
522 2 1.79832 5.39496 17.9832 -6.98967
523 1 1.79832 3.59664 19.7815 -8.25796
524 2 0 5.39496 19.7815 -6.99542
621 2 0 3.59664 21.5798 -6.93999
622 3 1.79832 5.39496 21.5798 -6.50511
525 1 3.59664 3.59664 17.9832 -8.33243
526 2 5.39496 5.39496 17.9832 -7.10053
527 2 5.39496 3.59664 19.7815 -7.04743
528 2 3.59664 5.39496 19.7815 -7.02487
625 2 3.59664 3.59664 21.5798 -6.95579
626 1 5.39496 5.39496 21.5798 -8.4205
529 3 7.19328 3.59664 17.9832 -6.54423
530 1 8.9916 5.39496 17.9832 -8.39762
531 3 8.9916 3.59664 19.7815 -6.30453
532 2 7.19328 5.39496 19.7815 -6.94686
629 1 7.19328 3.59664 21.5798 -8.32737
630 3 8.9916 5.39496 21.5798 -6.45973
533 3 10.7899 3.59664 17.9832 -6.33584
534 2 12.5882 5.39496 17.9832 -6.96365
535 2 12.5882 3.59664 19.7815 -7.00346
536 1 10.7899 5.39496 19.7815 -8.14639
633 1 10.7899 3.59664 21.5798 -8.29042
634 1 12.5882 5.39496 21.5798 -8.07689
537 3 14.3866 3.59664 17.9832 -6.35314
538 1 16.1849 5.39496 17.9832 -8.42346
539 1 16.1849 3.59664 19.7815 -8.12754
540 1 14.3866 5.39496 19.7815 -8.14218
637 1 14.3866 3.59664 21.5798 -8.01268
638 2 16.1849 5.39496 21.5798 -6.99041
541 3 0 7.19328 17.9832 -6.40087
542 1 1.79832 8.9916 17.9832 -8.40726
543 3 1.79832 7.19328 19.7815 -6.54169
544 3 0 8.9916 19.7815 -6.38137
641 2 0 7.19328 21.5798 -6.96533
642 1 1.79832 8.9916 21.5798 -8.43504
545 2 3.59664 7.19328 17.9832 -7.04689
546 3 5.39496 8.9916 17.9832 -6.57099
547 3 5.39496 7.19328 19.7815 -6.54099
548 3 3.59664 8.9916 19.7815 -6.4705
645 1 3.59664 7.19328 21.5798 -8.52101
646 3 5.39496 8.9916 21.5798 -6.47704
549 2 7.19328 7.19328 17.9832 -7.02166
550 2 8.9916 8.9916 17.9832 -7.02153
551 2 8.9916 7.19328 19.7815 -7.03004
552 1 7.19328 8.9916 19.7815 -8.55108
649 3 7.19328 7.19328 21.5798 -6.49963
650 3 8.9916 8.9916 21.5798 -6.46377
553 1 10.7899 7.19328 17.9832 -8.17511
554 2 12.5882 8.9916 17.9832 -7.02639
555 1 12.5882 7.19328 19.7815 -8.01705
556 3 10.7899 8.9916 19.7815 -6.41968
653 2 10.7899 7.19328 21.5798 -6.95806
654 1 12.5882 8.9916 21.5798 -8.24662
557 3 14.3866 7.19328 17.9832 -6.37219
558 1 16.1849 8.9916 17.9832 -8.11161
559 3 16.1849 7.19328 19.7815 -6.28366
560 1 14.3866 8.9916 19.7815 -8.22625
657 2 14.3866 7.19328 21.5798 -6.96724
658 3 16.1849 8.9916 21.5798 -6.19056
561 3 0 10.7899 17.9832 -6.37449
562 1 1.79832 12.5882 17.9832 -8.25083
563 2 1.79832 10.7899 19.7815 -6.90799
564 2 0 12.5882 19.7815 -7.05044
661 3 0 10.7899 21.5798 -6.42643
662 1 1.79832 12.5882 21.5798 -8.17059
565 1 3.59664 10.7899 17.9832 -8.31207
566 2 5.39496 12.5882 17.9832 -7.0469
567 2 5.39496 10.7899 19.7815 -7.08023
568 2 3.59664 12.5882 19.7815 -7.06406
665 3 3.59664 10.7899 21.5798 -6.46034
666 2 5.39496 12.5882 21.5798 -7.04038
569 2 7.19328 10.7899 17.9832 -7.03207
570 2 8.9916 12.5882 17.9832 -7.04533
571 3 8.9916 10.7899 19.7815 -6.4831
572 3 7.19328 12.5882 19.7815 -6.65711
669 2 7.19328 10.7899 21.5798 -6.93549
670 1 8.9916 12.5882 21.5798 -8.52622
573 1 10.7899 10.7899 17.9832 -8.56095
574 2 12.5882 12.5882 17.9832 -7.08424
575 3 12.5882 10.7899 19.7815 -6.42738
576 3 10.7899 12.5882 19.7815 -6.48953
673 1 10.7899 10.7899 21.5798 -8.41699
674 3 12.5882 12.5882 21.5798 -6.43847
577 2 14.3866 10.7899 17.9832 -7.04626
578 1 16.1849 12.5882 17.9832 -8.17988
579 3 16.1849 10.7899 19.7815 -6.21834
580 2 14.3866 12.5882 19.7815 -6.98492
677 1 14.3866 10.7899 21.5798 -8.37024
678 3 16.1849 12.5882 21.5798 -6.3245
581 1 0 14.3866 17.9832 -8.14068
582 2 1.79832 16.1849 17.9832 -7.04069
583 2 1.79832 14.3866 19.7815 -7.07628
584 2 0 16.1849 19.7815 -7.00476
681 1 0 14.3866 21.5798 -8.26106
682 2 1.79832 16.1849 21.5798 -7.02952
585 2 3.59664 14.3866 17.9832 -7.02452
586 2 5.39496 16.1849 17.9832 -7.0492
587 2 5.39496 14.3866 19.7815 -7.0987
588 1 3.59664 16.1849 19.7815 -8.18215
685 1 3.59664 14.3866 21.5798 -8.19142
686 3 5.39496 16.1849 21.5798 -6.41224
589 1 7.19328 14.3866 17.9832 -8.54053
590 3 8.9916 16.1849 17.9832 -6.62809
591 3 8.9916 14.3866 19.7815 -6.58491
592 1 7.19328 16.1849 19.7815 -8.33527
689 2 7.19328 14.3866 21.5798 -6.9577
690 2 8.9916 16.1849 21.5798 -6.99193
593 2 10.7899 14.3866 17.9832 -7.07236
594 3 12.5882 16.1849 17.9832 -6.73269
595 1 12.5882 14.3866 19.7815 -8.58596
596 2 10.7899 16.1849 19.7815 -7.02341
693 3 10.7899 14.3866 21.5798 -6.49437
694 3 12.5882 16.1849 21.5798 -6.52079
597 2 14.3866 14.3866 17.9832 -7.07278
598 2 16.1849 16.1849 17.9832 -7.09064
599 1 16.1849 14.3866 19.7815 -8.29508
600 2 14.3866 16.1849 19.7815 -7.07245
697 3 14.3866 14.3866 21.5798 -6.51107
698 2 16.1849 16.1849 21.5798 -7.05101
603 3 1.79832 0 23.3781 -6.47705
604 3 0 1.79832 23.3781 -6.36251
701 3 0 0 25.1765 -6.57118
702 1 1.79832 1.79832 25.1765 -8.4488
607 2 5.39496 0 23.3781 -7.02197
608 3 3.59664 1.79832 23.3781 -6.33733
703 1 3.59664 0 25.1765 -8.2612
704 1 5.39496 1.79832 25.1765 -8.53101
611 2 8.9916 0 23.3781 -7.00913
612 3 7.19328 1.79832 23.3781 -6.53209
705 3 7.19328 0 25.1765 -6.57836
706 2 8.9916 1.79832 25.1765 -7.07372
615 1 12.5882 0 23.3781 -8.2396
616 3 10.7899 1.79832 23.3781 -6.46769
707 3 10.7899 0 25.1765 -6.50253
708 3 12.5882 1.79832 25.1765 -6.27366
619 1 16.1849 0 23.3781 -8.12065
620 1 14.3866 1.79832 23.3781 -8.07549
709 1 14.3866 0 25.1765 -7.8964
710 3 16.1849 1.79832 25.1765 -6.18108
623 1 1.79832 3.59664 23.3781 -8.32923
624 3 0 5.39496 23.3781 -6.40259
711 3 0 3.59664 25.1765 -6.45708
712 1 1.79832 5.39496 25.1765 -8.45411
627 3 5.39496 3.59664 23.3781 -6.31525
628 3 3.59664 5.39496 23.3781 -6.31593
713 2 3.59664 3.59664 25.1765 -6.90247
714 1 5.39496 5.39496 25.1765 -8.56701
631 2 8.9916 3.59664 23.3781 -6.96147
632 3 7.19328 5.39496 23.3781 -6.48839
715 3 7.19328 3.59664 25.1765 -6.57479
716 2 8.9916 5.39496 25.1765 -7.04348
635 3 12.5882 3.59664 23.3781 -6.1915
636 1 10.7899 5.39496 23.3781 -8.16818
717 1 10.7899 3.59664 25.1765 -8.40266
718 2 12.5882 5.39496 25.1765 -6.95592
639 1 16.1849 3.59664 23.3781 -8.02556
640 2 14.3866 5.39496 23.3781 -6.98026
719 1 14.3866 3.59664 25.1765 -8.27034
720 1 16.1849 5.39496 25.1765 -8.11121
643 3 1.79832 7.19328 23.3781 -6.33252
644 2 0 8.9916 23.3781 -6.98673
721 1 0 7.19328 25.1765 -8.25659
722 1 1.79832 8.9916 25.1765 -8.31727
647 3 5.39496 7.19328 23.3781 -6.31984
648 3 3.59664 8.9916 23.3781 -6.24698
723 3 3.59664 7.19328 25.1765 -6.25794
724 1 5.39496 8.9916 25.1765 -8.33741
651 2 8.9916 7.19328 23.3781 -6.95736
652 1 7.19328 8.9916 23.3781 -8.39649
725 2 7.19328 7.19328 25.1765 -6.94761
726 3 8.9916 8.9916 25.1765 -6.26434
655 3 12.5882 7.19328 23.3781 -6.3706
656 3 10.7899 8.9916 23.3781 -6.38461
727 1 10.7899 7.19328 25.1765 -8.22403
728 2 12.5882 8.9916 25.1765 -7.07199
659 3 16.1849 7.19328 23.3781 -6.35516
660 3 14.3866 8.9916 23.3781 -6.40705
729 1 14.3866 7.19328 25.1765 -8.30219
730 2 16.1849 8.9916 25.1765 -7.04198
663 1 1.79832 10.7899 23.3781 -8.02805
664 2 0 12.5882 23.3781 -6.99677
731 1 0 10.7899 25.1765 -8.12551
732 2 1.79832 12.5882 25.1765 -7.00851
667 3 5.39496 10.7899 23.3781 -6.38873
668 1 3.59664 12.5882 23.3781 -8.19911
733 1 3.59664 10.7899 25.1765 -8.07826
734 3 5.39496 12.5882 25.1765 -6.43521
671 1 8.9916 10.7899 23.3781 -8.23512
672 3 7.19328 12.5882 23.3781 -6.58678
735 3 7.19328 10.7899 25.1765 -6.39902
736 2 8.9916 12.5882 25.1765 -7.02149
675 2 12.5882 10.7899 23.3781 -6.96194
676 3 10.7899 12.5882 23.3781 -6.44128
737 1 10.7899 10.7899 25.1765 -8.26055
738 2 12.5882 12.5882 25.1765 -7.19054
679 1 16.1849 10.7899 23.3781 -8.07558
680 2 14.3866 12.5882 23.3781 -7.04256
739 2 14.3866 10.7899 25.1765 -7.08098
740 1 16.1849 12.5882 25.1765 -8.10219
683 1 1.79832 14.3866 23.3781 -8.14068
684 3 0 16.1849 23.3781 -6.46685
741 1 0 14.3866 25.1765 -8.2973
742 2 1.79832 16.1849 25.1765 -7.003
687 3 5.39496 14.3866 23.3781 -6.54924
688 3 3.59664 16.1849 23.3781 -6.42656
743 3 3.59664 14.3866 25.1765 -6.42605
744 3 5.39496 16.1849 25.1765 -6.48111
691 3 8.9916 14.3866 23.3781 -6.6301
692 3 7.19328 16.1849 23.3781 -6.66797
745 2 7.19328 14.3866 25.1765 -7.04138
746 2 8.9916 16.1849 25.1765 -7.11507
695 1 12.5882 14.3866 23.3781 -8.51647
696 1 10.7899 16.1849 23.3781 -8.41898
747 2 10.7899 14.3866 25.1765 -7.0911
748 3 12.5882 16.1849 25.1765 -6.55671
699 2 16.1849 14.3866 23.3781 -7.00595
700 3 14.3866 16.1849 23.3781 -6.56154
749 2 14.3866 14.3866 25.1765 -7.1175
750 2 16.1849 16.1849 25.1765 -7.05342
751 2 1.79832 0 26.9748 -7.07111
752 2 0 1.79832 26.9748 -7.0579
801 3 0 0 28.7731 -6.70535
802 2 1.79832 1.79832 28.7731 -7.01369
803 2 1.79832 0 30.5714 -7.01426
804 2 0 1.79832 30.5714 -7.08066
753 3 5.39496 0 26.9748 -6.34601
754 3 3.59664 1.79832 26.9748 -6.40548
805 1 3.59664 0 28.7731 -8.36576
806 3 5.39496 1.79832 28.7731 -6.31231
807 3 5.39496 0 30.5714 -6.26029
808 3 3.59664 1.79832 30.5714 -6.39379
755 2 8.9916 0 26.9748 -7.12398
756 2 7.19328 1.79832 26.9748 -7.01839
809 1 7.19328 0 28.7731 -8.29903
810 2 8.9916 1.79832 28.7731 -7.07527
811 3 8.9916 0 30.5714 -6.58685
812 1 7.19328 1.79832 30.5714 -8.33359
757 1 12.5882 0 26.9748 -8.17874
758 2 10.7899 1.79832 26.9748 -7.04861
813 2 10.7899 0 28.7731 -7.11133
814 3 12.5882 1.79832 28.7731 -6.33585
815 1 12.5882 0 30.5714 -8.23835
816 3 10.7899 1.79832 30.5714 -6.52557
759 1 16.1849 0 26.9748 -8.0064
760 1 14.3866 1.79832 26.9748 -8.26042
817 1 14.3866 0 28.7731 -8.05962
818 2 16.1849 1.79832 28.7731 -6.98658
819 3 16.1849 0 30.5714 -6.13439
820 1 14.3866 1.79832 30.5714 -8.16326
761 2 1.79832 3.59664 26.9748 -6.98032
762 3 0 5.39496 26.9748 -6.35079
821 3 0 3.59664 28.7731 -6.47024
822 1 1.79832 5.39496 28.7731 -8.26841
823 3 1.79832 3.59664 30.5714 -6.35638
824 1 0 5.39496 30.5714 -8.06517
763 2 5.39496 3.59664 26.9748 -6.96732
764 2 3.59664 5.39496 26.9748 -6.96002
825 1 3.59664 3.59664 28.7731 -8.43763
826 3 5.39496 5.39496 28.7731 -6.40135
827 3 5.39496 3.59664 30.5714 -6.28248
828 1 3.59664 5.39496 30.5714 -8.42973
765 3 8.9916 3.59664 26.9748 -6.53822
766 3 7.19328 5.39496 26.9748 -6.462
829 1 7.19328 3.59664 28.7731 -8.49597
830 3 8.9916 5.39496 28.7731 -6.34622
831 3 8.9916 3.59664 30.5714 -6.40041
832 1 7.19328 5.39496 30.5714 -8.4793
767 3 12.5882 3.59664 26.9748 -6.40958
768 1 10.7899 5.39496 26.9748 -8.20623
833 2 10.7899 3.59664 28.7731 -6.96346
834 2 12.5882 5.39496 28.7731 -6.98874
835 1 12.5882 3.59664 30.5714 -8.1208
836 1 10.7899 5.39496 30.5714 -8.32364
769 3 16.1849 3.59664 26.9748 -6.25812
770 3 14.3866 5.39496 26.9748 -6.39866
837 3 14.3866 3.59664 28.7731 -6.36128