ITEM: TIMESTEP
0
ITEM: NUMBER OF ATOMS
4000
ITEM: BOX BOUNDS pp pp pp
0.0000000000000000e+00 3.5907429999999998e+01
0.0000000000000000e+00 3.5907429999999998e+01
0.0000000000000000e+00 3.5907429999999998e+01
ITEM: ATOMS id type x y z c_peratom
1 1 0 0 0 -8.23341
2 1 1.79537 1.79537 0 -8.14681
3 2 1.79537 0 1.79537 -7.04942
4 3 0 1.79537 1.79537 -6.54212
101 2 0 0 3.59074 -7.13876
102 3 1.79537 1.79537 3.59074 -6.52585
5 2 3.59074 0 0 -7.0037
6 1 5.38611 1.79537 0 -8.24428
7 3 5.38611 0 1.79537 -6.45348
8 2 3.59074 1.79537 1.79537 -7.08114
105 2 3.59074 0 3.59074 -7.01384
106 1 5.38611 1.79537 3.59074 -8.07905
9 1 7.18149 0 0 -8.51473
10 3 8.97686 1.79537 0 -6.53616
11 2 8.97686 0 1.79537 -7.00822
12 2 7.18149 1.79537 1.79537 -7.01302
109 1 7.18149 0 3.59074 -8.46355
110 3 8.97686 1.79537 3.59074 -6.53678
13 2 10.7722 0 0 -6.97921
14 1 12.5676 1.79537 0 -8.1818
15 2 12.5676 0 1.79537 -7.02725
16 3 10.7722 1.79537 1.79537 -6.52288
113 2 10.7722 0 3.59074 -7.03385
114 3 12.5676 1.79537 3.59074 -6.55674
17 1 14.363 0 0 -8.36379
18 3 16.1583 1.79537 0 -6.48251
19 3 16.1583 0 1.79537 -6.45364
20 2 14.363 1.79537 1.79537 -6.95667
117 2 14.363 0 3.59074 -7.03234
118 3 16.1583 1.79537 3.59074 -6.46269
21 2 0 3.59074 0 -6.98329
22 3 1.79537 5.38611 0 -6.43193
23 1 1.79537 3.59074 1.79537 -8.39607
24 3 0 5.38611 1.79537 -6.45345
121 3 0 3.59074 3.59074 -6.51888
122 3 1.79537 5.38611 3.59074 -6.39106
25 1 3.59074 3.59074 0 -8.19889
26 1 5.38611 5.38611 0 -8.179
27 2 5.38611 3.59074 1.79537 -7.06405
28 2 3.59074 5.38611 1.79537 -6.97675
125 1 3.59074 3.59074 3.59074 -8.16414
126 1 5.38611 5.38611 3.59074 -8.17922
29 1 7.18149 3.59074 0 -8.3147
30 3 8.97686 5.38611 0 -6.3919
31 2 8.97686 3.59074 1.79537 -6.93525
32 1 7.18149 5.38611 1.79537 -8.11148
129 1 7.18149 3.59074 3.59074 -8.2351
130 3 8.97686 5.38611 3.59074 -6.42723
33 1 10.7722 3.59074 0 -8.3109
34 1 12.5676 5.38611 0 -8.15585
35 3 12.5676 3.59074 1.79537 -6.25841
36 2 10.7722 5.38611 1.79537 -6.96967
133 1 10.7722 3.59074 3.59074 -8.53016
134 1 12.5676 5.38611 3.59074 -8.34523
37 1 14.363 3.59074 0 -8.30372
38 3 16.1583 5.38611 0 -6.53537
39 2 16.1583 3.59074 1.79537 -7.02429
40 3 14.363 5.38611 1.79537 -6.31237
137 1 14.363 3.59074 3.59074 -8.46925
138 1 16.1583 5.38611 3.59074 -8.23795
41 2 0 7.18149 0 -6.96439
42 1 1.79537 8.97686 0 -8.24364
43 1 1.79537 7.18149 1.79537 -8.46739
44 3 0 8.97686 1.79537 -6.58518
141 2 0 7.18149 3.59074 -7.00564
142 2 1.79537 8.97686 3.59074 -6.98004
45 1 3.59074 7.18149 0 -8.25464
46 1 5.38611 8.97686 0 -8.32367
47 3 5.38611 7.18149 1.79537 -6.38767
48 3 3.59074 8.97686 1.79537 -6.48534
145 3 3.59074 7.18149 3.59074 -6.49321
146 2 5.38611 8.97686 3.59074 -6.97276
49 2 7.18149 7.18149 0 -6.89787
50 3 8.97686 8.97686 0 -6.45187
51 1 8.97686 7.18149 1.79537 -8.41566
52 2 7.18149 8.97686 1.79537 -6.92298
149 2 7.18149 7.18149 3.59074 -6.95084
150 3 8.97686 8.97686 3.59074 -6.37795
53 3 10.7722 7.18149 0 -6.31722
54 1 12.5676 8.97686 0 -8.10839
55 2 12.5676 7.18149 1.79537 -7.05212
56 1 10.7722 8.97686 1.79537 -8.4486
153 2 10.7722 7.18149 3.59074 -7.02549
154 2 12.5676 8.97686 3.59074 -6.97453
57 1 14.363 7.18149 0 -8.19201
58 2 16.1583 8.97686 0 -6.97858
59 3 16.1583 7.18149 1.79537 -6.28331
60 1 14.363 8.97686 1.79537 -8.09587
157 2 14.363 7.18149 3.59074 -6.96225
158 1 16.1583 8.97686 3.59074 -8.1533
61 3 0 10.7722 0 -6.37846
62 2 1.79537 12.5676 0 -6.99547
63 2 1.79537 10.7722 1.79537 -6.9883
64 1 0 12.5676 1.79537 -8.35691
161 3 0 10.7722 3.59074 -6.55608
162 2 1.79537 12.5676 3.59074 -7.00267
65 2 3.59074 10.7722 0 -7.00187
66 1 5.38611 12.5676 0 -8.18464
67 3 5.38611 10.7722 1.79537 -6.42437
68 2 3.59074 12.5676 1.79537 -7.06722
165 3 3.59074 10.7722 3.59074 -6.5584
166 1 5.38611 12.5676 3.59074 -8.3745
69 1 7.18149 10.7722 0 -8.42849
70 2 8.97686 12.5676 0 -7.08326
71 3 8.97686 10.7722 1.79537 -6.48858
72 3 7.18149 12.5676 1.79537 -6.3419
169 1 7.18149 10.7722 3.59074 -8.39111
170 3 8.97686 12.5676 3.59074 -6.31639
73 2 10.7722 10.7722 0 -7.00703
74 2 12.5676 12.5676 0 -7.00585
75 3 12.5676 10.7722 1.79537 -6.38156
76 3 10.7722 12.5676 1.79537 -6.47337
173 3 10.7722 10.7722 3.59074 -6.45068
174 1 12.5676 12.5676 3.59074 -8.2553
77 1 14.363 10.7722 0 -8.22456
78 2 16.1583 12.5676 0 -7.00951
79 2 16.1583 10.7722 1.79537 -7.05959
80 2 14.363 12.5676 1.79537 -6.99942
177 1 14.363 10.7722 3.59074 -8.10605
178 2 16.1583 12.5676 3.59074 -7.0075
81 2 0 14.363 0 -6.99868
82 1 1.79537 16.1583 0 -8.23404
83 1 1.79537 14.363 1.79537 -8.20501
84 2 0 16.1583 1.79537 -7.08328
181 1 0 14.363 3.59074 -8.26754
182 2 1.79537 16.1583 3.59074 -7.03488
85 2 3.59074 14.363 0 -7.06623
86 1 5.38611 16.1583 0 -8.27169
87 1 5.38611 14.363 1.79537 -8.27948
88 2 3.59074 16.1583 1.79537 -7.03324
185 3 3.59074 14.363 3.59074 -6.29255
186 3 5.38611 16.1583 3.59074 -6.41576
89 2 7.18149 14.363 0 -6.98602
90 1 8.97686 16.1583 0 -8.21128
91 1 8.97686 14.363 1.79537 -8.31827
92 3 7.18149 16.1583 1.79537 -6.31049
189 2 7.18149 14.363 3.59074 -6.87849
190 2 8.97686 16.1583 3.59074 -7.01499
93 2 10.7722 14.363 0 -7.0888
94 1 12.5676 16.1583 0 -8.1468
95 1 12.5676 14.363 1.79537 -8.01909
96 1 10.7722 16.1583 1.79537 -7.98654
193 1 10.7722 14.363 3.59074 -8.13684
194 2 12.5676 16.1583 3.59074 -6.90286
97 2 14.363 14.363 0 -6.96296
98 3 16.1583 16.1583 0 -6.48304
99 3 16.1583 14.363 1.79537 -6.49048
100 1 14.363 16.1583 1.79537 -8.3293
197 2 14.363 14.363 3.59074 -6.999
198 1 16.1583 16.1583 3.59074 -8.24697
103 1 1.79537 0 5.38611 -8.48733
104 2 0 1.79537 5.38611 -7.06515
201 2 0 0 7.18149 -7.0155
202 3 1.79537 1.79537 7.18149 -6.48194
107 1 5.38611 0 5.38611 -8.30443
108 3 3.59074 1.79537 5.38611 -6.31898
203 2 3.59074 0 7.18149 -6.93184
204 3 5.38611 1.79537 7.18149 -6.27583
111 3 8.97686 0 5.38611 -6.58273
112 2 7.18149 1.79537 5.38611 -7.03985
205 2 7.18149 0 7.18149 -6.96653
206 2 8.97686 1.79537 7.18149 -7.07201
115 1 12.5676 0 5.38611 -8.42237
116 2 10.7722 1.79537 5.38611 -7.05875
207 1 10.7722 0 7.18149 -8.47656
208 2 12.5676 1.79537 7.18149 -7.15177
119 1 16.1583 0 5.38611 -8.36241
120 3 14.363 1.79537 5.38611 -6.53023
209 2 14.363 0 7.18149 -7.10384
210 3 16.1583 1.79537 7.18149 -6.47539
123 2 1.79537 3.59074 5.38611 -6.89162
124 1 0 5.38611 5.38611 -8.56087
211 3 0 3.59074 7.18149 -6.4271
212 3 1.79537 5.38611 7.18149 -6.39568
127 1 5.38611 3.59074 5.38611 -8.22924
128 1 3.59074 5.38611 5.38611 -8.18901
213 1 3.59074 3.59074 7.18149 -8.39873
214 2 5.38611 5.38611 7.18149 -7.01278
131 2 8.97686 3.59074 5.38611 -6.97879
132 3 7.18149 5.38611 5.38611 -6.35194
215 3 7.18149 3.59074 7.18149 -6.39466
216 3 8.97686 5.38611 7.18149 -6.35793
135 2 12.5676 3.59074 5.38611 -7.01391
136 3 10.7722 5.38611 5.38611 -6.43132
217 3 10.7722 3.59074 7.18149 -6.56153
218 1 12.5676 5.38611 7.18149 -8.29973
139 3 16.1583 3.59074 5.38611 -6.36613
140 2 14.363 5.38611 5.38611 -6.95957
219 3 14.363 3.59074 7.18149 -6.54769
220 1 16.1583 5.38611 7.18149 -8.35584
143 3 1.79537 7.18149 5.38611 -6.57111
144 2 0 8.97686 5.38611 -7.09038
221 2 0 7.18149 7.18149 -7.05968
222 2 1.79537 8.97686 7.18149 -7.15875
147 2 5.38611 7.18149 5.38611 -6.98225
148 3 3.59074 8.97686 5.38611 -6.63447
223 1 3.59074 7.18149 7.18149 -8.41757
224 2 5.38611 8.97686 7.18149 -7.07075
151 1 8.97686 7.18149 5.38611 -8.37461
152 1 7.18149 8.97686 5.38611 -8.22791
225 1 7.18149 7.18149 7.18149 -8.39908
226 2 8.97686 8.97686 7.18149 -7.03222
155 2 12.5676 7.18149 5.38611 -7.07332
156 2 10.7722 8.97686 5.38611 -7.02082
227 1 10.7722 7.18149 7.18149 -8.25717
228 3 12.5676 8.97686 7.18149 -6.5697
159 3 16.1583 7.18149 5.38611 -6.2688
160 1 14.363 8.97686 5.38611 -8.35765
229 2 14.363 7.18149 7.18149 -7.02939
230 2 16.1583 8.97686 7.18149 -6.98655
163 1 1.79537 10.7722 5.38611 -8.56156
164 2 0 12.5676 5.38611 -6.99105
231 2 0 10.7722 7.18149 -7.14353
232 3 1.79537 12.5676 7.18149 -6.5927
167 3 5.38611 10.7722 5.38611 -6.46004
168 3 3.59074 12.5676 5.38611 -6.34
233 2 3.59074 10.7722 7.18149 -7.0544
234 1 5.38611 12.5676 7.18149 -8.49831
171 1 8.97686 10.7722 5.38611 -8.28286
172 3 7.18149 12.5676 5.38611 -6.23823
235 3 7.18149 10.7722 7.18149 -6.42589
236 1 8.97686 12.5676 7.18149 -8.25957
175 3 12.5676 10.7722 5.38611 -6.52413
176 2 10.7722 12.5676 5.38611 -6.93114
237 2 10.7722 10.7722 7.18149 -7.06447
238 3 12.5676 12.5676 7.18149 -6.59329
179 1 16.1583 10.7722 5.38611 -8.13811
180 1 14.363 12.5676 5.38611 -8.21424
239 2 14.363 10.7722 7.18149 -7.00823
240 2 16.1583 12.5676 7.18149 -6.97755
183 1 1.79537 14.363 5.38611 -8.26043
184 2 0 16.1583 5.38611 -7.06
241 2 0 14.363 7.18149 -7.06134
242 1 1.79537 16.1583 7.18149 -8.21395
187 1 5.38611 14.363 5.38611 -8.17699
188 1 3.59074 16.1583 5.38611 -8.30478
243 1 3.59074 14.363 7.18149 -8.18506
244 1 5.38611 16.1583 7.18149 -8.40531
191 1 8.97686 14.363 5.38611 -8.34064
192 2 7.18149 16.1583 5.38611 -7.01652
245 2 7.18149 14.363 7.18149 -6.96229
246 2 8.97686 16.1583 7.18149 -6.9726
195 3 12.5676 14.363 5.38611 -6.41855
196 2 10.7722 16.1583 5.38611 -6.98002
247 3 10.7722 14.363 7.18149 -6.44056
248 1 12.5676 16.1583 7.18149 -8.45795
199 1 16.1583 14.363 5.38611 -8.28819
200 1 14.363 16.1583 5.38611 -8.15843
249 2 14.363 14.363 7.18149 -6.99423
250 3 16.1583 16.1583 7.18149 -6.31769
251 3 1.79537 0 8.97686 -6.399
252 1 0 1.79537 8.97686 -8.33553
301 1 0 0 10.7722 -8.18006
302 1 1.79537 1.79537 10.7722 -8.36129
303 3 1.79537 0 12.5676 -6.30909
304 2 0 1.79537 12.5676 -6.99072
253 1 5.38611 0 8.97686 -8.28932
254 3 3.59074 1.79537 8.97686 -6.34214
305 2 3.59074 0 10.7722 -6.93847
306 3 5.38611 1.79537 10.7722 -6.39422
307 2 5.38611 0 12.5676 -7.00732
308 3 3.59074 1.79537 12.5676 -6.38753
255 3 8.97686 0 8.97686 -6.45175
256 1 7.18149 1.79537 8.97686 -8.32332
309 3 7.18149 0 10.7722 -6.44237
310 3 8.97686 1.79537 10.7722 -6.34564
311 3 8.97686 0 12.5676 -6.43227
312 3 7.18149 1.79537 12.5676 -6.51475
257 2 12.5676 0 8.97686 -7.03888
258 2 10.7722 1.79537 8.97686 -7.00667
313 1 10.7722 0 10.7722 -8.30831
314 3 12.5676 1.79537 10.7722 -6.59388
315 1 12.5676 0 12.5676 -8.36657
316 1 10.7722 1.79537 12.5676 -8.46268
259 2 16.1583 0 8.97686 -7.04764
260 2 14.363 1.79537 8.97686 -7.12849
317 2 14.363 0 10.7722 -7.02676
318 3 16.1583 1.79537 10.7722 -6.606
319 3 16.1583 0 12.5676 -6.62339
320 3 14.363 1.79537 12.5676 -6.67052
261 3 1.79537 3.59074 8.97686 -6.36519
262 1 0 5.38611 8.97686 -8.47085
321 3 0 3.59074 10.7722 -6.3098
322 2 1.79537 5.38611 10.7722 -6.97663
323 2 1.79537 3.59074 12.5676 -6.96669
324 1 0 5.38611 12.5676 -8.27066
263 1 5.38611 3.59074 8.97686 -8.28911
264 2 3.59074 5.38611 8.97686 -6.99114
325 1 3.59074 3.59074 10.7722 -8.3585
326 3 5.38611 5.38611 10.7722 -6.41624
327 3 5.38611 3.59074 12.5676 -6.32409
328 1 3.59074 5.38611 12.5676 -8.34187
265 1 8.97686 3.59074 8.97686 -8.3105
266 3 7.18149 5.38611 8.97686 -6.37739
329 1 7.18149 3.59074 10.7722 -8.33907
330 1 8.97686 5.38611 10.7722 -8.09738
331 2 8.97686 3.59074 12.5676 -6.95775
332 2 7.18149 5.38611 12.5676 -6.97311
267 2 12.5676 3.59074 8.97686 -7.06909
268 1 10.7722 5.38611 8.97686 -8.11061
333 2 10.7722 3.59074 10.7722 -7.00861
334 1 12.5676 5.38611 10.7722 -8.18902
335 3 12.5676 3.59074 12.5676 -6.56128
336 1 10.7722 5.38611 12.5676 -8.33435
269 1 16.1583 3.59074 8.97686 -8.41813
270 2 14.363 5.38611 8.97686 -7.01953
337 2 14.363 3.59074 10.7722 -7.05944
338 2 16.1583 5.38611 10.7722 -6.9601
339 3 16.1583 3.59074 12.5676 -6.64603
340 2 14.363 5.38611 12.5676 -7.03007
271 2 1.79537 7.18149 8.97686 -7.12091
272 2 0 8.97686 8.97686 -7.15853
341 1 0 7.18149 10.7722 -7.988
342 1 1.79537 8.97686 10.7722 -8.34211
343 3 1.79537 7.18149 12.5676 -6.36565
344 1 0 8.97686 12.5676 -8.2057
273 2 5.38611 7.18149 8.97686 -7.13838
274 2 3.59074 8.97686 8.97686 -7.20786
345 2 3.59074 7.18149 10.7722 -7.0869
346 2 5.38611 8.97686 10.7722 -7.13716
347 1 5.38611 7.18149 12.5676 -8.25836
348 2 3.59074 8.97686 12.5676 -6.96357
275 3 8.97686 7.18149 8.97686 -6.45752
276 2 7.18149 8.97686 8.97686 -7.07181
349 2 7.18149 7.18149 10.7722 -7.06602
350 2 8.97686 8.97686 10.7722 -6.9624
351 1 8.97686 7.18149 12.5676 -8.25752
352 1 7.18149 8.97686 12.5676 -8.3964
277 1 12.5676 7.18149 8.97686 -8.1559
278 2 10.7722 8.97686 8.97686 -6.96872
353 3 10.7722 7.18149 10.7722 -6.35956
354 3 12.5676 8.97686 10.7722 -6.52748
355 3 12.5676 7.18149 12.5676 -6.40019
356 3 10.7722 8.97686 12.5676 -6.54043
279 3 16.1583 7.18149 8.97686 -6.45058
280 2 14.363 8.97686 8.97686 -6.96204
357 1 14.363 7.18149 10.7722 -8.30334
358 1 16.1583 8.97686 10.7722 -8.47367
359 2 16.1583 7.18149 12.5676 -6.98887
360 3 14.363 8.97686 12.5676 -6.42955
281 2 1.79537 10.7722 8.97686 -7.23099
282 3 0 12.5676 8.97686 -6.71175
361 2 0 10.7722 10.7722 -7.08842
362 2 1.79537 12.5676 10.7722 -7.11837
363 3 1.79537 10.7722 12.5676 -6.46185
364 1 0 12.5676 12.5676 -8.31139
283 3 5.38611 10.7722 8.97686 -6.67257
284 2 3.59074 12.5676 8.97686 -7.04247
365 2 3.59074 10.7722 10.7722 -7.10236
366 3 5.38611 12.5676 10.7722 -6.44515
367 3 5.38611 10.7722 12.5676 -6.5074
368 1 3.59074 12.5676 12.5676 -8.33709
285 1 8.97686 10.7722 8.97686 -8.43326
286 3 7.18149 12.5676 8.97686 -6.39166
369 3 7.18149 10.7722 10.7722 -6.5408
370 2 8.97686 12.5676 10.7722 -6.94819
371 3 8.97686 10.7722 12.5676 -6.63228
372 1 7.18149 12.5676 12.5676 -8.38226
287 3 12.5676 10.7722 8.97686 -6.71072
288 2 10.7722 12.5676 8.97686 -7.00688
373 3 10.7722 10.7722 10.7722 -6.63906
374 3 12.5676 12.5676 10.7722 -6.6575
375 3 12.5676 10.7722 12.5676 -6.59439
376 3 10.7722 12.5676 12.5676 -6.62771
289 1 16.1583 10.7722 8.97686 -8.50592
290 3 14.363 12.5676 8.97686 -6.56854
377 3 14.363 10.7722 10.7722 -6.54247
378 3 16.1583 12.5676 10.7722 -6.50956
379 3 16.1583 10.7722 12.5676 -6.54002
380 3 14.363 12.5676 12.5676 -6.5745
291 2 1.79537 14.363 8.97686 -7.0223
292 2 0 16.1583 8.97686 -7.08906
381 2 0 14.363 10.7722 -7.04325
382 2 1.79537 16.1583 10.7722 -7.00534
383 1 1.79537 14.363 12.5676 -8.07984
384 2 0 16.1583 12.5676 -6.99169
293 3 5.38611 14.363 8.97686 -6.29544
294 3 3.59074 16.1583 8.97686 -6.30051
385 1 3.59074 14.363 10.7722 -8.3273
386 1 5.38611 16.1583 10.7722 -8.35661
387 3 5.38611 14.363 12.5676 -6.35747
388 2 3.59074 16.1583 12.5676 -6.96925
295 1 8.97686 14.363 8.97686 -8.27203
296 2 7.18149 16.1583 8.97686 -7.0661
389 1 7.18149 14.363 10.7722 -8.23831
390 1 8.97686 16.1583 10.7722 -8.11555
391 2 8.97686 14.363 12.5676 -7.05415
392 2 7.18149 16.1583 12.5676 -7.04237
297 3 12.5676 14.363 8.97686 -6.58841
298 3 10.7722 16.1583 8.97686 -6.35385
393 2 10.7722 14.363 10.7722 -6.93256
394 1 12.5676 16.1583 10.7722 -8.58092
395 3 12.5676 14.363 12.5676 -6.4707
396 3 10.7722 16.1583 12.5676 -6.31214
299 1 16.1583 14.363 8.97686 -8.5241
300 2 14.363 16.1583 8.97686 -6.91384
397 3 14.363 14.363 10.7722 -6.5476
398 3 16.1583 16.1583 10.7722 -6.4986
399 2 16.1583 14.363 12.5676 -6.94308
400 2 14.363 16.1583 12.5676 -6.91582
401 1 0 0 14.363 -8.17199
402 1 1.79537 1.79537 14.363 -8.38163
403 3 1.79537 0 16.1583 -6.33685
404 3 0 1.79537 16.1583 -6.2339
405 3 3.59074 0 14.363 -6.4943
406 3 5.38611 1.79537 14.363 -6.53227
407 2 5.38611 0 16.1583 -7.03598
408 3 3.59074 1.79537 16.1583 -6.34203
409 3 7.18149 0 14.363 -6.66459
410 2 8.97686 1.79537 14.363 -7.0347
411 2 8.97686 0 16.1583 -7.06527
412 2 7.18149 1.79537 16.1583 -7.08923
413 3 10.7722 0 14.363 -6.32042
414 2 12.5676 1.79537 14.363 -6.97553
415 1 12.5676 0 16.1583 -8.28042
416 1 10.7722 1.79537 16.1583 -8.40771
417 3 14.363 0 14.363 -6.53563
418 2 16.1583 1.79537 14.363 -7.08285
419 2 16.1583 0 16.1583 -7.02076
420 3 14.363 1.79537 16.1583 -6.68155
421 3 0 3.59074 14.363 -6.37864
422 3 1.79537 5.38611 14.363 -6.37826
423 1 1.79537 3.59074 16.1583 -8.25564
424 2 0 5.38611 16.1583 -7.01048
425 1 3.59074 3.59074 14.363 -8.20624
426 2 5.38611 5.38611 14.363 -7.00036
427 1 5.38611 3.59074 16.1583 -8.24209
428 2 3.59074 5.38611 16.1583 -7.07649
429 1 7.18149 3.59074 14.363 -8.48915
430 3 8.97686 5.38611 14.363 -6.44465
431 2 8.97686 3.59074 16.1583 -7.0034
432 3 7.18149 5.38611 16.1583 -6.48072
433 3 10.7722 3.59074 14.363 -6.42654
434 2 12.5676 5.38611 14.363 -6.95401
435 3 12.5676 3.59074 16.1583 -6.55027
436 1 10.7722 5.38611 16.1583 -8.32557
437 2 14.363 3.59074 14.363 -7.08677
438 1 16.1583 5.38611 14.363 -8.30868
439 2 16.1583 3.59074 16.1583 -7.08351
440 3 14.363 5.38611 16.1583 -6.5204
441 1 0 7.18149 14.363 -8.24883
442 1 1.79537 8.97686 14.363 -8.43825
443 2 1.79537 7.18149 16.1583 -7.09869
444 2 0 8.97686 16.1583 -6.95078
445 3 3.59074 7.18149 14.363 -6.53289
446 2 5.38611 8.97686 14.363 -6.9991
447 3 5.38611 7.18149 16.1583 -6.56686
448 2 3.59074 8.97686 16.1583 -6.92665
449 2 7.18149 7.18149 14.363 -7.06826
450 2 8.97686 8.97686 14.363 -7.036
451 1 8.97686 7.18149 16.1583 -8.49197
452 2 7.18149 8.97686 16.1583 -7.04612
453 2 10.7722 7.18149 14.363 -6.97622
454 1 12.5676 8.97686 14.363 -8.6652
455 2 12.5676 7.18149 16.1583 -6.96165
456 3 10.7722 8.97686 16.1583 -6.56248
457 1 14.363 7.18149 14.363 -8.45221
458 2 16.1583 8.97686 14.363 -6.9351
459 2 16.1583 7.18149 16.1583 -7.04006
460 3 14.363 8.97686 16.1583 -6.41534
461 2 0 10.7722 14.363 -6.9649
462 2 1.79537 12.5676 14.363 -6.94907
463 3 1.79537 10.7722 16.1583 -6.56403
464 2 0 12.5676 16.1583 -6.95257
465 3 3.59074 10.7722 14.363 -6.44558
466 1 5.38611 12.5676 14.363 -8.26381
467 1 5.38611 10.7722 16.1583 -8.26869
468 3 3.59074 12.5676 16.1583 -6.57852
469 2 7.18149 10.7722 14.363 -7.04728
470 2 8.97686 12.5676 14.363 -7.03076
471 3 8.97686 10.7722 16.1583 -6.6043
472 2 7.18149 12.5676 16.1583 -7.02561
473 3 10.7722 10.7722 14.363 -6.55993
474 2 12.5676 12.5676 14.363 -6.89391
475 3 12.5676 10.7722 16.1583 -6.48048
476 1 10.7722 12.5676 16.1583 -8.45487
477 2 14.363 10.7722 14.363 -6.90392
478 3 16.1583 12.5676 14.363 -6.43969
479 1 16.1583 10.7722 16.1583 -8.47319
480 3 14.363 12.5676 16.1583 -6.39954
481 3 0 14.363 14.363 -6.34211
482 1 1.79537 16.1583 14.363 -8.38924
483 3 1.79537 14.363 16.1583 -6.64665
484 3 0 16.1583 16.1583 -6.42852
485 2 3.59074 14.363 14.363 -7.00884
486 1 5.38611 16.1583 14.363 -8.33328
487 2 5.38611 14.363 16.1583 -7.05982
488 2 3.59074 16.1583 16.1583 -7.04862
489 2 7.18149 14.363 14.363 -7.07715
490 2 8.97686 16.1583 14.363 -7.06997
491 2 8.97686 14.363 16.1583 -7.05144
492 2 7.18149 16.1583 16.1583 -7.10407
493 1 10.7722 14.363 14.363 -8.32874
494 1 12.5676 16.1583 14.363 -8.3879
495 1 12.5676 14.363 16.1583 -8.09003
496 2 10.7722 16.1583 16.1583 -7.01297
497 1 14.363 14.363 14.363 -8.3577
498 2 16.1583 16.1583 14.363 -6.94106
499 1 16.1583 14.363 16.1583 -8.22733
500 1 14.363 16.1583 16.1583 -8.23341
501 1 0 0 17.9537 -8.38519
502 2 1.79537 1.79537 17.9537 -6.92182
503 1 1.79537 0 19.7491 -8.30532
504 2 0 1.79537 19.7491 -6.98758
601 3 0 0 21.5445 -6.44146
602 1 1.79537 1.79537 21.5445 -8.31481
505 1 3.59074 0 17.9537 -8.4123
506 2 5.38611 1.79537 17.9537 -7.04167
507 1 5.38611 0 19.7491 -8.1919
508 3 3.59074 1.79537 19.7491 -6.39109
605 2 3.59074 0 21.5445 -6.94188
606 2 5.38611 1.79537 21.5445 -7.07856
509 2 7.18149 0 17.9537 -7.05219
510 2 8.97686 1.79537 17.9537 -7.07808
511 3 8.97686 0 19.7491 -6.3067
512 1 7.18149 1.79537 19.7491 -8.34848
609 1 7.18149 0 21.5445 -8.26367
610 3 8.97686 1.79537 21.5445 -6.37705
513 1 10.7722 0 17.9537 -8.17446
514 3 12.5676 1.79537 17.9537 -6.40598
515 3 12.5676 0 19.7491 -6.41638
516 1 10.7722 1.79537 19.7491 -8.38735
613 1 10.7722 0 21.5445 -8.49981
614 3 12.5676 1.79537 21.5445 -6.29536
517 3 14.363 0 17.9537 -6.49268
518 2 16.1583 1.79537 17.9537 -7.10386
519 2 16.1583 0 19.7491 -7.01069
520 1 14.363 1.79537 19.7491 -8.42481
617 2 14.363 0 21.5445 -6.91895
618 3 16.1583 1.79537 21.5445 -6.25963
521 1 0 3.59074 17.9537 -8.35046
522 2 1.79537 5.38611 17.9537 -7.11259
523 2 1.79537 3.59074 19.7491 -6.98778
524 1 0 5.38611 19.7491 -8.50206
621 3 0 3.59074 21.5445 -6.48899
622 3 1.79537 5.38611 21.5445 -6.41757
525 1 3.59074 3.59074 17.9537 -8.22844
526 1 5.38611 5.38611 17.9537 -8.22749
527 2 5.38611 3.59074 19.7491 -7.03748
528 2 3.59074 5.38611 19.7491 -7.01737
625 1 3.59074 3.59074 21.5445 -8.2441
626 2 5.38611 5.38611 21.5445 -7.0495
529 3 7.18149 3.59074 17.9537 -6.52754
530 3 8.97686 5.38611 17.9537 -6.52839
531 2 8.97686 3.59074 19.7491 -7.01702
532 1 7.18149 5.38611 19.7491 -8.35208
629 2 7.18149 3.59074 21.5445 -7.05157
630 3 8.97686 5.38611 21.5445 -6.55281
533 2 10.7722 3.59074 17.9537 -6.98745
534 1 12.5676 5.38611 17.9537 -8.47277
535 2 12.5676 3.59074 19.7491 -7.00074
536 3 10.7722 5.38611 19.7491 -6.66637
633 2 10.7722 3.59074 21.5445 -6.94698
634 1 12.5676 5.38611 21.5445 -8.28666
537 2 14.363 3.59074 17.9537 -7.00979
538 1 16.1583 5.38611 17.9537 -8.41367
539 1 16.1583 3.59074 19.7491 -8.16589
540 3 14.363 5.38611 19.7491 -6.45027
637 1 14.363 3.59074 21.5445 -8.25639
638 3 16.1583 5.38611 21.5445 -6.49904
541 2 0 7.18149 17.9537 -7.08148
542 1 1.79537 8.97686 17.9537 -8.37523
543 2 1.79537 7.18149 19.7491 -7.0046
544 1 0 8.97686 19.7491 -8.43553
641 3 0 7.18149 21.5445 -6.5597
642 3 1.79537 8.97686 21.5445 -6.46553
545 3 3.59074 7.18149 17.9537 -6.43422
546 1 5.38611 8.97686 17.9537 -8.1727
547 1 5.38611 7.18149 19.7491 -8.03818
548 1 3.59074 8.97686 19.7491 -8.27552
645 1 3.59074 7.18149 21.5445 -8.12316
646 1 5.38611 8.97686 21.5445 -8.11111
549 2 7.18149 7.18149 17.9537 -7.02081
550 2 8.97686 8.97686 17.9537 -7.03941
551 2 8.97686 7.18149 19.7491 -6.99963
552 1 7.18149 8.97686 19.7491 -8.1262
649 3 7.18149 7.18149 21.5445 -6.42842
650 3 8.97686 8.97686 21.5445 -6.51249
553 3 10.7722 7.18149 17.9537 -6.51493
554 1 12.5676 8.97686 17.9537 -8.54598
555 2 12.5676 7.18149 19.7491 -7.02635
556 3 10.7722 8.97686 19.7491 -6.65522
653 2 10.7722 7.18149 21.5445 -7.05482
654 2 12.5676 8.97686 21.5445 -7.02009
557 2 14.363 7.18149 17.9537 -6.95666
558 1 16.1583 8.97686 17.9537 -8.16807
559 3 16.1583 7.18149 19.7491 -6.34797
560 1 14.363 8.97686 19.7491 -8.11496
657 2 14.363 7.18149 21.5445 -7.01959
658 1 16.1583 8.97686 21.5445 -8.16193
561 2 0 10.7722 17.9537 -6.95593
562 3 1.79537 12.5676 17.9537 -6.55687
563 3 1.79537 10.7722 19.7491 -6.33109
564 1 0 12.5676 19.7491 -8.6861
661 2 0 10.7722 21.5445 -6.93355
662 3 1.79537 12.5676 21.5445 -6.37636
565 3 3.59074 10.7722 17.9537 -6.38464
566 3 5.38611 12.5676 17.9537 -6.47921
567 2 5.38611 10.7722 19.7491 -6.93262
568 1 3.59074 12.5676 19.7491 -8.75392
665 3 3.59074 10.7722 21.5445 -6.32802
666 3 5.38611 12.5676 21.5445 -6.40368
569 1 7.18149 10.7722 17.9537 -8.35529
570 3 8.97686 12.5676 17.9537 -6.47346
571 2 8.97686 10.7722 19.7491 -6.96462
572 3 7.18149 12.5676 19.7491 -6.36806
669 1 7.18149 10.7722 21.5445 -8.50457
670 2 8.97686 12.5676 21.5445 -6.90784
573 2 10.7722 10.7722 17.9537 -6.96453
574 3 12.5676 12.5676 17.9537 -6.38805
575 2 12.5676 10.7722 19.7491 -6.99367
576 1 10.7722 12.5676 19.7491 -8.55849
673 1 10.7722 10.7722 21.5445 -8.42824
674 2 12.5676 12.5676 21.5445 -6.97396
577 3 14.363 10.7722 17.9537 -6.31618
578 3 16.1583 12.5676 17.9537 -6.28325
579 1 16.1583 10.7722 19.7491 -7.99562
580 1 14.363 12.5676 19.7491 -8.48788
677 1 14.363 10.7722 21.5445 -8.30904
678 3 16.1583 12.5676 21.5445 -6.40014
581 3 0 14.363 17.9537 -6.45858
582 2 1.79537 16.1583 17.9537 -6.93221
583 3 1.79537 14.363 19.7491 -6.48509
584 3 0 16.1583 19.7491 -6.35632
681 3 0 14.363 21.5445 -6.36768
682 1 1.79537 16.1583 21.5445 -8.41884
585 2 3.59074 14.363 17.9537 -6.99016
586 3 5.38611 16.1583 17.9537 -6.5649
587 3 5.38611 14.363 19.7491 -6.5159
588 3 3.59074 16.1583 19.7491 -6.54794
685 3 3.59074 14.363 21.5445 -6.44739
686 2 5.38611 16.1583 21.5445 -7.01162
589 1 7.18149 14.363 17.9537 -8.65358
590 3 8.97686 16.1583 17.9537 -6.56686
591 3 8.97686 14.363 19.7491 -6.49064
592 2 7.18149 16.1583 19.7491 -6.98013
689 1 7.18149 14.363 21.5445 -8.5902
690 3 8.97686 16.1583 21.5445 -6.36657
593 3 10.7722 14.363 17.9537 -6.46883
594 1 12.5676 16.1583 17.9537 -8.39272
595 3 12.5676 14.363 19.7491 -6.53547
596 2 10.7722 16.1583 19.7491 -6.94202
693 3 10.7722 14.363 21.5445 -6.47347
694 3 12.5676 16.1583 21.5445 -6.56595
597 2 14.363 14.363 17.9537 -6.94747
598 2 16.1583 16.1583 17.9537 -7.01101
599 3 16.1583 14.363 19.7491 -6.48383
600 2 14.363 16.1583 19.7491 -7.03309
697 2 14.363 14.363 21.5445 -7.03622
698 2 16.1583 16.1583 21.5445 -7.05663
603 3 1.79537 0 23.3398 -6.4488
604 3 0 1.79537 23.3398 -6.3726
701 2 0 0 25.1352 -6.90849
702 1 1.79537 1.79537 25.1352 -8.36118
607 1 5.38611 0 23.3398 -8.38565
608 2 3.59074 1.79537 23.3398 -7.02445
703 3 3.59074 0 25.1352 -6.36439
704 1 5.38611 1.79537 25.1352 -8.10013
611 2 8.97686 0 23.3398 -6.92741
612 2 7.18149 1.79537 23.3398 -6.96938
705 3 7.18149 0 25.1352 -6.44507
706 3 8.97686 1.79537 25.1352 -6.29993
615 2 12.5676 0 23.3398 -6.98614
616 1 10.7722 1.79537 23.3398 -8.32169
707 1 10.7722 0 25.1352 -8.22802
708 2 12.5676 1.79537 25.1352 -7.01228
619 2 16.1583 0 23.3398 -6.99861
620 1 14.363 1.79537 23.3398 -8.27797
709 1 14.363 0 25.1352 -8.06259
710 2 16.1583 1.79537 25.1352 -7.08475
623 1 1.79537 3.59074 23.3398 -8.15812
624 2 0 5.38611 23.3398 -6.98173
711 2 0 3.59074 25.1352 -7.00729
712 2 1.79537 5.38611 25.1352 -7.00737
627 2 5.38611 3.59074 23.3398 -6.98886
628 1 3.59074 5.38611 23.3398 -8.08852
713 1 3.59074 3.59074 25.1352 -8.0647
714 3 5.38611 5.38611 25.1352 -6.34008
631 1 8.97686 3.59074 23.3398 -8.50102
632 3 7.18149 5.38611 23.3398 -6.51845
715 3 7.18149 3.59074 25.1352 -6.31203
716 3 8.97686 5.38611 25.1352 -6.43871
635 3 12.5676 3.59074 23.3398 -6.32748
636 1 10.7722 5.38611 23.3398 -8.24398
717 2 10.7722 3.59074 25.1352 -6.85971
718 3 12.5676 5.38611 25.1352 -6.39975
639 2 16.1583 3.59074 23.3398 -7.01836
640 2 14.363 5.38611 23.3398 -6.99745
719 1 14.363 3.59074 25.1352 -8.37567
720 2 16.1583 5.38611 25.1352 -7.09311
643 2 1.79537 7.18149 23.3398 -6.94198
644 3 0 8.97686 23.3398 -6.4944
721 1 0 7.18149 25.1352 -8.37516
722 3 1.79537 8.97686 25.1352 -6.37989
647 1 5.38611 7.18149 23.3398 -8.34598
648 2 3.59074 8.97686 23.3398 -6.86801
723 1 3.59074 7.18149 25.1352 -8.40086
724 3 5.38611 8.97686 25.1352 -6.28756
651 2 8.97686 7.18149 23.3398 -6.97428
652 3 7.18149 8.97686 23.3398 -6.41813
725 2 7.18149 7.18149 25.1352 -6.88838
726 2 8.97686 8.97686 25.1352 -6.89378
655 2 12.5676 7.18149 23.3398 -7.0511
656 3 10.7722 8.97686 23.3398 -6.51728
727 1 10.7722 7.18149 25.1352 -8.5174
728 1 12.5676 8.97686 25.1352 -8.38296
659 3 16.1583 7.18149 23.3398 -6.60732
660 2 14.363 8.97686 23.3398 -6.98761
729 3 14.363 7.18149 25.1352 -6.57722
730 2 16.1583 8.97686 25.1352 -6.9753
663 3 1.79537 10.7722 23.3398 -6.46801
664 2 0 12.5676 23.3398 -6.90277
731 3 0 10.7722 25.1352 -6.45023
732 1 1.79537 12.5676 25.1352 -8.13321
667 3 5.38611 10.7722 23.3398 -6.28417
668 1 3.59074 12.5676 23.3398 -8.4903
733 1 3.59074 10.7722 25.1352 -8.45325
734 3 5.38611 12.5676 25.1352 -6.3549
671 3 8.97686 10.7722 23.3398 -6.33165
672 3 7.18149 12.5676 23.3398 -6.35175
735 1 7.18149 10.7722 25.1352 -8.43202
736 1 8.97686 12.5676 25.1352 -8.11425
675 3 12.5676 10.7722 23.3398 -6.38776
676 1 10.7722 12.5676 23.3398 -8.34752
737 3 10.7722 10.7722 25.1352 -6.35382
738 3 12.5676 12.5676 25.1352 -6.4162
679 3 16.1583 10.7722 23.3398 -6.35463
680 2 14.363 12.5676 23.3398 -6.91522
739 1 14.363 10.7722 25.1352 -8.22589
740 1 16.1583 12.5676 25.1352 -8.1892
683 1 1.79537 14.363 23.3398 -8.36841
684 3 0 16.1583 23.3398 -6.26473
741 3 0 14.363 25.1352 -6.36988
742 2 1.79537 16.1583 25.1352 -6.96509
687 2 5.38611 14.363 23.3398 -6.97415
688 2 3.59074 16.1583 23.3398 -7.03309
743 2 3.59074 14.363 25.1352 -7.02241
744 1 5.38611 16.1583 25.1352 -8.14837
691 1 8.97686 14.363 23.3398 -8.22363
692 3 7.18149 16.1583 23.3398 -6.36308
745 2 7.18149 14.363 25.1352 -6.99189
746 1 8.97686 16.1583 25.1352 -8.1226
695 3 12.5676 14.363 23.3398 -6.59882
696 3 10.7722 16.1583 23.3398 -6.31708
747 2 10.7722 14.363 25.1352 -6.99255
748 3 12.5676 16.1583 25.1352 -6.44548
699 3 16.1583 14.363 23.3398 -6.57387
700 3 14.363 16.1583 23.3398 -6.58614
749 2 14.363 14.363 25.1352 -6.94365
750 3 16.1583 16.1583 25.1352 -6.51058
751 2 1.79537 0 26.9306 -6.97642
752 3 0 1.79537 26.9306 -6.39273
801 3 0 0 28.7259 -6.4268
802 1 1.79537 1.79537 28.7259 -8.3617
803 2 1.79537 0 30.5213 -6.92662
804 1 0 1.79537 30.5213 -8.32845
753 1 5.38611 0 26.9306 -8.31394
754 1 3.59074 1.79537 26.9306 -8.04648
805 2 3.59074 0 28.7259 -7.04703
806 1 5.38611 1.79537 28.7259 -8.19561
807 1 5.38611 0 30.5213 -8.47248
808 2 3.59074 1.79537 30.5213 -6.97901
755 3 8.97686 0 26.9306 -6.32151
756 1 7.18149 1.79537 26.9306 -8.18376
809 3 7.18149 0 28.7259 -6.28926
810 1 8.97686 1.79537 28.7259 -8.24187
811 1 8.97686 0 30.5213 -8.37436
812 3 7.18149 1.79537 30.5213 -6.29124
757 1 12.5676 0 26.9306 -8.19948
758 1 10.7722 1.79537 26.9306 -8.15156
813 2 10.7722 0 28.7259 -6.9159
814 2 12.5676 1.79537 28.7259 -6.98527
815 1 12.5676 0 30.5213 -8.63273
816 3 10.7722 1.79537 30.5213 -6.34016
759 2 16.1583 0 26.9306 -6.97757
760 3 14.363 1.79537 26.9306 -6.55952
817 3 14.363 0 28.7259 -6.47062
818 2 16.1583 1.79537 28.7259 -7.04636
819 1 16.1583 0 30.5213 -8.47044
820 2 14.363 1.79537 30.5213 -7.01103
761 3 1.79537 3.59074 26.9306 -6.28707
762 1 0 5.38611 26.9306 -8.25814
821 3 0 3.59074 28.7259 -6.25755
822 1 1.79537 5.38611 28.7259 -8.27337
823 2 1.79537 3.59074 30.5213 -6.98142
824 1 0 5.38611 30.5213 -8.26869
763 1 5.38611 3.59074 26.9306 -8.2586
764 2 3.59074 5.38611 26.9306 -6.93631
825 2 3.59074 3.59074 28.7259 -7.00005
826 3 5.38611 5.38611 28.7259 -6.42163
827 3 5.38611 3.59074 30.5213 -6.44985
828 1 3.59074 5.38611 30.5213 -8.45468
765 1 8.97686 3.59074 26.9306 -8.24505
766 3 7.18149 5.38611 26.9306 -6.35136
829 2 7.18149 3.59074 28.7259 -6.90899
830 1 8.97686 5.38611 28.7259 -8.30114
831 3 8.97686 3.59074 30.5213 -6.16796
832 1 7.18149 5.38611 30.5213 -8.34841
767 3 12.5676 3.59074 26.9306 -6.32193
768 3 10.7722 5.38611 26.9306 -6.34918
833 1 10.7722 3.59074 28.7259 -8.19269
834 1 12.5676 5.38611 28.7259 -8.23699
835 2 12.5676 3.59074 30.5213 -7.09833
836 1 10.7722 5.38611 30.5213 -8.0517
769 2 16.1583 3.59074 26.9306 -7.09213
770 1 14.363 5.38611 26.9306 -8.28266
837 3 14.363 3.59074 28.7259 -6.49646