ITEM: TIMESTEP
0
ITEM: NUMBER OF ATOMS
4000
ITEM: BOX BOUNDS pp pp pp
0.0000000000000000e+00 3.5907429999999998e+01
0.0000000000000000e+00 3.5907429999999998e+01
0.0000000000000000e+00 3.5907429999999998e+01
ITEM: ATOMS id type x y z c_peratom
1 3 0 0 0 -6.33812
2 3 1.79537 1.79537 0 -6.44458
3 3 1.79537 0 1.79537 -6.53314
4 1 0 1.79537 1.79537 -8.37177
101 2 0 0 3.59074 -7.02352
102 3 1.79537 1.79537 3.59074 -6.41233
5 2 3.59074 0 0 -6.95877
6 1 5.38611 1.79537 0 -8.42808
7 3 5.38611 0 1.79537 -6.40311
8 2 3.59074 1.79537 1.79537 -6.94767
105 1 3.59074 0 3.59074 -8.37497
106 1 5.38611 1.79537 3.59074 -8.17188
9 3 7.18149 0 0 -6.51885
10 3 8.97686 1.79537 0 -6.45297
11 3 8.97686 0 1.79537 -6.49209
12 3 7.18149 1.79537 1.79537 -6.38538
109 1 7.18149 0 3.59074 -8.3688
110 2 8.97686 1.79537 3.59074 -6.93077
13 1 10.7722 0 0 -8.42451
14 1 12.5676 1.79537 0 -8.10095
15 1 12.5676 0 1.79537 -8.28424
16 1 10.7722 1.79537 1.79537 -8.39592
113 3 10.7722 0 3.59074 -6.47357
114 2 12.5676 1.79537 3.59074 -6.89662
17 1 14.363 0 0 -8.21375
18 3 16.1583 1.79537 0 -6.50423
19 1 16.1583 0 1.79537 -8.50834
20 3 14.363 1.79537 1.79537 -6.35744
117 3 14.363 0 3.59074 -6.36734
118 3 16.1583 1.79537 3.59074 -6.38521
21 2 0 3.59074 0 -6.96844
22 3 1.79537 5.38611 0 -6.37255
23 1 1.79537 3.59074 1.79537 -8.50413
24 3 0 5.38611 1.79537 -6.40806
121 3 0 3.59074 3.59074 -6.35221
122 1 1.79537 5.38611 3.59074 -8.44664
25 2 3.59074 3.59074 0 -6.95217
26 1 5.38611 5.38611 0 -8.48893
27 1 5.38611 3.59074 1.79537 -8.22371
28 3 3.59074 5.38611 1.79537 -6.28886
125 3 3.59074 3.59074 3.59074 -6.28665
126 1 5.38611 5.38611 3.59074 -8.38773
29 3 7.18149 3.59074 0 -6.27216
30 1 8.97686 5.38611 0 -8.26187
31 2 8.97686 3.59074 1.79537 -6.92894
32 3 7.18149 5.38611 1.79537 -6.20597
129 1 7.18149 3.59074 3.59074 -8.24134
130 1 8.97686 5.38611 3.59074 -8.40246
33 3 10.7722 3.59074 0 -6.29884
34 3 12.5676 5.38611 0 -6.36976
35 3 12.5676 3.59074 1.79537 -6.47144
36 2 10.7722 5.38611 1.79537 -6.94358
133 2 10.7722 3.59074 3.59074 -6.9874
134 3 12.5676 5.38611 3.59074 -6.55275
37 2 14.363 3.59074 0 -6.90273
38 2 16.1583 5.38611 0 -7.07852
39 1 16.1583 3.59074 1.79537 -8.53846
40 1 14.363 5.38611 1.79537 -8.48245
137 3 14.363 3.59074 3.59074 -6.36491
138 3 16.1583 5.38611 3.59074 -6.37218
41 2 0 7.18149 0 -6.98215
42 2 1.79537 8.97686 0 -6.99117
43 1 1.79537 7.18149 1.79537 -8.29243
44 1 0 8.97686 1.79537 -8.24993
141 2 0 7.18149 3.59074 -7.03226
142 2 1.79537 8.97686 3.59074 -6.97236
45 3 3.59074 7.18149 0 -6.42176
46 3 5.38611 8.97686 0 -6.585
47 3 5.38611 7.18149 1.79537 -6.4468
48 1 3.59074 8.97686 1.79537 -8.44186
145 2 3.59074 7.18149 3.59074 -6.95372
146 3 5.38611 8.97686 3.59074 -6.47223
49 3 7.18149 7.18149 0 -6.3863
50 2 8.97686 8.97686 0 -6.92634
51 1 8.97686 7.18149 1.79537 -8.35443
52 2 7.18149 8.97686 1.79537 -7.04809
149 3 7.18149 7.18149 3.59074 -6.35257
150 1 8.97686 8.97686 3.59074 -8.31346
53 3 10.7722 7.18149 0 -6.27526
54 1 12.5676 8.97686 0 -8.23982
55 3 12.5676 7.18149 1.79537 -6.48227
56 2 10.7722 8.97686 1.79537 -7.06379
153 3 10.7722 7.18149 3.59074 -6.49273
154 1 12.5676 8.97686 3.59074 -8.44679
57 2 14.363 7.18149 0 -7.03691
58 1 16.1583 8.97686 0 -7.98738
59 1 16.1583 7.18149 1.79537 -8.30557
60 2 14.363 8.97686 1.79537 -6.96494
157 3 14.363 7.18149 3.59074 -6.52111
158 2 16.1583 8.97686 3.59074 -7.04798
61 1 0 10.7722 0 -8.41307
62 1 1.79537 12.5676 0 -8.47023
63 3 1.79537 10.7722 1.79537 -6.34051
64 3 0 12.5676 1.79537 -6.33118
161 3 0 10.7722 3.59074 -6.25795
162 1 1.79537 12.5676 3.59074 -8.29331
65 3 3.59074 10.7722 0 -6.55798
66 2 5.38611 12.5676 0 -6.99822
67 2 5.38611 10.7722 1.79537 -7.07992
68 2 3.59074 12.5676 1.79537 -7.00166
165 1 3.59074 10.7722 3.59074 -8.10008
166 2 5.38611 12.5676 3.59074 -7.09038
69 2 7.18149 10.7722 0 -7.05989
70 2 8.97686 12.5676 0 -6.99941
71 1 8.97686 10.7722 1.79537 -8.10442
72 2 7.18149 12.5676 1.79537 -7.10798
169 2 7.18149 10.7722 3.59074 -7.08128
170 1 8.97686 12.5676 3.59074 -8.42576
73 1 10.7722 10.7722 0 -8.09712
74 1 12.5676 12.5676 0 -8.23206
75 1 12.5676 10.7722 1.79537 -8.03557
76 2 10.7722 12.5676 1.79537 -7.08097
173 1 10.7722 10.7722 3.59074 -8.04057
174 1 12.5676 12.5676 3.59074 -8.29538
77 2 14.363 10.7722 0 -7.00545
78 3 16.1583 12.5676 0 -6.31328
79 1 16.1583 10.7722 1.79537 -8.46331
80 3 14.363 12.5676 1.79537 -6.28068
177 3 14.363 10.7722 3.59074 -6.35286
178 3 16.1583 12.5676 3.59074 -6.29974
81 1 0 14.363 0 -8.36385
82 3 1.79537 16.1583 0 -6.36991
83 2 1.79537 14.363 1.79537 -6.96705
84 1 0 16.1583 1.79537 -8.3447
181 2 0 14.363 3.59074 -6.94519
182 3 1.79537 16.1583 3.59074 -6.3282
85 2 3.59074 14.363 0 -6.97602
86 3 5.38611 16.1583 0 -6.36094
87 1 5.38611 14.363 1.79537 -8.39403
88 1 3.59074 16.1583 1.79537 -8.33278
185 3 3.59074 14.363 3.59074 -6.30213
186 3 5.38611 16.1583 3.59074 -6.26156
89 3 7.18149 14.363 0 -6.39028
90 1 8.97686 16.1583 0 -8.42174
91 3 8.97686 14.363 1.79537 -6.55079
92 1 7.18149 16.1583 1.79537 -8.39756
189 2 7.18149 14.363 3.59074 -7.03687
190 2 8.97686 16.1583 3.59074 -6.94765
93 2 10.7722 14.363 0 -6.97273
94 3 12.5676 16.1583 0 -6.3667
95 3 12.5676 14.363 1.79537 -6.4473
96 3 10.7722 16.1583 1.79537 -6.53353
193 3 10.7722 14.363 3.59074 -6.44862
194 2 12.5676 16.1583 3.59074 -6.88652
97 3 14.363 14.363 0 -6.22721
98 2 16.1583 16.1583 0 -6.96045
99 1 16.1583 14.363 1.79537 -8.64591
100 1 14.363 16.1583 1.79537 -8.46532
197 3 14.363 14.363 3.59074 -6.20848
198 3 16.1583 16.1583 3.59074 -6.32515
103 2 1.79537 0 5.38611 -7.04413
104 1 0 1.79537 5.38611 -8.44158
201 2 0 0 7.18149 -7.04293
202 1 1.79537 1.79537 7.18149 -8.09432
107 2 5.38611 0 5.38611 -7.03236
108 1 3.59074 1.79537 5.38611 -8.30771
203 3 3.59074 0 7.18149 -6.43763
204 2 5.38611 1.79537 7.18149 -6.99118
111 1 8.97686 0 5.38611 -8.25815
112 3 7.18149 1.79537 5.38611 -6.34598
205 1 7.18149 0 7.18149 -8.27376
206 2 8.97686 1.79537 7.18149 -6.95274
115 1 12.5676 0 5.38611 -8.64269
116 3 10.7722 1.79537 5.38611 -6.47313
207 2 10.7722 0 7.18149 -6.98255
208 2 12.5676 1.79537 7.18149 -7.01269
119 1 16.1583 0 5.38611 -8.53553
120 3 14.363 1.79537 5.38611 -6.34007
209 3 14.363 0 7.18149 -6.44467
210 2 16.1583 1.79537 7.18149 -6.93106
123 2 1.79537 3.59074 5.38611 -6.87389
124 3 0 5.38611 5.38611 -6.48633
211 3 0 3.59074 7.18149 -6.37298
212 1 1.79537 5.38611 7.18149 -8.4029
127 2 5.38611 3.59074 5.38611 -6.96858
128 3 3.59074 5.38611 5.38611 -6.29729
213 3 3.59074 3.59074 7.18149 -6.3467
214 1 5.38611 5.38611 7.18149 -8.15938
131 3 8.97686 3.59074 5.38611 -6.4446
132 2 7.18149 5.38611 5.38611 -7.04158
215 1 7.18149 3.59074 7.18149 -8.35143
216 2 8.97686 5.38611 7.18149 -6.9864
135 1 12.5676 3.59074 5.38611 -8.48653
136 2 10.7722 5.38611 5.38611 -7.0411
217 1 10.7722 3.59074 7.18149 -8.427
218 3 12.5676 5.38611 7.18149 -6.46955
139 1 16.1583 3.59074 5.38611 -8.4683
140 3 14.363 5.38611 5.38611 -6.4639
219 1 14.363 3.59074 7.18149 -8.40008
220 3 16.1583 5.38611 7.18149 -6.51596
143 2 1.79537 7.18149 5.38611 -7.03364
144 1 0 8.97686 5.38611 -8.16449
221 2 0 7.18149 7.18149 -7.10125
222 2 1.79537 8.97686 7.18149 -7.03635
147 1 5.38611 7.18149 5.38611 -8.16072
148 1 3.59074 8.97686 5.38611 -8.0223
223 1 3.59074 7.18149 7.18149 -8.12146
224 1 5.38611 8.97686 7.18149 -8.0325
151 2 8.97686 7.18149 5.38611 -7.00757
152 3 7.18149 8.97686 5.38611 -6.35262
225 1 7.18149 7.18149 7.18149 -8.06989
226 2 8.97686 8.97686 7.18149 -6.94666
155 2 12.5676 7.18149 5.38611 -6.96142
156 2 10.7722 8.97686 5.38611 -6.99924
227 1 10.7722 7.18149 7.18149 -8.48534
228 3 12.5676 8.97686 7.18149 -6.45458
159 2 16.1583 7.18149 5.38611 -6.95505
160 3 14.363 8.97686 5.38611 -6.47674
229 3 14.363 7.18149 7.18149 -6.62218
230 1 16.1583 8.97686 7.18149 -8.5164
163 1 1.79537 10.7722 5.38611 -8.08874
164 2 0 12.5676 5.38611 -6.96318
231 2 0 10.7722 7.18149 -7.05178
232 3 1.79537 12.5676 7.18149 -6.355
167 2 5.38611 10.7722 5.38611 -7.01567
168 1 3.59074 12.5676 5.38611 -8.02825
233 1 3.59074 10.7722 7.18149 -8.22268
234 3 5.38611 12.5676 7.18149 -6.26138
171 3 8.97686 10.7722 5.38611 -6.33795
172 2 7.18149 12.5676 5.38611 -7.02152
235 1 7.18149 10.7722 7.18149 -8.33734
236 1 8.97686 12.5676 7.18149 -8.29068
175 3 12.5676 10.7722 5.38611 -6.23719
176 2 10.7722 12.5676 5.38611 -6.93024
237 1 10.7722 10.7722 7.18149 -8.40084
238 1 12.5676 12.5676 7.18149 -8.21788
179 2 16.1583 10.7722 5.38611 -6.97684
180 1 14.363 12.5676 5.38611 -8.13722
239 1 14.363 10.7722 7.18149 -8.20449
240 1 16.1583 12.5676 7.18149 -8.2491
183 1 1.79537 14.363 5.38611 -8.23484
184 2 0 16.1583 5.38611 -7.00293
241 1 0 14.363 7.18149 -8.4053
242 2 1.79537 16.1583 7.18149 -7.00104
187 1 5.38611 14.363 5.38611 -8.26429
188 3 3.59074 16.1583 5.38611 -6.20945
243 1 3.59074 14.363 7.18149 -8.48723
244 3 5.38611 16.1583 7.18149 -6.26877
191 3 8.97686 14.363 5.38611 -6.38826
192 1 7.18149 16.1583 5.38611 -8.19683
245 1 7.18149 14.363 7.18149 -8.20363
246 1 8.97686 16.1583 7.18149 -8.20514
195 1 12.5676 14.363 5.38611 -8.12763
196 2 10.7722 16.1583 5.38611 -6.9875
247 3 10.7722 14.363 7.18149 -6.2974
248 1 12.5676 16.1583 7.18149 -8.28278
199 1 16.1583 14.363 5.38611 -8.34555
200 1 14.363 16.1583 5.38611 -8.23282
249 2 14.363 14.363 7.18149 -7.01968
250 2 16.1583 16.1583 7.18149 -6.96251
251 1 1.79537 0 8.97686 -8.28424
252 1 0 1.79537 8.97686 -8.12828
301 2 0 0 10.7722 -6.95795
302 2 1.79537 1.79537 10.7722 -7.00665
303 1 1.79537 0 12.5676 -8.25851
304 3 0 1.79537 12.5676 -6.29199
253 2 5.38611 0 8.97686 -6.936
254 1 3.59074 1.79537 8.97686 -8.27994
305 3 3.59074 0 10.7722 -6.33175
306 3 5.38611 1.79537 10.7722 -6.429
307 1 5.38611 0 12.5676 -8.48684
308 2 3.59074 1.79537 12.5676 -7.00382
255 3 8.97686 0 8.97686 -6.37566
256 2 7.18149 1.79537 8.97686 -6.95273
309 1 7.18149 0 10.7722 -8.37926
310 1 8.97686 1.79537 10.7722 -8.18245
311 2 8.97686 0 12.5676 -6.94126
312 3 7.18149 1.79537 12.5676 -6.38793
257 2 12.5676 0 8.97686 -7.09455
258 1 10.7722 1.79537 8.97686 -8.23977
313 1 10.7722 0 10.7722 -8.32139
314 2 12.5676 1.79537 10.7722 -6.94823
315 3 12.5676 0 12.5676 -6.30553
316 1 10.7722 1.79537 12.5676 -8.13952
259 1 16.1583 0 8.97686 -8.18324
260 3 14.363 1.79537 8.97686 -6.50049
317 3 14.363 0 10.7722 -6.42133
318 1 16.1583 1.79537 10.7722 -8.40387
319 3 16.1583 0 12.5676 -6.28084
320 1 14.363 1.79537 12.5676 -8.50824
261 1 1.79537 3.59074 8.97686 -7.96977
262 2 0 5.38611 8.97686 -7.05669
321 1 0 3.59074 10.7722 -8.13301
322 1 1.79537 5.38611 10.7722 -8.10165
323 2 1.79537 3.59074 12.5676 -7.02343
324 1 0 5.38611 12.5676 -8.10845
263 2 5.38611 3.59074 8.97686 -6.98404
264 2 3.59074 5.38611 8.97686 -6.99441
325 1 3.59074 3.59074 10.7722 -8.30593
326 3 5.38611 5.38611 10.7722 -6.4059
327 3 5.38611 3.59074 12.5676 -6.44639
328 3 3.59074 5.38611 12.5676 -6.28506
265 3 8.97686 3.59074 8.97686 -6.40501
266 1 7.18149 5.38611 8.97686 -8.29663
329 3 7.18149 3.59074 10.7722 -6.44865
330 2 8.97686 5.38611 10.7722 -6.9882
331 1 8.97686 3.59074 12.5676 -8.2239
332 1 7.18149 5.38611 12.5676 -8.41607
267 2 12.5676 3.59074 8.97686 -6.98978
268 3 10.7722 5.38611 8.97686 -6.48825
333 2 10.7722 3.59074 10.7722 -6.98897
334 1 12.5676 5.38611 10.7722 -8.47065
335 3 12.5676 3.59074 12.5676 -6.40994
336 2 10.7722 5.38611 12.5676 -7.06629
269 2 16.1583 3.59074 8.97686 -6.97141
270 3 14.363 5.38611 8.97686 -6.47486
337 3 14.363 3.59074 10.7722 -6.44965
338 1 16.1583 5.38611 10.7722 -8.4774
339 3 16.1583 3.59074 12.5676 -6.315
340 2 14.363 5.38611 12.5676 -6.94938
271 3 1.79537 7.18149 8.97686 -6.34777
272 1 0 8.97686 8.97686 -8.29017
341 2 0 7.18149 10.7722 -7.03831
342 1 1.79537 8.97686 10.7722 -8.23287
343 2 1.79537 7.18149 12.5676 -7.0571
344 1 0 8.97686 12.5676 -8.12451
273 2 5.38611 7.18149 8.97686 -7.03036
274 2 3.59074 8.97686 8.97686 -7.01775
345 1 3.59074 7.18149 10.7722 -8.28971
346 1 5.38611 8.97686 10.7722 -8.40641
347 3 5.38611 7.18149 12.5676 -6.35997
348 2 3.59074 8.97686 12.5676 -7.00932
275 1 8.97686 7.18149 8.97686 -8.33973
276 2 7.18149 8.97686 8.97686 -7.03059
349 3 7.18149 7.18149 10.7722 -6.4801
350 3 8.97686 8.97686 10.7722 -6.53154
351 2 8.97686 7.18149 12.5676 -7.11265
352 3 7.18149 8.97686 12.5676 -6.49402
277 2 12.5676 7.18149 8.97686 -6.92296
278 3 10.7722 8.97686 8.97686 -6.40953
353 2 10.7722 7.18149 10.7722 -7.06064
354 1 12.5676 8.97686 10.7722 -8.46346
355 2 12.5676 7.18149 12.5676 -7.15871
356 2 10.7722 8.97686 12.5676 -7.16193
279 2 16.1583 7.18149 8.97686 -6.99505
280 3 14.363 8.97686 8.97686 -6.42784
357 1 14.363 7.18149 10.7722 -8.19886
358 2 16.1583 8.97686 10.7722 -6.9667
359 2 16.1583 7.18149 12.5676 -6.98277
360 2 14.363 8.97686 12.5676 -7.00874
281 2 1.79537 10.7722 8.97686 -7.07879
282 2 0 12.5676 8.97686 -7.04196
361 3 0 10.7722 10.7722 -6.51449
362 2 1.79537 12.5676 10.7722 -7.07398
363 2 1.79537 10.7722 12.5676 -7.05576
364 2 0 12.5676 12.5676 -7.03541
283 2 5.38611 10.7722 8.97686 -6.97079
284 3 3.59074 12.5676 8.97686 -6.42576
365 3 3.59074 10.7722 10.7722 -6.6443
366 3 5.38611 12.5676 10.7722 -6.45043
367 3 5.38611 10.7722 12.5676 -6.43179
368 2 3.59074 12.5676 12.5676 -7.01614
285 1 8.97686 10.7722 8.97686 -8.29989
286 3 7.18149 12.5676 8.97686 -6.24087
369 1 7.18149 10.7722 10.7722 -8.48852
370 3 8.97686 12.5676 10.7722 -6.39361
371 3 8.97686 10.7722 12.5676 -6.4421
372 3 7.18149 12.5676 12.5676 -6.28252
287 3 12.5676 10.7722 8.97686 -6.3504
288 3 10.7722 12.5676 8.97686 -6.40359
373 2 10.7722 10.7722 10.7722 -6.9849
374 2 12.5676 12.5676 10.7722 -6.97361
375 2 12.5676 10.7722 12.5676 -7.04732
376 2 10.7722 12.5676 12.5676 -7.02935
289 2 16.1583 10.7722 8.97686 -6.93949
290 1 14.363 12.5676 8.97686 -8.15576
377 3 14.363 10.7722 10.7722 -6.42249
378 1 16.1583 12.5676 10.7722 -8.18172
379 1 16.1583 10.7722 12.5676 -8.26852
380 1 14.363 12.5676 12.5676 -8.18532
291 3 1.79537 14.363 8.97686 -6.39649
292 1 0 16.1583 8.97686 -8.09836
381 3 0 14.363 10.7722 -6.47258
382 1 1.79537 16.1583 10.7722 -8.2535
383 2 1.79537 14.363 12.5676 -7.05717
384 1 0 16.1583 12.5676 -8.37751
293 3 5.38611 14.363 8.97686 -6.23631
294 3 3.59074 16.1583 8.97686 -6.39911
385 1 3.59074 14.363 10.7722 -8.49918
386 3 5.38611 16.1583 10.7722 -6.53173
387 2 5.38611 14.363 12.5676 -6.9928
388 2 3.59074 16.1583 12.5676 -7.03192
295 2 8.97686 14.363 8.97686 -6.95607
296 1 7.18149 16.1583 8.97686 -8.34027
389 1 7.18149 14.363 10.7722 -8.42375
390 1 8.97686 16.1583 10.7722 -8.1914
391 1 8.97686 14.363 12.5676 -8.2436
392 2 7.18149 16.1583 12.5676 -7.05746
297 3 12.5676 14.363 8.97686 -6.40776
298 2 10.7722 16.1583 8.97686 -6.96874
393 3 10.7722 14.363 10.7722 -6.49626
394 3 12.5676 16.1583 10.7722 -6.51175
395 1 12.5676 14.363 12.5676 -8.33323
396 2 10.7722 16.1583 12.5676 -6.99215
299 3 16.1583 14.363 8.97686 -6.38257
300 3 14.363 16.1583 8.97686 -6.47484
397 1 14.363 14.363 10.7722 -8.31253
398 3 16.1583 16.1583 10.7722 -6.47709
399 2 16.1583 14.363 12.5676 -6.98637
400 2 14.363 16.1583 12.5676 -7.03453
401 1 0 0 14.363 -8.08747
402 1 1.79537 1.79537 14.363 -8.12396
403 1 1.79537 0 16.1583 -8.0259
404 3 0 1.79537 16.1583 -6.27517
405 3 3.59074 0 14.363 -6.35216
406 2 5.38611 1.79537 14.363 -6.97949
407 2 5.38611 0 16.1583 -6.97376
408 1 3.59074 1.79537 16.1583 -8.12339
409 1 7.18149 0 14.363 -8.40355
410 3 8.97686 1.79537 14.363 -6.30175
411 2 8.97686 0 16.1583 -6.97207
412 3 7.18149 1.79537 16.1583 -6.52185
413 1 10.7722 0 14.363 -8.28338
414 2 12.5676 1.79537 14.363 -6.90049
415 3 12.5676 0 16.1583 -6.33828
416 1 10.7722 1.79537 16.1583 -8.27984
417 3 14.363 0 14.363 -6.22759
418 1 16.1583 1.79537 14.363 -8.41235
419 1 16.1583 0 16.1583 -8.22754
420 1 14.363 1.79537 16.1583 -8.31817
421 1 0 3.59074 14.363 -8.38461
422 1 1.79537 5.38611 14.363 -8.02961
423 2 1.79537 3.59074 16.1583 -7.06754
424 2 0 5.38611 16.1583 -7.00707
425 2 3.59074 3.59074 14.363 -6.99054
426 1 5.38611 5.38611 14.363 -8.37506
427 2 5.38611 3.59074 16.1583 -7.02161
428 1 3.59074 5.38611 16.1583 -7.98652
429 3 7.18149 3.59074 14.363 -6.44499
430 2 8.97686 5.38611 14.363 -7.02257
431 1 8.97686 3.59074 16.1583 -8.42343
432 3 7.18149 5.38611 16.1583 -6.58846
433 1 10.7722 3.59074 14.363 -8.11195
434 3 12.5676 5.38611 14.363 -6.48914
435 1 12.5676 3.59074 16.1583 -8.12809
436 1 10.7722 5.38611 16.1583 -8.32746
437 3 14.363 3.59074 14.363 -6.31244
438 1 16.1583 5.38611 14.363 -8.45562
439 2 16.1583 3.59074 16.1583 -6.96788
440 1 14.363 5.38611 16.1583 -8.35057
441 1 0 7.18149 14.363 -8.18666
442 3 1.79537 8.97686 14.363 -6.3604
443 1 1.79537 7.18149 16.1583 -8.06092
444 3 0 8.97686 16.1583 -6.35344
445 1 3.59074 7.18149 14.363 -8.26853
446 2 5.38611 8.97686 14.363 -6.90945
447 2 5.38611 7.18149 16.1583 -6.99345
448 2 3.59074 8.97686 16.1583 -7.0378
449 3 7.18149 7.18149 14.363 -6.61075
450 2 8.97686 8.97686 14.363 -7.0251
451 2 8.97686 7.18149 16.1583 -7.03741
452 3 7.18149 8.97686 16.1583 -6.47341
453 2 10.7722 7.18149 14.363 -7.13836
454 2 12.5676 8.97686 14.363 -7.01565
455 3 12.5676 7.18149 16.1583 -6.47802
456 3 10.7722 8.97686 16.1583 -6.49789
457 3 14.363 7.18149 14.363 -6.49115
458 1 16.1583 8.97686 14.363 -8.33633
459 3 16.1583 7.18149 16.1583 -6.21739
460 3 14.363 8.97686 16.1583 -6.33353
461 1 0 10.7722 14.363 -8.26649
462 3 1.79537 12.5676 14.363 -6.46694
463 1 1.79537 10.7722 16.1583 -8.18333
464 1 0 12.5676 16.1583 -8.22987
465 3 3.59074 10.7722 14.363 -6.54548
466 1 5.38611 12.5676 14.363 -8.41779
467 3 5.38611 10.7722 16.1583 -6.41826
468 1 3.59074 12.5676 16.1583 -8.43209
469 1 7.18149 10.7722 14.363 -8.33823
470 1 8.97686 12.5676 14.363 -8.08491
471 1 8.97686 10.7722 16.1583 -8.26616
472 2 7.18149 12.5676 16.1583 -7.02246
473 1 10.7722 10.7722 14.363 -8.41649
474 3 12.5676 12.5676 14.363 -6.32894
475 3 12.5676 10.7722 16.1583 -6.30314
476 2 10.7722 12.5676 16.1583 -7.03153
477 1 14.363 10.7722 14.363 -8.38763
478 3 16.1583 12.5676 14.363 -6.38144
479 3 16.1583 10.7722 16.1583 -6.1968
480 3 14.363 12.5676 16.1583 -6.26336
481 1 0 14.363 14.363 -8.2424
482 2 1.79537 16.1583 14.363 -6.97955
483 3 1.79537 14.363 16.1583 -6.38852
484 1 0 16.1583 16.1583 -8.52016
485 3 3.59074 14.363 14.363 -6.56825
486 3 5.38611 16.1583 14.363 -6.61795
487 2 5.38611 14.363 16.1583 -6.97436
488 1 3.59074 16.1583 16.1583 -8.61635
489 3 7.18149 14.363 14.363 -6.44104
490 2 8.97686 16.1583 14.363 -7.03704
491 1 8.97686 14.363 16.1583 -8.05185
492 1 7.18149 16.1583 16.1583 -8.32577
493 1 10.7722 14.363 14.363 -8.09721
494 3 12.5676 16.1583 14.363 -6.40895
495 1 12.5676 14.363 16.1583 -8.27091
496 2 10.7722 16.1583 16.1583 -6.95074
497 2 14.363 14.363 14.363 -6.94351
498 2 16.1583 16.1583 14.363 -7.16513
499 3 16.1583 14.363 16.1583 -6.46027
500 3 14.363 16.1583 16.1583 -6.36879
501 1 0 0 17.9537 -8.05872
502 1 1.79537 1.79537 17.9537 -8.20546
503 3 1.79537 0 19.7491 -6.32037
504 2 0 1.79537 19.7491 -7.06051
601 2 0 0 21.5445 -6.97464
602 1 1.79537 1.79537 21.5445 -8.41729
505 3 3.59074 0 17.9537 -6.28003
506 1 5.38611 1.79537 17.9537 -8.29639
507 1 5.38611 0 19.7491 -8.43028
508 2 3.59074 1.79537 19.7491 -7.02779
605 2 3.59074 0 21.5445 -6.97671
606 2 5.38611 1.79537 21.5445 -6.91673
509 3 7.18149 0 17.9537 -6.57105
510 3 8.97686 1.79537 17.9537 -6.54727
511 3 8.97686 0 19.7491 -6.50213
512 3 7.18149 1.79537 19.7491 -6.43506
609 3 7.18149 0 21.5445 -6.38598
610 1 8.97686 1.79537 21.5445 -8.30911
513 3 10.7722 0 17.9537 -6.47863
514 3 12.5676 1.79537 17.9537 -6.47425
515 2 12.5676 0 19.7491 -6.95695
516 2 10.7722 1.79537 19.7491 -6.89911
613 3 10.7722 0 21.5445 -6.30059
614 1 12.5676 1.79537 21.5445 -8.24431
517 2 14.363 0 17.9537 -6.96419
518 2 16.1583 1.79537 17.9537 -7.06015
519 2 16.1583 0 19.7491 -6.99693
520 3 14.363 1.79537 19.7491 -6.53885
617 2 14.363 0 21.5445 -6.99972
618 1 16.1583 1.79537 21.5445 -8.34767
521 2 0 3.59074 17.9537 -7.00634
522 1 1.79537 5.38611 17.9537 -8.14203
523 2 1.79537 3.59074 19.7491 -7.12982
524 2 0 5.38611 19.7491 -6.9713
621 1 0 3.59074 21.5445 -8.2215
622 1 1.79537 5.38611 21.5445 -7.96137
525 1 3.59074 3.59074 17.9537 -8.00614
526 3 5.38611 5.38611 17.9537 -6.4103
527 2 5.38611 3.59074 19.7491 -7.03819
528 1 3.59074 5.38611 19.7491 -8.05639
625 1 3.59074 3.59074 21.5445 -8.28435
626 2 5.38611 5.38611 21.5445 -7.03986
529 2 7.18149 3.59074 17.9537 -6.95929
530 2 8.97686 5.38611 17.9537 -6.98169
531 3 8.97686 3.59074 19.7491 -6.4291
532 1 7.18149 5.38611 19.7491 -8.48576
629 1 7.18149 3.59074 21.5445 -8.25501
630 3 8.97686 5.38611 21.5445 -6.37928
533 2 10.7722 3.59074 17.9537 -6.98247
534 2 12.5676 5.38611 17.9537 -6.90082
535 1 12.5676 3.59074 19.7491 -8.3008
536 1 10.7722 5.38611 19.7491 -8.39732
633 3 10.7722 3.59074 21.5445 -6.17721
634 1 12.5676 5.38611 21.5445 -8.06759
537 2 14.363 3.59074 17.9537 -7.0571
538 1 16.1583 5.38611 17.9537 -8.40132
539 3 16.1583 3.59074 19.7491 -6.4552
540 3 14.363 5.38611 19.7491 -6.3688
637 2 14.363 3.59074 21.5445 -7.00293
638 1 16.1583 5.38611 21.5445 -8.50378
541 3 0 7.18149 17.9537 -6.36233
542 1 1.79537 8.97686 17.9537 -8.24181
543 3 1.79537 7.18149 19.7491 -6.20388
544 2 0 8.97686 19.7491 -6.99751
641 1 0 7.18149 21.5445 -8.18348
642 1 1.79537 8.97686 21.5445 -8.11868
545 1 3.59074 7.18149 17.9537 -8.01333
546 1 5.38611 8.97686 17.9537 -8.2396
547 2 5.38611 7.18149 19.7491 -7.04089
548 2 3.59074 8.97686 19.7491 -7.04375
645 1 3.59074 7.18149 21.5445 -8.14143
646 2 5.38611 8.97686 21.5445 -7.03217
549 3 7.18149 7.18149 17.9537 -6.50282
550 3 8.97686 8.97686 17.9537 -6.34866
551 3 8.97686 7.18149 19.7491 -6.37418
552 1 7.18149 8.97686 19.7491 -8.32704
649 2 7.18149 7.18149 21.5445 -7.04984
650 3 8.97686 8.97686 21.5445 -6.52344
553 3 10.7722 7.18149 17.9537 -6.34707
554 1 12.5676 8.97686 17.9537 -8.4113
555 1 12.5676 7.18149 19.7491 -8.26581
556 1 10.7722 8.97686 19.7491 -8.32656
653 2 10.7722 7.18149 21.5445 -7.04094
654 3 12.5676 8.97686 21.5445 -6.36928
557 3 14.363 7.18149 17.9537 -6.30814
558 3 16.1583 8.97686 17.9537 -6.29362
559 3 16.1583 7.18149 19.7491 -6.37287
560 3 14.363 8.97686 19.7491 -6.38661
657 2 14.363 7.18149 21.5445 -6.98152
658 2 16.1583 8.97686 21.5445 -6.86262
561 2 0 10.7722 17.9537 -7.02603
562 2 1.79537 12.5676 17.9537 -7.09083
563 2 1.79537 10.7722 19.7491 -7.15499
564 2 0 12.5676 19.7491 -7.04946
661 1 0 10.7722 21.5445 -8.44799
662 2 1.79537 12.5676 21.5445 -7.09582
565 2 3.59074 10.7722 17.9537 -7.0651
566 2 5.38611 12.5676 17.9537 -7.01882
567 1 5.38611 10.7722 19.7491 -8.28283
568 2 3.59074 12.5676 19.7491 -7.16975
665 2 3.59074 10.7722 21.5445 -7.05933
666 3 5.38611 12.5676 21.5445 -6.71463
569 1 7.18149 10.7722 17.9537 -8.17064
570 2 8.97686 12.5676 17.9537 -6.97652
571 1 8.97686 10.7722 19.7491 -8.25021
572 3 7.18149 12.5676 19.7491 -6.49183
669 3 7.18149 10.7722 21.5445 -6.55844
670 3 8.97686 12.5676 21.5445 -6.53055
573 3 10.7722 10.7722 17.9537 -6.26574
574 1 12.5676 12.5676 17.9537 -8.09376
575 1 12.5676 10.7722 19.7491 -8.24085
576 1 10.7722 12.5676 19.7491 -8.25121
673 2 10.7722 10.7722 21.5445 -6.95763
674 3 12.5676 12.5676 21.5445 -6.31491
577 1 14.363 10.7722 17.9537 -8.35643
578 1 16.1583 12.5676 17.9537 -8.24243
579 3 16.1583 10.7722 19.7491 -6.29649
580 2 14.363 12.5676 19.7491 -6.91279
677 3 14.363 10.7722 21.5445 -6.37288
678 1 16.1583 12.5676 21.5445 -8.41457
581 3 0 14.363 17.9537 -6.5291
582 2 1.79537 16.1583 17.9537 -6.94103
583 3 1.79537 14.363 19.7491 -6.66172
584 3 0 16.1583 19.7491 -6.59376
681 1 0 14.363 21.5445 -8.58569
682 2 1.79537 16.1583 21.5445 -7.0508
585 2 3.59074 14.363 17.9537 -7.01475
586 3 5.38611 16.1583 17.9537 -6.45676
587 3 5.38611 14.363 19.7491 -6.62855
588 1 3.59074 16.1583 19.7491 -8.3937
685 2 3.59074 14.363 21.5445 -7.1105
686 3 5.38611 16.1583 21.5445 -6.58448
589 1 7.18149 14.363 17.9537 -8.4638
590 2 8.97686 16.1583 17.9537 -7.05607
591 3 8.97686 14.363 19.7491 -6.48628
592 3 7.18149 16.1583 19.7491 -6.53661
689 2 7.18149 14.363 21.5445 -7.07315
690 2 8.97686 16.1583 21.5445 -7.08152
593 1 10.7722 14.363 17.9537 -8.09049
594 3 12.5676 16.1583 17.9537 -6.18003
595 2 12.5676 14.363 19.7491 -6.9583
596 1 10.7722 16.1583 19.7491 -8.137
693 2 10.7722 14.363 21.5445 -7.01357
694 1 12.5676 16.1583 21.5445 -8.15286
597 1 14.363 14.363 17.9537 -8.33659
598 1 16.1583 16.1583 17.9537 -8.26343
599 3 16.1583 14.363 19.7491 -6.22016
600 3 14.363 16.1583 19.7491 -6.11666
697 1 14.363 14.363 21.5445 -8.21508
698 1 16.1583 16.1583 21.5445 -8.27736
603 3 1.79537 0 23.3398 -6.43268
604 3 0 1.79537 23.3398 -6.43248
701 1 0 0 25.1352 -8.30205
702 2 1.79537 1.79537 25.1352 -7.05513
607 3 5.38611 0 23.3398 -6.37126
608 3 3.59074 1.79537 23.3398 -6.50095
703 3 3.59074 0 25.1352 -6.37534
704 1 5.38611 1.79537 25.1352 -8.35473
611 1 8.97686 0 23.3398 -8.29259
612 1 7.18149 1.79537 23.3398 -8.14191
705 3 7.18149 0 25.1352 -6.26946
706 1 8.97686 1.79537 25.1352 -8.09913
615 3 12.5676 0 23.3398 -6.40733
616 1 10.7722 1.79537 23.3398 -8.17158
707 3 10.7722 0 25.1352 -6.35655
708 2 12.5676 1.79537 25.1352 -6.9803
619 1 16.1583 0 23.3398 -8.32493
620 1 14.363 1.79537 23.3398 -8.25435
709 3 14.363 0 25.1352 -6.47872
710 2 16.1583 1.79537 25.1352 -6.88527
623 2 1.79537 3.59074 23.3398 -7.04947
624 1 0 5.38611 23.3398 -8.21693
711 2 0 3.59074 25.1352 -6.99832
712 3 1.79537 5.38611 25.1352 -6.4245
627 3 5.38611 3.59074 23.3398 -6.42198
628 2 3.59074 5.38611 23.3398 -6.99149
713 2 3.59074 3.59074 25.1352 -7.07651
714 1 5.38611 5.38611 25.1352 -8.39621
631 1 8.97686 3.59074 23.3398 -8.06007
632 2 7.18149 5.38611 23.3398 -7.02759
715 2 7.18149 3.59074 25.1352 -7.06322
716 2 8.97686 5.38611 25.1352 -7.12268
635 1 12.5676 3.59074 23.3398 -8.05018
636 1 10.7722 5.38611 23.3398 -8.18483
717 2 10.7722 3.59074 25.1352 -7.13856
718 2 12.5676 5.38611 25.1352 -7.11038
639 3 16.1583 3.59074 23.3398 -6.37348
640 2 14.363 5.38611 23.3398 -6.98675
719 2 14.363 3.59074 25.1352 -7.11692
720 3 16.1583 5.38611 25.1352 -6.58746
643 1 1.79537 7.18149 23.3398 -8.08731
644 1 0 8.97686 23.3398 -8.23505
721 3 0 7.18149 25.1352 -6.3265
722 3 1.79537 8.97686 25.1352 -6.25466
647 3 5.38611 7.18149 23.3398 -6.49786
648 1 3.59074 8.97686 23.3398 -8.33796
723 3 3.59074 7.18149 25.1352 -6.37506
724 2 5.38611 8.97686 25.1352 -6.98607
651 2 8.97686 7.18149 23.3398 -7.14015
652 2 7.18149 8.97686 23.3398 -7.09339
725 1 7.18149 7.18149 25.1352 -8.25873
726 2 8.97686 8.97686 25.1352 -7.15667
655 1 12.5676 7.18149 23.3398 -8.24982
656 2 10.7722 8.97686 23.3398 -7.06987
727 2 10.7722 7.18149 25.1352 -7.14408
728 2 12.5676 8.97686 25.1352 -7.10743
659 3 16.1583 7.18149 23.3398 -6.41685
660 1 14.363 8.97686 23.3398 -8.55872
729 3 14.363 7.18149 25.1352 -6.53462
730 3 16.1583 8.97686 25.1352 -6.28989
663 3 1.79537 10.7722 23.3398 -6.36499
664 3 0 12.5676 23.3398 -6.4255
731 2 0 10.7722 25.1352 -6.95362
732 1 1.79537 12.5676 25.1352 -8.25852
667 3 5.38611 10.7722 23.3398 -6.6724
668 2 3.59074 12.5676 23.3398 -7.10844
733 1 3.59074 10.7722 25.1352 -8.33744
734 3 5.38611 12.5676 25.1352 -6.66826
671 3 8.97686 10.7722 23.3398 -6.68026
672 2 7.18149 12.5676 23.3398 -7.12972
735 2 7.18149 10.7722 25.1352 -7.07262
736 2 8.97686 12.5676 25.1352 -7.11691
675 2 12.5676 10.7722 23.3398 -6.95227
676 1 10.7722 12.5676 23.3398 -8.4207
737 1 10.7722 10.7722 25.1352 -8.35762
738 3 12.5676 12.5676 25.1352 -6.5078
679 3 16.1583 10.7722 23.3398 -6.28408
680 1 14.363 12.5676 23.3398 -8.29155
739 2 14.363 10.7722 25.1352 -6.91436
740 1 16.1583 12.5676 25.1352 -8.23191
683 2 1.79537 14.363 23.3398 -7.12434
684 2 0 16.1583 23.3398 -7.0912
741 3 0 14.363 25.1352 -6.44591
742 2 1.79537 16.1583 25.1352 -7.05283
687 2 5.38611 14.363 23.3398 -7.1069
688 3 3.59074 16.1583 23.3398 -6.6456
743 2 3.59074 14.363 25.1352 -7.07606
744 1 5.38611 16.1583 25.1352 -8.50961
691 2 8.97686 14.363 23.3398 -7.13063
692 3 7.18149 16.1583 23.3398 -6.60692
745 3 7.18149 14.363 25.1352 -6.65029
746 2 8.97686 16.1583 25.1352 -6.97534
695 1 12.5676 14.363 23.3398 -8.25477
696 2 10.7722 16.1583 23.3398 -7.04862
747 2 10.7722 14.363 25.1352 -7.04244
748 3 12.5676 16.1583 25.1352 -6.55735
699 3 16.1583 14.363 23.3398 -6.25029
700 3 14.363 16.1583 23.3398 -6.2364
749 3 14.363 14.363 25.1352 -6.44483
750 1 16.1583 16.1583 25.1352 -8.46653
751 2 1.79537 0 26.9306 -7.01655
752 2 0 1.79537 26.9306 -7.00566
801 1 0 0 28.7259 -8.43419
802 3 1.79537 1.79537 28.7259 -6.51772
803 2 1.79537 0 30.5213 -6.97475
804 3 0 1.79537 30.5213 -6.51039
753 2 5.38611 0 26.9306 -7.00469
754 1 3.59074 1.79537 26.9306 -8.13132
805 1 3.59074 0 28.7259 -8.07999
806 1 5.38611 1.79537 28.7259 -8.22789
807 2 5.38611 0 30.5213 -6.92393
808 3 3.59074 1.79537 30.5213 -6.51755
755 1 8.97686 0 26.9306 -8.32859
756 1 7.18149 1.79537 26.9306 -8.13654
809 3 7.18149 0 28.7259 -6.34775
810 1 8.97686 1.79537 28.7259 -8.17255
811 2 8.97686 0 30.5213 -6.99816
812 1 7.18149 1.79537 30.5213 -8.22537
757 3 12.5676 0 26.9306 -6.5043
758 2 10.7722 1.79537 26.9306 -6.94532
813 1 10.7722 0 28.7259 -8.21809
814 3 12.5676 1.79537 28.7259 -6.44279
815 2 12.5676 0 30.5213 -6.97998
816 1 10.7722 1.79537 30.5213 -8.12585
759 3 16.1583 0 26.9306 -6.59728
760 1 14.363 1.79537 26.9306 -8.53299
817 3 14.363 0 28.7259 -6.62353
818 2 16.1583 1.79537 28.7259 -7.13465
819 2 16.1583 0 30.5213 -7.23799
820 2 14.363 1.79537 30.5213 -7.06383
761 1 1.79537 3.59074 26.9306 -8.42319
762 3 0 5.38611 26.9306 -6.64773
821 2 0 3.59074 28.7259 -7.04681
822 2 1.79537 5.38611 28.7259 -7.16309
823 3 1.79537 3.59074 30.5213 -6.74139
824 2 0 5.38611 30.5213 -7.17032
763 2 5.38611 3.59074 26.9306 -7.05001
764 2 3.59074 5.38611 26.9306 -7.05681
825 2 3.59074 3.59074 28.7259 -7.08325
826 2 5.38611 5.38611 28.7259 -7.07128
827 3 5.38611 3.59074 30.5213 -6.43468
828 2 3.59074 5.38611 30.5213 -7.15442
765 2 8.97686 3.59074 26.9306 -7.04392
766 3 7.18149 5.38611 26.9306 -6.56181
829 3 7.18149 3.59074 28.7259 -6.48076
830 2 8.97686 5.38611 28.7259 -7.02846
831 3 8.97686 3.59074 30.5213 -6.42266
832 3 7.18149 5.38611 30.5213 -6.58549
767 1 12.5676 3.59074 26.9306 -8.31994
768 1 10.7722 5.38611 26.9306 -8.24515
833 2 10.7722 3.59074 28.7259 -6.96456
834 3 12.5676 5.38611 28.7259 -6.44149
835 1 12.5676 3.59074 30.5213 -8.34677
836 3 10.7722 5.38611 30.5213 -6.37016
769 2 16.1583 3.59074 26.9306 -7.05676
770 2 14.363 5.38611 26.9306 -7.11012
837 2 14.363 3.59074 28.7259 -7.06861