ITEM: TIMESTEP
0
ITEM: NUMBER OF ATOMS
4000
ITEM: BOX BOUNDS pp pp pp
0.0000000000000000e+00 3.5627870000000001e+01
0.0000000000000000e+00 3.5627870000000001e+01
0.0000000000000000e+00 3.5627870000000001e+01
ITEM: ATOMS id type x y z c_peratom
1 2 0 0 0 -6.95191
2 1 1.78139 1.78139 0 -8.38729
3 3 1.78139 0 1.78139 -6.34364
4 1 0 1.78139 1.78139 -8.72155
101 2 0 0 3.56279 -6.95418
102 3 1.78139 1.78139 3.56279 -6.40279
5 1 3.56279 0 0 -8.22908
6 1 5.34418 1.78139 0 -8.10388
7 2 5.34418 0 1.78139 -6.96361
8 1 3.56279 1.78139 1.78139 -8.56883
105 2 3.56279 0 3.56279 -7.01216
106 3 5.34418 1.78139 3.56279 -6.44117
9 2 7.12557 0 0 -6.88514
10 3 8.90697 1.78139 0 -6.43776
11 3 8.90697 0 1.78139 -6.47389
12 1 7.12557 1.78139 1.78139 -8.5965
109 2 7.12557 0 3.56279 -6.97786
110 2 8.90697 1.78139 3.56279 -6.97269
13 1 10.6884 0 0 -8.80311
14 2 12.4698 1.78139 0 -6.92435
15 2 12.4698 0 1.78139 -6.93832
16 3 10.6884 1.78139 1.78139 -6.50711
113 3 10.6884 0 3.56279 -6.49529
114 1 12.4698 1.78139 3.56279 -8.49258
17 1 14.2511 0 0 -8.63427
18 1 16.0325 1.78139 0 -8.31259
19 3 16.0325 0 1.78139 -6.37258
20 2 14.2511 1.78139 1.78139 -7.02729
117 1 14.2511 0 3.56279 -8.44422
118 2 16.0325 1.78139 3.56279 -6.97329
21 3 0 3.56279 0 -6.48262
22 1 1.78139 5.34418 0 -8.73718
23 3 1.78139 3.56279 1.78139 -6.41975
24 3 0 5.34418 1.78139 -6.52816
121 3 0 3.56279 3.56279 -6.40816
122 3 1.78139 5.34418 3.56279 -6.45566
25 2 3.56279 3.56279 0 -6.92178
26 1 5.34418 5.34418 0 -8.75209
27 3 5.34418 3.56279 1.78139 -6.44882
28 3 3.56279 5.34418 1.78139 -6.51822
125 3 3.56279 3.56279 3.56279 -6.32294
126 3 5.34418 5.34418 3.56279 -6.57194
29 2 7.12557 3.56279 0 -6.86815
30 1 8.90697 5.34418 0 -8.78888
31 3 8.90697 3.56279 1.78139 -6.49148
32 3 7.12557 5.34418 1.78139 -6.5457
129 2 7.12557 3.56279 3.56279 -6.9959
130 2 8.90697 5.34418 3.56279 -7.00422
33 3 10.6884 3.56279 0 -6.41702
34 2 12.4698 5.34418 0 -7.02102
35 1 12.4698 3.56279 1.78139 -8.30132
36 1 10.6884 5.34418 1.78139 -8.39218
133 2 10.6884 3.56279 3.56279 -6.97398
134 2 12.4698 5.34418 3.56279 -7.00887
37 2 14.2511 3.56279 0 -6.96615
38 1 16.0325 5.34418 0 -8.20037
39 2 16.0325 3.56279 1.78139 -7.05855
40 2 14.2511 5.34418 1.78139 -7.04261
137 1 14.2511 3.56279 3.56279 -8.22447
138 2 16.0325 5.34418 3.56279 -7.09495
41 3 0 7.12557 0 -6.57969
42 1 1.78139 8.90697 0 -8.75519
43 2 1.78139 7.12557 1.78139 -6.88801
44 3 0 8.90697 1.78139 -6.55691
141 1 0 7.12557 3.56279 -8.86464
142 3 1.78139 8.90697 3.56279 -6.51888
45 2 3.56279 7.12557 0 -6.941
46 2 5.34418 8.90697 0 -6.88316
47 3 5.34418 7.12557 1.78139 -6.51446
48 3 3.56279 8.90697 1.78139 -6.48457
145 3 3.56279 7.12557 3.56279 -6.50782
146 1 5.34418 8.90697 3.56279 -8.5973
49 3 7.12557 7.12557 0 -6.33559
50 1 8.90697 8.90697 0 -8.47115
51 3 8.90697 7.12557 1.78139 -6.42339
52 3 7.12557 8.90697 1.78139 -6.36211
149 2 7.12557 7.12557 3.56279 -6.97058
150 3 8.90697 8.90697 3.56279 -6.41528
53 2 10.6884 7.12557 0 -6.96643
54 2 12.4698 8.90697 0 -7.0184
55 1 12.4698 7.12557 1.78139 -8.17235
56 1 10.6884 8.90697 1.78139 -8.25635
153 3 10.6884 7.12557 3.56279 -6.35253
154 2 12.4698 8.90697 3.56279 -6.96859
57 1 14.2511 7.12557 0 -8.07494
58 3 16.0325 8.90697 0 -6.20769
59 2 16.0325 7.12557 1.78139 -7.05177
60 1 14.2511 8.90697 1.78139 -8.3275
157 2 14.2511 7.12557 3.56279 -7.04523
158 1 16.0325 8.90697 3.56279 -8.34201
61 3 0 10.6884 0 -6.50511
62 3 1.78139 12.4698 0 -6.50313
63 3 1.78139 10.6884 1.78139 -6.52973
64 1 0 12.4698 1.78139 -8.64706
161 3 0 10.6884 3.56279 -6.45768
162 2 1.78139 12.4698 3.56279 -6.97138
65 2 3.56279 10.6884 0 -6.90664
66 1 5.34418 12.4698 0 -8.70785
67 1 5.34418 10.6884 1.78139 -8.56068
68 3 3.56279 12.4698 1.78139 -6.36968
165 2 3.56279 10.6884 3.56279 -6.98585
166 2 5.34418 12.4698 3.56279 -6.9847
69 3 7.12557 10.6884 0 -6.18617
70 1 8.90697 12.4698 0 -8.42416
71 1 8.90697 10.6884 1.78139 -8.34682
72 3 7.12557 12.4698 1.78139 -6.26211
169 2 7.12557 10.6884 3.56279 -6.90447
170 2 8.90697 12.4698 3.56279 -6.9934
73 1 10.6884 10.6884 0 -8.077
74 1 12.4698 12.4698 0 -8.13854
75 3 12.4698 10.6884 1.78139 -6.15656
76 3 10.6884 12.4698 1.78139 -6.28814
173 1 10.6884 10.6884 3.56279 -8.24826
174 3 12.4698 12.4698 3.56279 -6.34351
77 1 14.2511 10.6884 0 -8.24145
78 2 16.0325 12.4698 0 -6.8996
79 3 16.0325 10.6884 1.78139 -6.2471
80 1 14.2511 12.4698 1.78139 -8.50048
177 3 14.2511 10.6884 3.56279 -6.34062
178 2 16.0325 12.4698 3.56279 -6.84801
81 3 0 14.2511 0 -6.35564
82 3 1.78139 16.0325 0 -6.40865
83 1 1.78139 14.2511 1.78139 -8.5076
84 1 0 16.0325 1.78139 -8.3038
181 2 0 14.2511 3.56279 -6.87422
182 3 1.78139 16.0325 3.56279 -6.34447
85 3 3.56279 14.2511 0 -6.3867
86 2 5.34418 16.0325 0 -6.99464
87 1 5.34418 14.2511 1.78139 -8.37332
88 2 3.56279 16.0325 1.78139 -6.99263
185 1 3.56279 14.2511 3.56279 -8.38812
186 1 5.34418 16.0325 3.56279 -8.28624
89 3 7.12557 14.2511 0 -6.43314
90 2 8.90697 16.0325 0 -7.05793
91 2 8.90697 14.2511 1.78139 -7.01321
92 2 7.12557 16.0325 1.78139 -7.14311
189 1 7.12557 14.2511 3.56279 -8.37798
190 2 8.90697 16.0325 3.56279 -7.07496
93 1 10.6884 14.2511 0 -8.28014
94 1 12.4698 16.0325 0 -8.27141
95 2 12.4698 14.2511 1.78139 -7.02658
96 2 10.6884 16.0325 1.78139 -7.08662
193 3 10.6884 14.2511 3.56279 -6.52105
194 1 12.4698 16.0325 3.56279 -8.5763
97 1 14.2511 14.2511 0 -8.11332
98 1 16.0325 16.0325 0 -8.44102
99 3 16.0325 14.2511 1.78139 -6.34819
100 2 14.2511 16.0325 1.78139 -6.97238
197 2 14.2511 14.2511 3.56279 -6.93653
198 1 16.0325 16.0325 3.56279 -8.59667
103 1 1.78139 0 5.34418 -8.3552
104 2 0 1.78139 5.34418 -6.85726
201 3 0 0 7.12557 -6.22248
202 1 1.78139 1.78139 7.12557 -8.19132
107 1 5.34418 0 5.34418 -8.38467
108 2 3.56279 1.78139 5.34418 -6.92518
203 2 3.56279 0 7.12557 -7.06927
204 1 5.34418 1.78139 7.12557 -8.21798
111 1 8.90697 0 5.34418 -8.55048
112 3 7.12557 1.78139 5.34418 -6.41102
205 2 7.12557 0 7.12557 -6.93114
206 1 8.90697 1.78139 7.12557 -8.55786
115 2 12.4698 0 5.34418 -6.96898
116 3 10.6884 1.78139 5.34418 -6.40542
207 3 10.6884 0 7.12557 -6.22008
208 1 12.4698 1.78139 7.12557 -8.62857
119 3 16.0325 0 5.34418 -6.6028
120 2 14.2511 1.78139 5.34418 -7.01026
209 2 14.2511 0 7.12557 -7.06625
210 2 16.0325 1.78139 7.12557 -7.05272
123 1 1.78139 3.56279 5.34418 -8.54305
124 2 0 5.34418 5.34418 -6.88181
211 3 0 3.56279 7.12557 -6.14954
212 2 1.78139 5.34418 7.12557 -6.95953
127 1 5.34418 3.56279 5.34418 -8.49828
128 1 3.56279 5.34418 5.34418 -8.53589
213 2 3.56279 3.56279 7.12557 -7.0086
214 3 5.34418 5.34418 7.12557 -6.58746
131 3 8.90697 3.56279 5.34418 -6.63881
132 2 7.12557 5.34418 5.34418 -7.07153
215 2 7.12557 3.56279 7.12557 -7.07221
216 2 8.90697 5.34418 7.12557 -7.05019
135 3 12.4698 3.56279 5.34418 -6.39209
136 1 10.6884 5.34418 5.34418 -8.64015
217 2 10.6884 3.56279 7.12557 -6.97905
218 3 12.4698 5.34418 7.12557 -6.33198
139 1 16.0325 3.56279 5.34418 -8.37167
140 1 14.2511 5.34418 5.34418 -8.44622
219 3 14.2511 3.56279 7.12557 -6.42513
220 3 16.0325 5.34418 7.12557 -6.47036
143 3 1.78139 7.12557 5.34418 -6.41301
144 3 0 8.90697 5.34418 -6.41783
221 1 0 7.12557 7.12557 -8.42993
222 2 1.78139 8.90697 7.12557 -6.96569
147 3 5.34418 7.12557 5.34418 -6.57627
148 2 3.56279 8.90697 5.34418 -6.98915
223 1 3.56279 7.12557 7.12557 -8.66929
224 2 5.34418 8.90697 7.12557 -7.04172
151 3 8.90697 7.12557 5.34418 -6.64079
152 3 7.12557 8.90697 5.34418 -6.48736
225 2 7.12557 7.12557 7.12557 -7.06643
226 1 8.90697 8.90697 7.12557 -8.68233
155 1 12.4698 7.12557 5.34418 -8.40267
156 2 10.6884 8.90697 5.34418 -6.92936
227 2 10.6884 7.12557 7.12557 -7.03499
228 2 12.4698 8.90697 7.12557 -7.02361
159 2 16.0325 7.12557 5.34418 -7.05215
160 2 14.2511 8.90697 5.34418 -7.0161
229 2 14.2511 7.12557 7.12557 -7.01809
230 1 16.0325 8.90697 7.12557 -8.57179
163 1 1.78139 10.6884 5.34418 -8.62165
164 1 0 12.4698 5.34418 -8.76811
231 3 0 10.6884 7.12557 -6.35857
232 3 1.78139 12.4698 7.12557 -6.37433
167 1 5.34418 10.6884 5.34418 -8.4634
168 2 3.56279 12.4698 5.34418 -7.05707
233 2 3.56279 10.6884 7.12557 -7.02715
234 2 5.34418 12.4698 7.12557 -7.09754
171 1 8.90697 10.6884 5.34418 -8.40135
172 2 7.12557 12.4698 5.34418 -7.06314
235 2 7.12557 10.6884 7.12557 -7.02458
236 3 8.90697 12.4698 7.12557 -6.42539
175 1 12.4698 10.6884 5.34418 -8.55025
176 1 10.6884 12.4698 5.34418 -8.59103
237 3 10.6884 10.6884 7.12557 -6.50295
238 3 12.4698 12.4698 7.12557 -6.56592
179 1 16.0325 10.6884 5.34418 -8.30329
180 3 14.2511 12.4698 5.34418 -6.47886
239 2 14.2511 10.6884 7.12557 -7.03885
240 1 16.0325 12.4698 7.12557 -8.56428
183 2 1.78139 14.2511 5.34418 -6.91744
184 3 0 16.0325 5.34418 -6.36944
241 3 0 14.2511 7.12557 -6.36632
242 1 1.78139 16.0325 7.12557 -8.65423
187 2 5.34418 14.2511 5.34418 -7.04383
188 3 3.56279 16.0325 5.34418 -6.30952
243 3 3.56279 14.2511 7.12557 -6.54779
244 1 5.34418 16.0325 7.12557 -8.36456
191 2 8.90697 14.2511 5.34418 -6.97037
192 2 7.12557 16.0325 5.34418 -7.00853
245 1 7.12557 14.2511 7.12557 -8.38272
246 3 8.90697 16.0325 7.12557 -6.31876
195 3 12.4698 14.2511 5.34418 -6.41783
196 1 10.6884 16.0325 5.34418 -8.46079
247 3 10.6884 14.2511 7.12557 -6.43992
248 1 12.4698 16.0325 7.12557 -8.56424
199 3 16.0325 14.2511 5.34418 -6.3932
200 3 14.2511 16.0325 5.34418 -6.32214
249 3 14.2511 14.2511 7.12557 -6.42525
250 1 16.0325 16.0325 7.12557 -8.55747
251 3 1.78139 0 8.90697 -6.15723
252 1 0 1.78139 8.90697 -8.27154
301 2 0 0 10.6884 -6.936
302 1 1.78139 1.78139 10.6884 -8.25197
303 3 1.78139 0 12.4698 -6.22929
304 1 0 1.78139 12.4698 -8.47106
253 1 5.34418 0 8.90697 -8.14318
254 1 3.56279 1.78139 8.90697 -8.04261
305 2 3.56279 0 10.6884 -7.00139
306 1 5.34418 1.78139 10.6884 -8.29861
307 2 5.34418 0 12.4698 -6.96473
308 3 3.56279 1.78139 12.4698 -6.23402
255 1 8.90697 0 8.90697 -8.45232
256 3 7.12557 1.78139 8.90697 -6.27588
309 3 7.12557 0 10.6884 -6.17606
310 1 8.90697 1.78139 10.6884 -8.36036
311 2 8.90697 0 12.4698 -7.00017
312 1 7.12557 1.78139 12.4698 -8.12723
257 1 12.4698 0 8.90697 -8.15539
258 2 10.6884 1.78139 8.90697 -7.00364
313 2 10.6884 0 10.6884 -7.05091
314 1 12.4698 1.78139 10.6884 -8.23229
315 2 12.4698 0 12.4698 -7.01145
316 2 10.6884 1.78139 12.4698 -7.0379
259 1 16.0325 0 8.90697 -8.56539
260 2 14.2511 1.78139 8.90697 -7.04477
317 1 14.2511 0 10.6884 -8.17731
318 3 16.0325 1.78139 10.6884 -6.41941
319 3 16.0325 0 12.4698 -6.37992
320 1 14.2511 1.78139 12.4698 -8.13909
261 1 1.78139 3.56279 8.90697 -8.23925
262 1 0 5.34418 8.90697 -8.05357
321 2 0 3.56279 10.6884 -7.05637
322 2 1.78139 5.34418 10.6884 -6.9336
323 1 1.78139 3.56279 12.4698 -8.50361
324 3 0 5.34418 12.4698 -6.22188
263 2 5.34418 3.56279 8.90697 -6.97299
264 3 3.56279 5.34418 8.90697 -6.50487
325 2 3.56279 3.56279 10.6884 -6.98439
326 1 5.34418 5.34418 10.6884 -8.52291
327 1 5.34418 3.56279 12.4698 -8.18743
328 3 3.56279 5.34418 12.4698 -6.25268
265 2 8.90697 3.56279 8.90697 -7.07031
266 2 7.12557 5.34418 8.90697 -7.06879
329 2 7.12557 3.56279 10.6884 -7.08234
330 1 8.90697 5.34418 10.6884 -8.43635
331 2 8.90697 3.56279 12.4698 -7.06578
332 1 7.12557 5.34418 12.4698 -8.08861
267 3 12.4698 3.56279 8.90697 -6.45762
268 1 10.6884 5.34418 8.90697 -8.49133
333 2 10.6884 3.56279 10.6884 -7.09225
334 2 12.4698 5.34418 10.6884 -6.98196
335 1 12.4698 3.56279 12.4698 -8.35172
336 2 10.6884 5.34418 12.4698 -7.05303
269 2 16.0325 3.56279 8.90697 -7.03978
270 1 14.2511 5.34418 8.90697 -8.64337
337 2 14.2511 3.56279 10.6884 -7.00444
338 2 16.0325 5.34418 10.6884 -7.00192
339 1 16.0325 3.56279 12.4698 -8.43755
340 3 14.2511 5.34418 12.4698 -6.5082
271 2 1.78139 7.12557 8.90697 -6.96674
272 3 0 8.90697 8.90697 -6.30038
341 1 0 7.12557 10.6884 -8.29984
342 3 1.78139 8.90697 10.6884 -6.32913
343 1 1.78139 7.12557 12.4698 -8.43926
344 3 0 8.90697 12.4698 -6.25301
273 3 5.34418 7.12557 8.90697 -6.63868
274 2 3.56279 8.90697 8.90697 -7.04348
345 2 3.56279 7.12557 10.6884 -7.03803
346 2 5.34418 8.90697 10.6884 -6.99356
347 2 5.34418 7.12557 12.4698 -7.03396
348 2 3.56279 8.90697 12.4698 -7.04475
275 3 8.90697 7.12557 8.90697 -6.56234
276 3 7.12557 8.90697 8.90697 -6.58627
349 3 7.12557 7.12557 10.6884 -6.47387
350 2 8.90697 8.90697 10.6884 -6.95027
351 2 8.90697 7.12557 12.4698 -7.02858
352 1 7.12557 8.90697 12.4698 -8.41765
277 1 12.4698 7.12557 8.90697 -8.47739
278 2 10.6884 8.90697 8.90697 -7.01811
353 2 10.6884 7.12557 10.6884 -7.02228
354 3 12.4698 8.90697 10.6884 -6.54303
355 1 12.4698 7.12557 12.4698 -8.73618
356 3 10.6884 8.90697 12.4698 -6.41102
279 3 16.0325 7.12557 8.90697 -6.57707
280 3 14.2511 8.90697 8.90697 -6.62151
357 3 14.2511 7.12557 10.6884 -6.51798
358 2 16.0325 8.90697 10.6884 -7.05372
359 2 16.0325 7.12557 12.4698 -6.95121
360 3 14.2511 8.90697 12.4698 -6.59758
281 1 1.78139 10.6884 8.90697 -8.37273
282 1 0 12.4698 8.90697 -8.58576
361 1 0 10.6884 10.6884 -8.47937
362 2 1.78139 12.4698 10.6884 -6.99243
363 3 1.78139 10.6884 12.4698 -6.46376
364 3 0 12.4698 12.4698 -6.52138
283 3 5.34418 10.6884 8.90697 -6.58275
284 1 3.56279 12.4698 8.90697 -8.51362
365 1 3.56279 10.6884 10.6884 -8.61801
366 2 5.34418 12.4698 10.6884 -6.92269
367 3 5.34418 10.6884 12.4698 -6.35523
368 3 3.56279 12.4698 12.4698 -6.50028
285 3 8.90697 10.6884 8.90697 -6.52714
286 2 7.12557 12.4698 8.90697 -6.97715
369 1 7.12557 10.6884 10.6884 -8.59922
370 3 8.90697 12.4698 10.6884 -6.32064
371 3 8.90697 10.6884 12.4698 -6.32183
372 1 7.12557 12.4698 12.4698 -8.32097
287 2 12.4698 10.6884 8.90697 -7.06818
288 2 10.6884 12.4698 8.90697 -6.97627
373 1 10.6884 10.6884 10.6884 -8.76738
374 3 12.4698 12.4698 10.6884 -6.70757
375 2 12.4698 10.6884 12.4698 -7.02939
376 2 10.6884 12.4698 12.4698 -7.01749
289 2 16.0325 10.6884 8.90697 -6.94848
290 2 14.2511 12.4698 8.90697 -7.07256
377 3 14.2511 10.6884 10.6884 -6.72539
378 1 16.0325 12.4698 10.6884 -8.59697
379 2 16.0325 10.6884 12.4698 -7.0584
380 2 14.2511 12.4698 12.4698 -7.16722
291 2 1.78139 14.2511 8.90697 -6.95734
292 3 0 16.0325 8.90697 -6.44614
381 3 0 14.2511 10.6884 -6.50526
382 2 1.78139 16.0325 10.6884 -6.9964
383 1 1.78139 14.2511 12.4698 -8.72429
384 2 0 16.0325 12.4698 -6.97651
293 2 5.34418 14.2511 8.90697 -7.05229
294 2 3.56279 16.0325 8.90697 -6.97358
385 2 3.56279 14.2511 10.6884 -7.0003
386 1 5.34418 16.0325 10.6884 -8.59021
387 3 5.34418 14.2511 12.4698 -6.31057
388 3 3.56279 16.0325 12.4698 -6.36944
295 1 8.90697 14.2511 8.90697 -8.45285
296 2 7.12557 16.0325 8.90697 -7.02193
389 1 7.12557 14.2511 10.6884 -8.35287
390 2 8.90697 16.0325 10.6884 -6.95647
391 2 8.90697 14.2511 12.4698 -6.95233
392 3 7.12557 16.0325 12.4698 -6.32721
297 2 12.4698 14.2511 8.90697 -7.05271
298 2 10.6884 16.0325 8.90697 -6.99464
393 1 10.6884 14.2511 10.6884 -8.56434
394 2 12.4698 16.0325 10.6884 -7.09284
395 2 12.4698 14.2511 12.4698 -7.15808
396 3 10.6884 16.0325 12.4698 -6.49539
299 3 16.0325 14.2511 8.90697 -6.53981
300 3 14.2511 16.0325 8.90697 -6.52337
397 2 14.2511 14.2511 10.6884 -7.13578
398 2 16.0325 16.0325 10.6884 -7.05673
399 1 16.0325 14.2511 12.4698 -8.37273
400 2 14.2511 16.0325 12.4698 -7.06092
401 3 0 0 14.2511 -6.26848
402 3 1.78139 1.78139 14.2511 -6.29593
403 3 1.78139 0 16.0325 -6.26612
404 1 0 1.78139 16.0325 -8.44492
405 1 3.56279 0 14.2511 -8.47259
406 1 5.34418 1.78139 14.2511 -8.25495
407 2 5.34418 0 16.0325 -7.01415
408 2 3.56279 1.78139 16.0325 -6.93506
409 2 7.12557 0 14.2511 -6.94581
410 1 8.90697 1.78139 14.2511 -8.40282
411 3 8.90697 0 16.0325 -6.24654
412 1 7.12557 1.78139 16.0325 -8.29962
413 2 10.6884 0 14.2511 -7.01024
414 1 12.4698 1.78139 14.2511 -8.34605
415 1 12.4698 0 16.0325 -8.59779
416 3 10.6884 1.78139 16.0325 -6.54249
417 3 14.2511 0 14.2511 -6.37481
418 1 16.0325 1.78139 14.2511 -8.35116
419 1 16.0325 0 16.0325 -8.76648
420 2 14.2511 1.78139 16.0325 -6.95945
421 3 0 3.56279 14.2511 -6.21379
422 1 1.78139 5.34418 14.2511 -8.314
423 1 1.78139 3.56279 16.0325 -8.4533
424 3 0 5.34418 16.0325 -6.08683
425 3 3.56279 3.56279 14.2511 -6.19384
426 1 5.34418 5.34418 14.2511 -8.407
427 3 5.34418 3.56279 16.0325 -6.388
428 2 3.56279 5.34418 16.0325 -6.94885
429 2 7.12557 3.56279 14.2511 -7.05435
430 1 8.90697 5.34418 14.2511 -8.33171
431 2 8.90697 3.56279 16.0325 -7.0608
432 2 7.12557 5.34418 16.0325 -6.93826
433 2 10.6884 3.56279 14.2511 -7.06048
434 2 12.4698 5.34418 14.2511 -6.99371
435 2 12.4698 3.56279 16.0325 -7.00917
436 3 10.6884 5.34418 16.0325 -6.35372
437 2 14.2511 3.56279 14.2511 -7.08228
438 3 16.0325 5.34418 14.2511 -6.58839
439 2 16.0325 3.56279 16.0325 -6.99199
440 2 14.2511 5.34418 16.0325 -7.04556
441 1 0 7.12557 14.2511 -8.2629
442 2 1.78139 8.90697 14.2511 -6.97875
443 1 1.78139 7.12557 16.0325 -8.65239
444 3 0 8.90697 16.0325 -6.3506
445 2 3.56279 7.12557 14.2511 -6.97298
446 1 5.34418 8.90697 14.2511 -8.44854
447 2 5.34418 7.12557 16.0325 -7.02169
448 3 3.56279 8.90697 16.0325 -6.51405
449 1 7.12557 7.12557 14.2511 -8.15069
450 3 8.90697 8.90697 14.2511 -6.26776
451 3 8.90697 7.12557 16.0325 -6.12405
452 1 7.12557 8.90697 16.0325 -8.31187
453 1 10.6884 7.12557 14.2511 -8.63719
454 3 12.4698 8.90697 14.2511 -6.41011
455 3 12.4698 7.12557 16.0325 -6.35796
456 3 10.6884 8.90697 16.0325 -6.2548
457 3 14.2511 7.12557 14.2511 -6.51269
458 1 16.0325 8.90697 14.2511 -8.6272
459 3 16.0325 7.12557 16.0325 -6.52485
460 1 14.2511 8.90697 16.0325 -8.62897
461 1 0 10.6884 14.2511 -8.82054
462 2 1.78139 12.4698 14.2511 -6.98712
463 2 1.78139 10.6884 16.0325 -6.96712
464 3 0 12.4698 16.0325 -6.44604
465 2 3.56279 10.6884 14.2511 -7.00345
466 1 5.34418 12.4698 14.2511 -8.48874
467 3 5.34418 10.6884 16.0325 -6.35386
468 2 3.56279 12.4698 16.0325 -7.02352
469 2 7.12557 10.6884 14.2511 -6.84516
470 2 8.90697 12.4698 14.2511 -6.96692
471 2 8.90697 10.6884 16.0325 -6.88917
472 1 7.12557 12.4698 16.0325 -8.50808
473 1 10.6884 10.6884 14.2511 -8.73709
474 2 12.4698 12.4698 14.2511 -7.11645
475 3 12.4698 10.6884 16.0325 -6.32519
476 1 10.6884 12.4698 16.0325 -8.3821
477 2 14.2511 10.6884 14.2511 -7.07182
478 2 16.0325 12.4698 14.2511 -7.07877
479 2 16.0325 10.6884 16.0325 -7.06866
480 1 14.2511 12.4698 16.0325 -8.45565
481 3 0 14.2511 14.2511 -6.53063
482 2 1.78139 16.0325 14.2511 -6.94555
483 1 1.78139 14.2511 16.0325 -8.61559
484 3 0 16.0325 16.0325 -6.48058
485 2 3.56279 14.2511 14.2511 -6.96472
486 1 5.34418 16.0325 14.2511 -8.49533
487 2 5.34418 14.2511 16.0325 -6.9893
488 2 3.56279 16.0325 16.0325 -7.01226
489 1 7.12557 14.2511 14.2511 -8.31583
490 3 8.90697 16.0325 14.2511 -6.37178
491 3 8.90697 14.2511 16.0325 -6.264
492 1 7.12557 16.0325 16.0325 -8.52554
493 2 10.6884 14.2511 14.2511 -7.00824
494 1 12.4698 16.0325 14.2511 -8.75695
495 2 12.4698 14.2511 16.0325 -6.98317
496 3 10.6884 16.0325 16.0325 -6.44854
497 2 14.2511 14.2511 14.2511 -7.04337
498 3 16.0325 16.0325 14.2511 -6.42815
499 3 16.0325 14.2511 16.0325 -6.45388
500 3 14.2511 16.0325 16.0325 -6.37614
501 1 0 0 17.8139 -8.34813
502 3 1.78139 1.78139 17.8139 -6.28013
503 2 1.78139 0 19.5953 -6.92424
504 1 0 1.78139 19.5953 -8.29228
601 1 0 0 21.3767 -8.50499
602 3 1.78139 1.78139 21.3767 -6.32978
505 1 3.56279 0 17.8139 -8.78715
506 2 5.34418 1.78139 17.8139 -7.06383
507 2 5.34418 0 19.5953 -7.0575
508 2 3.56279 1.78139 19.5953 -7.04901
605 2 3.56279 0 21.3767 -6.99235
606 1 5.34418 1.78139 21.3767 -8.33092
509 1 7.12557 0 17.8139 -8.30775
510 2 8.90697 1.78139 17.8139 -6.99413
511 2 8.90697 0 19.5953 -6.97904
512 1 7.12557 1.78139 19.5953 -8.24586
609 2 7.12557 0 21.3767 -6.99524
610 2 8.90697 1.78139 21.3767 -6.99607
513 3 10.6884 0 17.8139 -6.34436
514 3 12.4698 1.78139 17.8139 -6.40864
515 1 12.4698 0 19.5953 -8.73963
516 1 10.6884 1.78139 19.5953 -8.4662
613 3 10.6884 0 21.3767 -6.39137
614 3 12.4698 1.78139 21.3767 -6.27423
517 3 14.2511 0 17.8139 -6.43708
518 3 16.0325 1.78139 17.8139 -6.4158
519 3 16.0325 0 19.5953 -6.61947
520 3 14.2511 1.78139 19.5953 -6.3348
617 3 14.2511 0 21.3767 -6.49033
618 3 16.0325 1.78139 21.3767 -6.41804
521 1 0 3.56279 17.8139 -8.17268
522 3 1.78139 5.34418 17.8139 -6.29408
523 1 1.78139 3.56279 19.5953 -8.4023
524 1 0 5.34418 19.5953 -8.39593
621 2 0 3.56279 21.3767 -6.841
622 3 1.78139 5.34418 21.3767 -6.23627
525 2 3.56279 3.56279 17.8139 -7.01688
526 1 5.34418 5.34418 17.8139 -8.37614
527 2 5.34418 3.56279 19.5953 -7.10241
528 1 3.56279 5.34418 19.5953 -8.40766
625 2 3.56279 3.56279 21.3767 -7.02418
626 1 5.34418 5.34418 21.3767 -8.08432
529 2 7.12557 3.56279 17.8139 -7.02273
530 1 8.90697 5.34418 17.8139 -8.30755
531 2 8.90697 3.56279 19.5953 -7.10829
532 1 7.12557 5.34418 19.5953 -8.05668
629 1 7.12557 3.56279 21.3767 -8.0481
630 1 8.90697 5.34418 21.3767 -8.09988
533 2 10.6884 3.56279 17.8139 -6.9813
534 1 12.4698 5.34418 17.8139 -8.51732
535 3 12.4698 3.56279 19.5953 -6.25769
536 1 10.6884 5.34418 19.5953 -8.21052
633 1 10.6884 3.56279 21.3767 -8.21629
634 2 12.4698 5.34418 21.3767 -6.88538
537 1 14.2511 3.56279 17.8139 -8.54051
538 2 16.0325 5.34418 17.8139 -7.04999
539 1 16.0325 3.56279 19.5953 -8.43047
540 3 14.2511 5.34418 19.5953 -6.35217
637 1 14.2511 3.56279 21.3767 -8.61376
638 2 16.0325 5.34418 21.3767 -7.05175
541 3 0 7.12557 17.8139 -6.33802
542 2 1.78139 8.90697 17.8139 -7.03106
543 2 1.78139 7.12557 19.5953 -6.96064
544 2 0 8.90697 19.5953 -6.93754
641 2 0 7.12557 21.3767 -6.86993
642 3 1.78139 8.90697 21.3767 -6.60222
545 3 3.56279 7.12557 17.8139 -6.52217
546 2 5.34418 8.90697 17.8139 -6.95228
547 3 5.34418 7.12557 19.5953 -6.37565
548 2 3.56279 8.90697 19.5953 -7.12933
645 2 3.56279 7.12557 21.3767 -7.06089
646 2 5.34418 8.90697 21.3767 -7.14029
549 1 7.12557 7.12557 17.8139 -8.40056
550 3 8.90697 8.90697 17.8139 -6.21055
551 3 8.90697 7.12557 19.5953 -6.11317
552 3 7.12557 8.90697 19.5953 -6.36238
649 1 7.12557 7.12557 21.3767 -8.32334
650 1 8.90697 8.90697 21.3767 -8.44261
553 1 10.6884 7.12557 17.8139 -8.69735
554 3 12.4698 8.90697 17.8139 -6.3335
555 3 12.4698 7.12557 19.5953 -6.17525
556 3 10.6884 8.90697 19.5953 -6.29658
653 2 10.6884 7.12557 21.3767 -6.85721
654 1 12.4698 8.90697 21.3767 -8.3579
557 3 14.2511 7.12557 17.8139 -6.3999
558 1 16.0325 8.90697 17.8139 -8.45849
559 2 16.0325 7.12557 19.5953 -7.02581
560 1 14.2511 8.90697 19.5953 -8.37522
657 1 14.2511 7.12557 21.3767 -8.41582
658 1 16.0325 8.90697 21.3767 -8.47373
561 1 0 10.6884 17.8139 -8.67725
562 3 1.78139 12.4698 17.8139 -6.416
563 3 1.78139 10.6884 19.5953 -6.52594
564 2 0 12.4698 19.5953 -6.97063
661 1 0 10.6884 21.3767 -8.80521
662 3 1.78139 12.4698 21.3767 -6.47147
565 1 3.56279 10.6884 17.8139 -8.74174
566 3 5.34418 12.4698 17.8139 -6.38867
567 2 5.34418 10.6884 19.5953 -7.05635
568 2 3.56279 12.4698 19.5953 -7.0318
665 2 3.56279 10.6884 21.3767 -7.11775
666 1 5.34418 12.4698 21.3767 -8.29875
569 1 7.12557 10.6884 17.8139 -8.62006
570 3 8.90697 12.4698 17.8139 -6.30076
571 3 8.90697 10.6884 19.5953 -6.33197
572 2 7.12557 12.4698 19.5953 -6.92772
669 2 7.12557 10.6884 21.3767 -7.01767
670 1 8.90697 12.4698 21.3767 -8.60334
573 1 10.6884 10.6884 17.8139 -8.86695
574 2 12.4698 12.4698 17.8139 -6.87745
575 3 12.4698 10.6884 19.5953 -6.27628
576 3 10.6884 12.4698 19.5953 -6.34563
673 2 10.6884 10.6884 21.3767 -6.8933
674 1 12.4698 12.4698 21.3767 -8.51164
577 2 14.2511 10.6884 17.8139 -6.93856
578 1 16.0325 12.4698 17.8139 -8.27797
579 2 16.0325 10.6884 19.5953 -7.03298
580 1 14.2511 12.4698 19.5953 -8.25482
677 2 14.2511 10.6884 21.3767 -6.98616
678 1 16.0325 12.4698 21.3767 -8.37304
581 2 0 14.2511 17.8139 -6.94335
582 2 1.78139 16.0325 17.8139 -7.089
583 1 1.78139 14.2511 19.5953 -8.56157
584 2 0 16.0325 19.5953 -6.98623
681 3 0 14.2511 21.3767 -6.24992
682 2 1.78139 16.0325 21.3767 -7.05125
585 1 3.56279 14.2511 17.8139 -8.35872
586 2 5.34418 16.0325 17.8139 -7.00687
587 1 5.34418 14.2511 19.5953 -8.3231
588 2 3.56279 16.0325 19.5953 -7.10133
685 2 3.56279 14.2511 21.3767 -6.99239
686 2 5.34418 16.0325 21.3767 -6.99512
589 3 7.12557 14.2511 17.8139 -6.36054
590 3 8.90697 16.0325 17.8139 -6.25194
591 3 8.90697 14.2511 19.5953 -6.34911
592 1 7.12557 16.0325 19.5953 -8.72546
689 2 7.12557 14.2511 21.3767 -6.97156
690 3 8.90697 16.0325 21.3767 -6.43929
593 1 10.6884 14.2511 17.8139 -8.65326
594 3 12.4698 16.0325 17.8139 -6.3415
595 3 12.4698 14.2511 19.5953 -6.31121
596 1 10.6884 16.0325 19.5953 -8.73178
693 3 10.6884 14.2511 21.3767 -6.35054
694 2 12.4698 16.0325 21.3767 -6.94182
597 1 14.2511 14.2511 17.8139 -8.64067
598 3 16.0325 16.0325 17.8139 -6.45899
599 3 16.0325 14.2511 19.5953 -6.44079
600 3 14.2511 16.0325 19.5953 -6.53567
697 2 14.2511 14.2511 21.3767 -6.96825
698 2 16.0325 16.0325 21.3767 -7.02072
603 1 1.78139 0 23.1581 -8.63505
604 3 0 1.78139 23.1581 -6.26109
701 3 0 0 24.9395 -6.3157
702 3 1.78139 1.78139 24.9395 -6.33431
607 3 5.34418 0 23.1581 -6.42762
608 2 3.56279 1.78139 23.1581 -6.98095
703 1 3.56279 0 24.9395 -8.42731
704 2 5.34418 1.78139 24.9395 -6.95686
611 2 8.90697 0 23.1581 -7.01698
612 1 7.12557 1.78139 23.1581 -8.26662
705 1 7.12557 0 24.9395 -8.34805
706 3 8.90697 1.78139 24.9395 -6.30105
615 1 12.4698 0 23.1581 -8.43546
616 1 10.6884 1.78139 23.1581 -8.31843
707 1 10.6884 0 24.9395 -8.29123
708 1 12.4698 1.78139 24.9395 -8.32332
619 2 16.0325 0 23.1581 -6.97784
620 3 14.2511 1.78139 23.1581 -6.36631
709 2 14.2511 0 24.9395 -7.05776
710 1 16.0325 1.78139 24.9395 -8.34429
623 1 1.78139 3.56279 23.1581 -8.52737
624 1 0 5.34418 23.1581 -8.39272
711 3 0 3.56279 24.9395 -6.09218
712 3 1.78139 5.34418 24.9395 -6.14646
627 2 5.34418 3.56279 23.1581 -7.03554
628 1 3.56279 5.34418 23.1581 -8.33447
713 1 3.56279 3.56279 24.9395 -8.58501
714 3 5.34418 5.34418 24.9395 -6.37737
631 2 8.90697 3.56279 23.1581 -7.06245
632 2 7.12557 5.34418 23.1581 -6.98176
715 1 7.12557 3.56279 24.9395 -8.48049
716 2 8.90697 5.34418 24.9395 -7.0206
635 2 12.4698 3.56279 23.1581 -7.0034
636 1 10.6884 5.34418 23.1581 -8.38249
717 2 10.6884 3.56279 24.9395 -7.0374
718 1 12.4698 5.34418 24.9395 -8.47254
639 1 16.0325 3.56279 23.1581 -8.47956
640 2 14.2511 5.34418 23.1581 -7.00483
719 2 14.2511 3.56279 24.9395 -6.9965
720 3 16.0325 5.34418 24.9395 -6.57681
643 1 1.78139 7.12557 23.1581 -8.62031
644 3 0 8.90697 23.1581 -6.36965
721 3 0 7.12557 24.9395 -6.20703
722 3 1.78139 8.90697 24.9395 -6.32453
647 2 5.34418 7.12557 23.1581 -7.07036
648 2 3.56279 8.90697 23.1581 -7.09445
723 3 3.56279 7.12557 24.9395 -6.36805
724 2 5.34418 8.90697 24.9395 -7.06704
651 2 8.90697 7.12557 23.1581 -7.0405
652 2 7.12557 8.90697 23.1581 -7.06993
725 1 7.12557 7.12557 24.9395 -8.50234
726 2 8.90697 8.90697 24.9395 -6.95646
655 3 12.4698 7.12557 23.1581 -6.22397
656 1 10.6884 8.90697 23.1581 -8.23525
727 3 10.6884 7.12557 24.9395 -6.36297
728 1 12.4698 8.90697 24.9395 -8.43407
659 2 16.0325 7.12557 23.1581 -7.08959
660 2 14.2511 8.90697 23.1581 -6.95493
729 1 14.2511 7.12557 24.9395 -8.35119
730 1 16.0325 8.90697 24.9395 -8.31536
663 3 1.78139 10.6884 23.1581 -6.55467
664 3 0 12.4698 23.1581 -6.31941
731 1 0 10.6884 24.9395 -8.59216
732 2 1.78139 12.4698 24.9395 -6.98208
667 2 5.34418 10.6884 23.1581 -7.08273
668 3 3.56279 12.4698 23.1581 -6.46217
733 2 3.56279 10.6884 24.9395 -7.05225
734 1 5.34418 12.4698 24.9395 -8.21056
671 1 8.90697 10.6884 23.1581 -8.21957
672 1 7.12557 12.4698 23.1581 -8.14432
735 1 7.12557 10.6884 24.9395 -8.09084
736 3 8.90697 12.4698 24.9395 -6.25493
675 1 12.4698 10.6884 23.1581 -8.392
676 3 10.6884 12.4698 23.1581 -6.27232
737 3 10.6884 10.6884 24.9395 -6.16853
738 3 12.4698 12.4698 24.9395 -6.35213
679 2 16.0325 10.6884 23.1581 -6.98053
680 3 14.2511 12.4698 23.1581 -6.37444
739 3 14.2511 10.6884 24.9395 -6.33956
740 2 16.0325 12.4698 24.9395 -7.03738
683 1 1.78139 14.2511 23.1581 -8.59188
684 1 0 16.0325 23.1581 -8.51415
741 2 0 14.2511 24.9395 -6.92901
742 3 1.78139 16.0325 24.9395 -6.34649
687 1 5.34418 14.2511 23.1581 -8.33772
688 1 3.56279 16.0325 23.1581 -8.3178
743 3 3.56279 14.2511 24.9395 -6.28417
744 2 5.34418 16.0325 24.9395 -6.87267
691 3 8.90697 14.2511 23.1581 -6.37003
692 3 7.12557 16.0325 23.1581 -6.37852
745 3 7.12557 14.2511 24.9395 -6.27329
746 1 8.90697 16.0325 24.9395 -8.65671
695 1 12.4698 14.2511 23.1581 -8.75274
696 3 10.6884 16.0325 23.1581 -6.45573
747 3 10.6884 14.2511 24.9395 -6.36671
748 3 12.4698 16.0325 24.9395 -6.42584
699 1 16.0325 14.2511 23.1581 -8.39163
700 3 14.2511 16.0325 23.1581 -6.53136
749 2 14.2511 14.2511 24.9395 -6.92742
750 2 16.0325 16.0325 24.9395 -7.00636
751 2 1.78139 0 26.7209 -6.95103
752 1 0 1.78139 26.7209 -8.45936
801 2 0 0 28.5023 -7.03753
802 1 1.78139 1.78139 28.5023 -8.72019
803 3 1.78139 0 30.2837 -6.23633
804 3 0 1.78139 30.2837 -6.41417
753 2 5.34418 0 26.7209 -7.04603
754 2 3.56279 1.78139 26.7209 -6.93218
805 3 3.56279 0 28.5023 -6.40749
806 1 5.34418 1.78139 28.5023 -8.68156
807 3 5.34418 0 30.2837 -6.41456
808 3 3.56279 1.78139 30.2837 -6.29845
755 1 8.90697 0 26.7209 -8.37177
756 2 7.12557 1.78139 26.7209 -6.95234
809 2 7.12557 0 28.5023 -6.97103
810 3 8.90697 1.78139 28.5023 -6.42224
811 2 8.90697 0 30.2837 -6.92996
812 1 7.12557 1.78139 30.2837 -8.61481
757 2 12.4698 0 26.7209 -7.04647
758 2 10.6884 1.78139 26.7209 -7.03488
813 1 10.6884 0 28.5023 -8.40786
814 1 12.4698 1.78139 28.5023 -8.46965
815 2 12.4698 0 30.2837 -6.92333
816 1 10.6884 1.78139 30.2837 -8.53025
759 2 16.0325 0 26.7209 -7.03896
760 2 14.2511 1.78139 26.7209 -7.05715
817 3 14.2511 0 28.5023 -6.49289
818 1 16.0325 1.78139 28.5023 -8.38291
819 1 16.0325 0 30.2837 -8.54476
820 3 14.2511 1.78139 30.2837 -6.4451
761 3 1.78139 3.56279 26.7209 -6.27197
762 1 0 5.34418 26.7209 -8.31283
821 2 0 3.56279 28.5023 -6.87363
822 1 1.78139 5.34418 28.5023 -8.61465
823 3 1.78139 3.56279 30.2837 -6.28327
824 3 0 5.34418 30.2837 -6.24054
763 3 5.34418 3.56279 26.7209 -6.38445
764 3 3.56279 5.34418 26.7209 -6.33588
825 3 3.56279 3.56279 28.5023 -6.32856
826 1 5.34418 5.34418 28.5023 -8.92774
827 2 5.34418 3.56279 30.2837 -6.94684
828 2 3.56279 5.34418 30.2837 -6.95104
765 1 8.90697 3.56279 26.7209 -8.61423
766 3 7.12557 5.34418 26.7209 -6.41534
829 3 7.12557 3.56279 28.5023 -6.46749
830 2 8.90697 5.34418 28.5023 -6.99884
831 2 8.90697 3.56279 30.2837 -7.01569
832 3 7.12557 5.34418 30.2837 -6.48772
767 2 12.4698 3.56279 26.7209 -7.06937
768 2 10.6884 5.34418 26.7209 -7.06462
833 2 10.6884 3.56279 28.5023 -7.08508