ITEM: TIMESTEP
0
ITEM: NUMBER OF ATOMS
4000
ITEM: BOX BOUNDS pp pp pp
0.0000000000000000e+00 3.5790759999999999e+01
0.0000000000000000e+00 3.5790759999999999e+01
0.0000000000000000e+00 3.5790759999999999e+01
ITEM: ATOMS id type x y z c_peratom
1 1 0 0 0 -8.34242
2 1 1.78954 1.78954 0 -8.46405
3 2 1.78954 0 1.78954 -6.94481
4 2 0 1.78954 1.78954 -6.98734
101 3 0 0 3.57908 -6.4359
102 1 1.78954 1.78954 3.57908 -8.32746
5 3 3.57908 0 0 -6.33693
6 1 5.36861 1.78954 0 -8.39898
7 3 5.36861 0 1.78954 -6.38932
8 2 3.57908 1.78954 1.78954 -6.99019
105 3 3.57908 0 3.57908 -6.43874
106 3 5.36861 1.78954 3.57908 -6.45567
9 3 7.15815 0 0 -6.36142
10 2 8.94769 1.78954 0 -7.03331
11 3 8.94769 0 1.78954 -6.304
12 1 7.15815 1.78954 1.78954 -8.48938
109 2 7.15815 0 3.57908 -6.92091
110 3 8.94769 1.78954 3.57908 -6.20748
13 2 10.7372 0 0 -7.00309
14 1 12.5268 1.78954 0 -8.22832
15 2 12.5268 0 1.78954 -6.95628
16 1 10.7372 1.78954 1.78954 -8.23873
113 1 10.7372 0 3.57908 -8.24742
114 1 12.5268 1.78954 3.57908 -8.61475
17 1 14.3163 0 0 -8.3257
18 3 16.1058 1.78954 0 -6.47371
19 1 16.1058 0 1.78954 -8.54081
20 3 14.3163 1.78954 1.78954 -6.4534
117 3 14.3163 0 3.57908 -6.60876
118 2 16.1058 1.78954 3.57908 -6.99815
21 1 0 3.57908 0 -8.24645
22 3 1.78954 5.36861 0 -6.3451
23 2 1.78954 3.57908 1.78954 -7.0795
24 1 0 5.36861 1.78954 -8.32414
121 1 0 3.57908 3.57908 -8.24676
122 1 1.78954 5.36861 3.57908 -8.27627
25 2 3.57908 3.57908 0 -7.00362
26 3 5.36861 5.36861 0 -6.40222
27 2 5.36861 3.57908 1.78954 -7.032
28 1 3.57908 5.36861 1.78954 -8.52063
125 2 3.57908 3.57908 3.57908 -7.05322
126 2 5.36861 5.36861 3.57908 -7.02794
29 2 7.15815 3.57908 0 -7.02031
30 3 8.94769 5.36861 0 -6.24985
31 1 8.94769 3.57908 1.78954 -8.24686
32 1 7.15815 5.36861 1.78954 -8.49054
129 2 7.15815 3.57908 3.57908 -7.00498
130 2 8.94769 5.36861 3.57908 -6.96898
33 2 10.7372 3.57908 0 -7.00654
34 2 12.5268 5.36861 0 -6.99031
35 3 12.5268 3.57908 1.78954 -6.34291
36 1 10.7372 5.36861 1.78954 -8.33817
133 3 10.7372 3.57908 3.57908 -6.25745
134 1 12.5268 5.36861 3.57908 -8.44318
37 3 14.3163 3.57908 0 -6.52502
38 3 16.1058 5.36861 0 -6.69183
39 2 16.1058 3.57908 1.78954 -7.04522
40 2 14.3163 5.36861 1.78954 -7.0351
137 3 14.3163 3.57908 3.57908 -6.48469
138 2 16.1058 5.36861 3.57908 -7.04758
41 2 0 7.15815 0 -6.95825
42 2 1.78954 8.94769 0 -7.01846
43 3 1.78954 7.15815 1.78954 -6.37024
44 1 0 8.94769 1.78954 -8.4129
141 3 0 7.15815 3.57908 -6.27839
142 3 1.78954 8.94769 3.57908 -6.40894
45 2 3.57908 7.15815 0 -7.01061
46 1 5.36861 8.94769 0 -8.44076
47 2 5.36861 7.15815 1.78954 -7.02759
48 2 3.57908 8.94769 1.78954 -6.91416
145 3 3.57908 7.15815 3.57908 -6.38606
146 1 5.36861 8.94769 3.57908 -8.34707
49 3 7.15815 7.15815 0 -6.29354
50 1 8.94769 8.94769 0 -8.08304
51 2 8.94769 7.15815 1.78954 -6.96884
52 2 7.15815 8.94769 1.78954 -7.02053
149 2 7.15815 7.15815 3.57908 -7.10805
150 2 8.94769 8.94769 3.57908 -7.0205
53 1 10.7372 7.15815 0 -8.19903
54 2 12.5268 8.94769 0 -7.07225
55 3 12.5268 7.15815 1.78954 -6.42729
56 1 10.7372 8.94769 1.78954 -8.3597
153 3 10.7372 7.15815 3.57908 -6.41734
154 3 12.5268 8.94769 3.57908 -6.41232
57 2 14.3163 7.15815 0 -7.10431
58 2 16.1058 8.94769 0 -7.07925
59 2 16.1058 7.15815 1.78954 -7.0685
60 3 14.3163 8.94769 1.78954 -6.55413
157 1 14.3163 7.15815 3.57908 -8.33346
158 2 16.1058 8.94769 3.57908 -7.01199
61 2 0 10.7372 0 -7.03953
62 3 1.78954 12.5268 0 -6.43439
63 1 1.78954 10.7372 1.78954 -8.46567
64 2 0 12.5268 1.78954 -6.98201
161 2 0 10.7372 3.57908 -7.06038
162 1 1.78954 12.5268 3.57908 -8.17432
65 3 3.57908 10.7372 0 -6.5507
66 3 5.36861 12.5268 0 -6.49234
67 3 5.36861 10.7372 1.78954 -6.4242
68 3 3.57908 12.5268 1.78954 -6.3763
165 3 3.57908 10.7372 3.57908 -6.28935
166 3 5.36861 12.5268 3.57908 -6.30834
69 1 7.15815 10.7372 0 -8.25777
70 2 8.94769 12.5268 0 -6.97868
71 1 8.94769 10.7372 1.78954 -8.11276
72 3 7.15815 12.5268 1.78954 -6.32476
169 1 7.15815 10.7372 3.57908 -8.20944
170 2 8.94769 12.5268 3.57908 -7.01414
73 2 10.7372 10.7372 0 -7.02577
74 2 12.5268 12.5268 0 -6.9832
75 2 12.5268 10.7372 1.78954 -6.91491
76 1 10.7372 12.5268 1.78954 -8.24792
173 3 10.7372 10.7372 3.57908 -6.47949
174 3 12.5268 12.5268 3.57908 -6.33953
77 3 14.3163 10.7372 0 -6.49391
78 2 16.1058 12.5268 0 -6.90191
79 1 16.1058 10.7372 1.78954 -8.29146
80 1 14.3163 12.5268 1.78954 -8.41775
177 1 14.3163 10.7372 3.57908 -8.50048
178 3 16.1058 12.5268 3.57908 -6.3152
81 2 0 14.3163 0 -6.92819
82 3 1.78954 16.1058 0 -6.37303
83 1 1.78954 14.3163 1.78954 -8.43486
84 3 0 16.1058 1.78954 -6.45635
181 2 0 14.3163 3.57908 -6.89567
182 3 1.78954 16.1058 3.57908 -6.33222
85 1 3.57908 14.3163 0 -8.67177
86 2 5.36861 16.1058 0 -7.02592
87 2 5.36861 14.3163 1.78954 -6.8615
88 3 3.57908 16.1058 1.78954 -6.35846
185 1 3.57908 14.3163 3.57908 -8.34605
186 3 5.36861 16.1058 3.57908 -6.4079
89 3 7.15815 14.3163 0 -6.56141
90 2 8.94769 16.1058 0 -7.03823
91 1 8.94769 14.3163 1.78954 -8.18865
92 1 7.15815 16.1058 1.78954 -8.34242
189 1 7.15815 14.3163 3.57908 -8.489
190 3 8.94769 16.1058 3.57908 -6.37307
93 1 10.7372 14.3163 0 -8.34959
94 2 12.5268 16.1058 0 -6.91835
95 3 12.5268 14.3163 1.78954 -6.31326
96 2 10.7372 16.1058 1.78954 -6.94107
193 1 10.7372 14.3163 3.57908 -8.23576
194 1 12.5268 16.1058 3.57908 -8.33289
97 1 14.3163 14.3163 0 -8.54387
98 3 16.1058 16.1058 0 -6.39133
99 3 16.1058 14.3163 1.78954 -6.39514
100 3 14.3163 16.1058 1.78954 -6.44197
197 3 14.3163 14.3163 3.57908 -6.42357
198 3 16.1058 16.1058 3.57908 -6.45474
103 1 1.78954 0 5.36861 -8.43704
104 2 0 1.78954 5.36861 -7.04177
201 3 0 0 7.15815 -6.44549
202 2 1.78954 1.78954 7.15815 -7.04504
107 1 5.36861 0 5.36861 -8.46265
108 2 3.57908 1.78954 5.36861 -7.01089
203 2 3.57908 0 7.15815 -6.91523
204 3 5.36861 1.78954 7.15815 -6.26771
111 1 8.94769 0 5.36861 -8.07096
112 1 7.15815 1.78954 5.36861 -8.21326
205 2 7.15815 0 7.15815 -7.00667
206 1 8.94769 1.78954 7.15815 -8.27523
115 3 12.5268 0 5.36861 -6.55038
116 3 10.7372 1.78954 5.36861 -6.33424
207 2 10.7372 0 7.15815 -6.97099
208 3 12.5268 1.78954 7.15815 -6.3999
119 2 16.1058 0 5.36861 -6.99511
120 2 14.3163 1.78954 5.36861 -6.88496
209 3 14.3163 0 7.15815 -6.44668
210 1 16.1058 1.78954 7.15815 -8.42434
123 2 1.78954 3.57908 5.36861 -7.01686
124 1 0 5.36861 5.36861 -8.44645
211 2 0 3.57908 7.15815 -6.96156
212 3 1.78954 5.36861 7.15815 -6.41901
127 1 5.36861 3.57908 5.36861 -8.30311
128 3 3.57908 5.36861 5.36861 -6.45705
213 1 3.57908 3.57908 7.15815 -8.44733
214 1 5.36861 5.36861 7.15815 -8.16983
131 1 8.94769 3.57908 5.36861 -8.48523
132 1 7.15815 5.36861 5.36861 -8.35502
215 3 7.15815 3.57908 7.15815 -6.24134
216 3 8.94769 5.36861 7.15815 -6.49696
135 3 12.5268 3.57908 5.36861 -6.41253
136 3 10.7372 5.36861 5.36861 -6.39689
217 3 10.7372 3.57908 7.15815 -6.33738
218 3 12.5268 5.36861 7.15815 -6.34664
139 3 16.1058 3.57908 5.36861 -6.50223
140 1 14.3163 5.36861 5.36861 -8.49529
219 3 14.3163 3.57908 7.15815 -6.3181
220 3 16.1058 5.36861 7.15815 -6.30267
143 3 1.78954 7.15815 5.36861 -6.35879
144 1 0 8.94769 5.36861 -8.65008
221 2 0 7.15815 7.15815 -6.95635
222 2 1.78954 8.94769 7.15815 -7.01051
147 2 5.36861 7.15815 5.36861 -6.94922
148 1 3.57908 8.94769 5.36861 -8.44596
223 2 3.57908 7.15815 7.15815 -7.0202
224 1 5.36861 8.94769 7.15815 -8.25955
151 3 8.94769 7.15815 5.36861 -6.63668
152 2 7.15815 8.94769 5.36861 -7.06839
225 3 7.15815 7.15815 7.15815 -6.46253
226 2 8.94769 8.94769 7.15815 -6.98469
155 1 12.5268 7.15815 5.36861 -8.53255
156 3 10.7372 8.94769 5.36861 -6.51406
227 3 10.7372 7.15815 7.15815 -6.51303
228 3 12.5268 8.94769 7.15815 -6.38905
159 1 16.1058 7.15815 5.36861 -8.16578
160 2 14.3163 8.94769 5.36861 -6.92311
229 2 14.3163 7.15815 7.15815 -6.86117
230 3 16.1058 8.94769 7.15815 -6.26064
163 2 1.78954 10.7372 5.36861 -6.96245
164 2 0 12.5268 5.36861 -7.00056
231 2 0 10.7372 7.15815 -7.05359
232 3 1.78954 12.5268 7.15815 -6.36777
167 1 5.36861 10.7372 5.36861 -8.08468
168 1 3.57908 12.5268 5.36861 -8.3645
233 3 3.57908 10.7372 7.15815 -6.25493
234 1 5.36861 12.5268 7.15815 -8.37748
171 1 8.94769 10.7372 5.36861 -8.40705
172 2 7.15815 12.5268 5.36861 -7.04295
235 2 7.15815 10.7372 7.15815 -7.00877
236 1 8.94769 12.5268 7.15815 -8.26107
175 2 12.5268 10.7372 5.36861 -6.94952
176 2 10.7372 12.5268 5.36861 -7.02036
237 3 10.7372 10.7372 7.15815 -6.43071
238 2 12.5268 12.5268 7.15815 -6.92306
179 3 16.1058 10.7372 5.36861 -6.31969
180 3 14.3163 12.5268 5.36861 -6.47141
239 3 14.3163 10.7372 7.15815 -6.45223
240 1 16.1058 12.5268 7.15815 -8.5328
183 3 1.78954 14.3163 5.36861 -6.24244
184 1 0 16.1058 5.36861 -8.61535
241 1 0 14.3163 7.15815 -8.5511
242 3 1.78954 16.1058 7.15815 -6.28934
187 2 5.36861 14.3163 5.36861 -6.93898
188 1 3.57908 16.1058 5.36861 -8.61172
243 3 3.57908 14.3163 7.15815 -6.20391
244 1 5.36861 16.1058 7.15815 -8.43085
191 2 8.94769 14.3163 5.36861 -6.94361
192 3 7.15815 16.1058 5.36861 -6.55766
245 3 7.15815 14.3163 7.15815 -6.35889
246 2 8.94769 16.1058 7.15815 -6.95169
195 1 12.5268 14.3163 5.36861 -8.43288
196 3 10.7372 16.1058 5.36861 -6.42514
247 1 10.7372 14.3163 7.15815 -8.23286
248 2 12.5268 16.1058 7.15815 -7.02854
199 3 16.1058 14.3163 5.36861 -6.46701
200 3 14.3163 16.1058 5.36861 -6.48624
249 2 14.3163 14.3163 7.15815 -6.93877
250 3 16.1058 16.1058 7.15815 -6.37513
251 1 1.78954 0 8.94769 -8.3111
252 1 0 1.78954 8.94769 -8.26195
301 2 0 0 10.7372 -7.07808
302 1 1.78954 1.78954 10.7372 -8.13874
303 3 1.78954 0 12.5268 -6.32268
304 1 0 1.78954 12.5268 -8.12523
253 1 5.36861 0 8.94769 -8.4915
254 2 3.57908 1.78954 8.94769 -6.92942
305 1 3.57908 0 10.7372 -8.13982
306 3 5.36861 1.78954 10.7372 -6.2188
307 2 5.36861 0 12.5268 -6.99511
308 1 3.57908 1.78954 12.5268 -8.21154
255 3 8.94769 0 8.94769 -6.34896
256 3 7.15815 1.78954 8.94769 -6.30541
309 1 7.15815 0 10.7372 -8.52685
310 3 8.94769 1.78954 10.7372 -6.18457
311 3 8.94769 0 12.5268 -6.23512
312 1 7.15815 1.78954 12.5268 -8.21801
257 1 12.5268 0 8.94769 -8.41535
258 1 10.7372 1.78954 8.94769 -8.27605
313 3 10.7372 0 10.7372 -6.26967
314 2 12.5268 1.78954 10.7372 -6.99446
315 2 12.5268 0 12.5268 -7.02353
316 1 10.7372 1.78954 12.5268 -8.22446
259 1 16.1058 0 8.94769 -8.46282
260 1 14.3163 1.78954 8.94769 -8.17264
317 3 14.3163 0 10.7372 -6.3041
318 1 16.1058 1.78954 10.7372 -8.19528
319 2 16.1058 0 12.5268 -6.98218
320 1 14.3163 1.78954 12.5268 -8.21281
261 3 1.78954 3.57908 8.94769 -6.3765
262 1 0 5.36861 8.94769 -8.34975
321 2 0 3.57908 10.7372 -7.07341
322 1 1.78954 5.36861 10.7372 -8.24382
323 1 1.78954 3.57908 12.5268 -8.11032
324 2 0 5.36861 12.5268 -6.97391
263 1 5.36861 3.57908 8.94769 -8.48229
264 3 3.57908 5.36861 8.94769 -6.27939
325 3 3.57908 3.57908 10.7372 -6.24738
326 3 5.36861 5.36861 10.7372 -6.30231
327 2 5.36861 3.57908 12.5268 -6.92527
328 1 3.57908 5.36861 12.5268 -8.45911
265 2 8.94769 3.57908 8.94769 -6.86631
266 2 7.15815 5.36861 8.94769 -6.94256
329 1 7.15815 3.57908 10.7372 -8.28494
330 2 8.94769 5.36861 10.7372 -7.05924
331 1 8.94769 3.57908 12.5268 -7.98672
332 1 7.15815 5.36861 12.5268 -8.28638
267 1 12.5268 3.57908 8.94769 -8.42111
268 3 10.7372 5.36861 8.94769 -6.50036
333 1 10.7372 3.57908 10.7372 -8.14188
334 2 12.5268 5.36861 10.7372 -7.05633
335 2 12.5268 3.57908 12.5268 -7.10108
336 1 10.7372 5.36861 12.5268 -8.15758
269 1 16.1058 3.57908 8.94769 -8.41083
270 2 14.3163 5.36861 8.94769 -6.87955
337 2 14.3163 3.57908 10.7372 -7.10084
338 2 16.1058 5.36861 10.7372 -6.99902
339 2 16.1058 3.57908 12.5268 -7.0696
340 1 14.3163 5.36861 12.5268 -8.34845
271 1 1.78954 7.15815 8.94769 -8.18053
272 1 0 8.94769 8.94769 -8.32009
341 2 0 7.15815 10.7372 -7.04766
342 2 1.78954 8.94769 10.7372 -7.07734
343 2 1.78954 7.15815 12.5268 -6.96184
344 1 0 8.94769 12.5268 -8.22729
273 1 5.36861 7.15815 8.94769 -8.2315
274 1 3.57908 8.94769 8.94769 -8.21484
345 2 3.57908 7.15815 10.7372 -6.94955
346 3 5.36861 8.94769 10.7372 -6.2757
347 3 5.36861 7.15815 12.5268 -6.31938
348 1 3.57908 8.94769 12.5268 -8.39816
275 3 8.94769 7.15815 8.94769 -6.56334
276 2 7.15815 8.94769 8.94769 -6.9579
349 1 7.15815 7.15815 10.7372 -8.3734
350 1 8.94769 8.94769 10.7372 -8.17748
351 2 8.94769 7.15815 12.5268 -7.03519
352 3 7.15815 8.94769 12.5268 -6.32951
277 1 12.5268 7.15815 8.94769 -8.5076
278 2 10.7372 8.94769 8.94769 -6.97
353 2 10.7372 7.15815 10.7372 -7.02297
354 1 12.5268 8.94769 10.7372 -7.99136
355 2 12.5268 7.15815 12.5268 -7.00005
356 1 10.7372 8.94769 12.5268 -8.21616
279 1 16.1058 7.15815 8.94769 -8.43801
280 1 14.3163 8.94769 8.94769 -8.31194
357 3 14.3163 7.15815 10.7372 -6.25899
358 3 16.1058 8.94769 10.7372 -6.16686
359 1 16.1058 7.15815 12.5268 -8.38603
360 1 14.3163 8.94769 12.5268 -8.33438
281 2 1.78954 10.7372 8.94769 -6.96501
282 1 0 12.5268 8.94769 -8.50303
361 1 0 10.7372 10.7372 -8.10837
362 3 1.78954 12.5268 10.7372 -6.28
363 1 1.78954 10.7372 12.5268 -8.22884
364 1 0 12.5268 12.5268 -8.53968
283 3 5.36861 10.7372 8.94769 -6.31063
284 1 3.57908 12.5268 8.94769 -8.64951
365 1 3.57908 10.7372 10.7372 -8.32935
366 3 5.36861 12.5268 10.7372 -6.38026
367 3 5.36861 10.7372 12.5268 -6.36167
368 2 3.57908 12.5268 12.5268 -6.83833
285 1 8.94769 10.7372 8.94769 -8.23023
286 2 7.15815 12.5268 8.94769 -6.91076
369 1 7.15815 10.7372 10.7372 -8.63888
370 3 8.94769 12.5268 10.7372 -6.34267
371 3 8.94769 10.7372 12.5268 -6.27664
372 3 7.15815 12.5268 12.5268 -6.38041
287 1 12.5268 10.7372 8.94769 -8.42097
288 3 10.7372 12.5268 8.94769 -6.21428
373 1 10.7372 10.7372 10.7372 -8.15604
374 3 12.5268 12.5268 10.7372 -6.38084
375 3 12.5268 10.7372 12.5268 -6.32683
376 1 10.7372 12.5268 12.5268 -8.51516
289 2 16.1058 10.7372 8.94769 -6.92601
290 3 14.3163 12.5268 8.94769 -6.37985
377 1 14.3163 10.7372 10.7372 -8.22418
378 1 16.1058 12.5268 10.7372 -8.21891
379 2 16.1058 10.7372 12.5268 -7.03259
380 2 14.3163 12.5268 12.5268 -6.98524
291 3 1.78954 14.3163 8.94769 -6.25771
292 2 0 16.1058 8.94769 -6.79517
381 3 0 14.3163 10.7372 -6.40505
382 1 1.78954 16.1058 10.7372 -8.52915
383 3 1.78954 14.3163 12.5268 -6.45884
384 2 0 16.1058 12.5268 -6.94163
293 3 5.36861 14.3163 8.94769 -6.26522
294 1 3.57908 16.1058 8.94769 -8.60141
385 3 3.57908 14.3163 10.7372 -6.35823
386 3 5.36861 16.1058 10.7372 -6.32048
387 1 5.36861 14.3163 12.5268 -8.47104
388 2 3.57908 16.1058 12.5268 -6.94765
295 1 8.94769 14.3163 8.94769 -8.43685
296 1 7.15815 16.1058 8.94769 -8.32615
389 3 7.15815 14.3163 10.7372 -6.35885
390 3 8.94769 16.1058 10.7372 -6.38981
391 3 8.94769 14.3163 12.5268 -6.45995
392 3 7.15815 16.1058 12.5268 -6.33402
297 1 12.5268 14.3163 8.94769 -8.49616
298 3 10.7372 16.1058 8.94769 -6.38324
393 2 10.7372 14.3163 10.7372 -6.88898
394 3 12.5268 16.1058 10.7372 -6.57085
395 2 12.5268 14.3163 12.5268 -7.01922
396 2 10.7372 16.1058 12.5268 -6.94775
299 3 16.1058 14.3163 8.94769 -6.30513
300 1 14.3163 16.1058 8.94769 -8.40126
397 2 14.3163 14.3163 10.7372 -7.00397
398 2 16.1058 16.1058 10.7372 -6.971
399 3 16.1058 14.3163 12.5268 -6.34362
400 2 14.3163 16.1058 12.5268 -7.02011
401 3 0 0 14.3163 -6.34368
402 2 1.78954 1.78954 14.3163 -6.88579
403 2 1.78954 0 16.1058 -6.98225
404 3 0 1.78954 16.1058 -6.2846
405 1 3.57908 0 14.3163 -8.19133
406 1 5.36861 1.78954 14.3163 -8.1627
407 3 5.36861 0 16.1058 -6.3645
408 1 3.57908 1.78954 16.1058 -8.42709
409 3 7.15815 0 14.3163 -6.42358
410 2 8.94769 1.78954 14.3163 -6.95631
411 1 8.94769 0 16.1058 -8.29903
412 1 7.15815 1.78954 16.1058 -8.39808
413 1 10.7372 0 14.3163 -8.20018
414 1 12.5268 1.78954 14.3163 -8.13787
415 3 12.5268 0 16.1058 -6.29858
416 1 10.7372 1.78954 16.1058 -8.11661
417 1 14.3163 0 14.3163 -8.2481
418 2 16.1058 1.78954 14.3163 -7.04756
419 2 16.1058 0 16.1058 -7.02946
420 3 14.3163 1.78954 16.1058 -6.41825
421 3 0 3.57908 14.3163 -6.16763
422 1 1.78954 5.36861 14.3163 -8.31319
423 1 1.78954 3.57908 16.1058 -8.30826
424 3 0 5.36861 16.1058 -6.41149
425 3 3.57908 3.57908 14.3163 -6.16162
426 2 5.36861 5.36861 14.3163 -6.89172
427 3 5.36861 3.57908 16.1058 -6.24143
428 1 3.57908 5.36861 16.1058 -8.35304
429 1 7.15815 3.57908 14.3163 -8.12804
430 3 8.94769 5.36861 14.3163 -6.28483
431 3 8.94769 3.57908 16.1058 -6.32736
432 1 7.15815 5.36861 16.1058 -8.40539
433 1 10.7372 3.57908 14.3163 -8.14013
434 1 12.5268 5.36861 14.3163 -8.1056
435 2 12.5268 3.57908 16.1058 -6.99915
436 3 10.7372 5.36861 16.1058 -6.38408
437 2 14.3163 3.57908 14.3163 -7.07715
438 3 16.1058 5.36861 14.3163 -6.42521
439 1 16.1058 3.57908 16.1058 -8.36702
440 2 14.3163 5.36861 16.1058 -7.02924
441 2 0 7.15815 14.3163 -7.04036
442 3 1.78954 8.94769 14.3163 -6.43204
443 3 1.78954 7.15815 16.1058 -6.47577
444 2 0 8.94769 16.1058 -6.969
445 3 3.57908 7.15815 14.3163 -6.26971
446 1 5.36861 8.94769 14.3163 -8.38971
447 1 5.36861 7.15815 16.1058 -7.98376
448 2 3.57908 8.94769 16.1058 -6.97465
449 2 7.15815 7.15815 14.3163 -6.94357
450 1 8.94769 8.94769 14.3163 -8.38472
451 3 8.94769 7.15815 16.1058 -6.33911
452 2 7.15815 8.94769 16.1058 -7.02428
453 2 10.7372 7.15815 14.3163 -6.99483
454 2 12.5268 8.94769 14.3163 -7.01246
455 1 12.5268 7.15815 16.1058 -8.08743
456 1 10.7372 8.94769 16.1058 -8.16574
457 2 14.3163 7.15815 14.3163 -7.05196
458 3 16.1058 8.94769 14.3163 -6.35837
459 1 16.1058 7.15815 16.1058 -8.32937
460 1 14.3163 8.94769 16.1058 -8.31214
461 3 0 10.7372 14.3163 -6.23781
462 3 1.78954 12.5268 14.3163 -6.37504
463 1 1.78954 10.7372 16.1058 -8.61905
464 1 0 12.5268 16.1058 -8.69845
465 2 3.57908 10.7372 14.3163 -6.96483
466 1 5.36861 12.5268 14.3163 -8.41833
467 2 5.36861 10.7372 16.1058 -7.06753
468 3 3.57908 12.5268 16.1058 -6.46425
469 2 7.15815 10.7372 14.3163 -6.9602
470 1 8.94769 12.5268 14.3163 -8.55321
471 2 8.94769 10.7372 16.1058 -7.06298
472 2 7.15815 12.5268 16.1058 -7.10826
473 2 10.7372 10.7372 14.3163 -6.96291
474 3 12.5268 12.5268 14.3163 -6.57033
475 1 12.5268 10.7372 16.1058 -8.44494
476 3 10.7372 12.5268 16.1058 -6.48463
477 2 14.3163 10.7372 14.3163 -7.01485
478 1 16.1058 12.5268 14.3163 -8.48092
479 2 16.1058 10.7372 16.1058 -7.03682
480 3 14.3163 12.5268 16.1058 -6.47303
481 2 0 14.3163 14.3163 -6.93604
482 2 1.78954 16.1058 14.3163 -7.03574
483 3 1.78954 14.3163 16.1058 -6.48248
484 2 0 16.1058 16.1058 -7.04138
485 1 3.57908 14.3163 14.3163 -8.47708
486 1 5.36861 16.1058 14.3163 -8.20707
487 2 5.36861 14.3163 16.1058 -6.98878
488 3 3.57908 16.1058 16.1058 -6.33771
489 2 7.15815 14.3163 14.3163 -6.87764
490 1 8.94769 16.1058 14.3163 -8.65986
491 3 8.94769 14.3163 16.1058 -6.42968
492 2 7.15815 16.1058 16.1058 -6.95985
493 3 10.7372 14.3163 14.3163 -6.42453
494 1 12.5268 16.1058 14.3163 -8.56856
495 3 12.5268 14.3163 16.1058 -6.44507
496 3 10.7372 16.1058 16.1058 -6.35943
497 3 14.3163 14.3163 14.3163 -6.47808
498 1 16.1058 16.1058 14.3163 -8.41154
499 2 16.1058 14.3163 16.1058 -6.91923
500 2 14.3163 16.1058 16.1058 -6.94865
501 2 0 0 17.8954 -6.91352
502 3 1.78954 1.78954 17.8954 -6.36368
503 3 1.78954 0 19.6849 -6.41927
504 2 0 1.78954 19.6849 -6.9294
601 1 0 0 21.4745 -8.50219
602 2 1.78954 1.78954 21.4745 -6.98433
505 3 3.57908 0 17.8954 -6.36301
506 3 5.36861 1.78954 17.8954 -6.36993
507 2 5.36861 0 19.6849 -6.98355
508 1 3.57908 1.78954 19.6849 -8.47941
605 3 3.57908 0 21.4745 -6.48708
606 3 5.36861 1.78954 21.4745 -6.34034
509 2 7.15815 0 17.8954 -7.04483
510 2 8.94769 1.78954 17.8954 -7.0425
511 2 8.94769 0 19.6849 -7.094
512 2 7.15815 1.78954 19.6849 -7.01188
609 1 7.15815 0 21.4745 -8.32913
610 1 8.94769 1.78954 21.4745 -8.05451
513 3 10.7372 0 17.8954 -6.51745
514 1 12.5268 1.78954 17.8954 -8.44105
515 2 12.5268 0 19.6849 -6.99634
516 2 10.7372 1.78954 19.6849 -7.00006
613 1 10.7372 0 21.4745 -8.19481
614 1 12.5268 1.78954 21.4745 -8.09483
517 2 14.3163 0 17.8954 -6.98003
518 1 16.1058 1.78954 17.8954 -8.1706
519 2 16.1058 0 19.6849 -6.97455
520 1 14.3163 1.78954 19.6849 -8.23502
617 3 14.3163 0 21.4745 -6.30961
618 3 16.1058 1.78954 21.4745 -6.13244
521 1 0 3.57908 17.8954 -8.27515
522 3 1.78954 5.36861 17.8954 -6.22939
523 1 1.78954 3.57908 19.6849 -8.17057
524 1 0 5.36861 19.6849 -8.36071
621 2 0 3.57908 21.4745 -6.92124
622 3 1.78954 5.36861 21.4745 -6.21777
525 2 3.57908 3.57908 17.8954 -6.82487
526 3 5.36861 5.36861 17.8954 -6.22006
527 1 5.36861 3.57908 19.6849 -8.4021
528 1 3.57908 5.36861 19.6849 -8.35766
625 1 3.57908 3.57908 21.4745 -8.07183
626 2 5.36861 5.36861 21.4745 -7.01369
529 2 7.15815 3.57908 17.8954 -6.98349
530 2 8.94769 5.36861 17.8954 -6.955
531 1 8.94769 3.57908 19.6849 -8.28457
532 2 7.15815 5.36861 19.6849 -6.89247
629 3 7.15815 3.57908 21.4745 -6.26188
630 3 8.94769 5.36861 21.4745 -6.16671
533 2 10.7372 3.57908 17.8954 -6.96369
534 1 12.5268 5.36861 17.8954 -8.31248
535 3 12.5268 3.57908 19.6849 -6.27147
536 1 10.7372 5.36861 19.6849 -8.24436
633 1 10.7372 3.57908 21.4745 -8.14134
634 3 12.5268 5.36861 21.4745 -6.31567
537 2 14.3163 3.57908 17.8954 -7.03366
538 2 16.1058 5.36861 17.8954 -6.96049
539 1 16.1058 3.57908 19.6849 -8.22571
540 3 14.3163 5.36861 19.6849 -6.29969
637 3 14.3163 3.57908 21.4745 -6.20441
638 1 16.1058 5.36861 21.4745 -8.25358
541 2 0 7.15815 17.8954 -6.90469
542 3 1.78954 8.94769 17.8954 -6.61505
543 3 1.78954 7.15815 19.6849 -6.41032
544 2 0 8.94769 19.6849 -6.97824
641 1 0 7.15815 21.4745 -8.46869
642 2 1.78954 8.94769 21.4745 -7.06307
545 1 3.57908 7.15815 17.8954 -8.35409
546 1 5.36861 8.94769 17.8954 -8.06515
547 3 5.36861 7.15815 19.6849 -6.28735
548 2 3.57908 8.94769 19.6849 -7.06622
645 2 3.57908 7.15815 21.4745 -6.98381
646 1 5.36861 8.94769 21.4745 -8.17995
549 1 7.15815 7.15815 17.8954 -8.37833
550 3 8.94769 8.94769 17.8954 -6.3346
551 3 8.94769 7.15815 19.6849 -6.23365
552 1 7.15815 8.94769 19.6849 -8.00649
649 1 7.15815 7.15815 21.4745 -8.1886
650 1 8.94769 8.94769 21.4745 -8.28141
553 1 10.7372 7.15815 17.8954 -8.36672
554 3 12.5268 8.94769 17.8954 -6.20157
555 1 12.5268 7.15815 19.6849 -8.27728
556 3 10.7372 8.94769 19.6849 -6.23306
653 3 10.7372 7.15815 21.4745 -6.18589
654 1 12.5268 8.94769 21.4745 -8.36743
557 2 14.3163 7.15815 17.8954 -6.97679
558 3 16.1058 8.94769 17.8954 -6.43622
559 3 16.1058 7.15815 19.6849 -6.41167
560 1 14.3163 8.94769 19.6849 -8.50971
657 3 14.3163 7.15815 21.4745 -6.214
658 3 16.1058 8.94769 21.4745 -6.45669
561 3 0 10.7372 17.8954 -6.51164
562 3 1.78954 12.5268 17.8954 -6.48649
563 2 1.78954 10.7372 19.6849 -7.05107
564 1 0 12.5268 19.6849 -8.57012
661 1 0 10.7372 21.4745 -8.39783
662 3 1.78954 12.5268 21.4745 -6.40952
565 2 3.57908 10.7372 17.8954 -7.04088
566 2 5.36861 12.5268 17.8954 -7.024
567 1 5.36861 10.7372 19.6849 -8.18022
568 2 3.57908 12.5268 19.6849 -7.01617
665 2 3.57908 10.7372 21.4745 -7.0232
666 1 5.36861 12.5268 21.4745 -8.29602
569 2 7.15815 10.7372 17.8954 -7.06386
570 3 8.94769 12.5268 17.8954 -6.49695
571 1 8.94769 10.7372 19.6849 -8.29691
572 3 7.15815 12.5268 19.6849 -6.41281
669 2 7.15815 10.7372 21.4745 -7.03572
670 1 8.94769 12.5268 21.4745 -8.3203
573 2 10.7372 10.7372 17.8954 -6.89774
574 2 12.5268 12.5268 17.8954 -6.94452
575 1 12.5268 10.7372 19.6849 -8.17447
576 1 10.7372 12.5268 19.6849 -8.10757
673 2 10.7372 10.7372 21.4745 -7.00316
674 1 12.5268 12.5268 21.4745 -8.24341
577 2 14.3163 10.7372 17.8954 -6.97565
578 1 16.1058 12.5268 17.8954 -8.3674
579 3 16.1058 10.7372 19.6849 -6.45974
580 1 14.3163 12.5268 19.6849 -8.19918
677 3 14.3163 10.7372 21.4745 -6.38211
678 2 16.1058 12.5268 21.4745 -6.99994
581 3 0 14.3163 17.8954 -6.54553
582 3 1.78954 16.1058 17.8954 -6.46311
583 3 1.78954 14.3163 19.6849 -6.44456
584 2 0 16.1058 19.6849 -7.00259
681 2 0 14.3163 21.4745 -6.93916
682 1 1.78954 16.1058 21.4745 -8.27959
585 1 3.57908 14.3163 17.8954 -8.7587
586 3 5.36861 16.1058 17.8954 -6.38442
587 3 5.36861 14.3163 19.6849 -6.44632
588 2 3.57908 16.1058 19.6849 -6.9305
685 1 3.57908 14.3163 21.4745 -8.45498
686 3 5.36861 16.1058 21.4745 -6.62061
589 1 7.15815 14.3163 17.8954 -8.76325
590 3 8.94769 16.1058 17.8954 -6.43271
591 2 8.94769 14.3163 19.6849 -6.94318
592 3 7.15815 16.1058 19.6849 -6.4808
689 2 7.15815 14.3163 21.4745 -6.92539
690 1 8.94769 16.1058 21.4745 -8.56838
593 1 10.7372 14.3163 17.8954 -8.66479
594 3 12.5268 16.1058 17.8954 -6.40328
595 3 12.5268 14.3163 19.6849 -6.30399
596 2 10.7372 16.1058 19.6849 -6.85488
693 3 10.7372 14.3163 21.4745 -6.19831
694 1 12.5268 16.1058 21.4745 -8.42058
597 1 14.3163 14.3163 17.8954 -8.39669
598 1 16.1058 16.1058 17.8954 -8.27211
599 1 16.1058 14.3163 19.6849 -8.19234
600 3 14.3163 16.1058 19.6849 -6.30801
697 2 14.3163 14.3163 21.4745 -6.96266
698 1 16.1058 16.1058 21.4745 -8.50071
603 2 1.78954 0 23.264 -7.0098
604 2 0 1.78954 23.264 -6.97102
701 2 0 0 25.0535 -7.02883
702 1 1.78954 1.78954 25.0535 -8.49107
607 2 5.36861 0 23.264 -7.00011
608 3 3.57908 1.78954 23.264 -6.46134
703 3 3.57908 0 25.0535 -6.5475
704 2 5.36861 1.78954 25.0535 -6.95025
611 2 8.94769 0 23.264 -6.9532
612 3 7.15815 1.78954 23.264 -6.36549
705 1 7.15815 0 25.0535 -8.50423
706 3 8.94769 1.78954 25.0535 -6.40498
615 1 12.5268 0 23.264 -8.40799
616 1 10.7372 1.78954 23.264 -8.27316
707 3 10.7372 0 25.0535 -6.34967
708 3 12.5268 1.78954 25.0535 -6.22205
619 1 16.1058 0 23.264 -8.31806
620 1 14.3163 1.78954 23.264 -8.31311
709 3 14.3163 0 25.0535 -6.21679
710 2 16.1058 1.78954 25.0535 -7.03712
623 1 1.78954 3.57908 23.264 -8.33573
624 3 0 5.36861 23.264 -6.38449
711 2 0 3.57908 25.0535 -7.01648
712 2 1.78954 5.36861 25.0535 -6.89081
627 1 5.36861 3.57908 23.264 -8.50189
628 1 3.57908 5.36861 23.264 -8.28819
713 3 3.57908 3.57908 25.0535 -6.3514
714 3 5.36861 5.36861 25.0535 -6.3236
631 1 8.94769 3.57908 23.264 -8.42331
632 1 7.15815 5.36861 23.264 -8.22713
715 3 7.15815 3.57908 25.0535 -6.42452
716 2 8.94769 5.36861 25.0535 -6.90714
635 2 12.5268 3.57908 23.264 -6.82441
636 3 10.7372 5.36861 23.264 -6.24203
717 3 10.7372 3.57908 25.0535 -6.36462
718 1 12.5268 5.36861 25.0535 -8.70415
639 1 16.1058 3.57908 23.264 -8.18461
640 3 14.3163 5.36861 23.264 -6.27295
719 2 14.3163 3.57908 25.0535 -6.95538
720 2 16.1058 5.36861 25.0535 -6.97944
643 1 1.78954 7.15815 23.264 -8.46532
644 3 0 8.94769 23.264 -6.35175
721 2 0 7.15815 25.0535 -7.00139
722 3 1.78954 8.94769 25.0535 -6.3598
647 2 5.36861 7.15815 23.264 -6.99684
648 2 3.57908 8.94769 23.264 -7.03654
723 3 3.57908 7.15815 25.0535 -6.48328
724 2 5.36861 8.94769 25.0535 -6.99156
651 1 8.94769 7.15815 23.264 -8.42329
652 2 7.15815 8.94769 23.264 -7.04526
725 1 7.15815 7.15815 25.0535 -8.25052
726 3 8.94769 8.94769 25.0535 -6.36018
655 1 12.5268 7.15815 23.264 -8.54764
656 3 10.7372 8.94769 23.264 -6.24794
727 3 10.7372 7.15815 25.0535 -6.2919
728 1 12.5268 8.94769 25.0535 -8.5279
659 1 16.1058 7.15815 23.264 -8.49729
660 2 14.3163 8.94769 23.264 -6.94217
729 3 14.3163 7.15815 25.0535 -6.45179
730 2 16.1058 8.94769 25.0535 -7.00015
663 1 1.78954 10.7372 23.264 -8.37112
664 2 0 12.5268 23.264 -6.99413
731 1 0 10.7372 25.0535 -8.55881
732 3 1.78954 12.5268 25.0535 -6.34373
667 1 5.36861 10.7372 23.264 -8.2351
668 3 3.57908 12.5268 23.264 -6.20993
733 1 3.57908 10.7372 25.0535 -8.4049
734 1 5.36861 12.5268 25.0535 -8.18894
671 2 8.94769 10.7372 23.264 -6.98665
672 3 7.15815 12.5268 23.264 -6.35422
735 2 7.15815 10.7372 25.0535 -7.03519
736 1 8.94769 12.5268 25.0535 -8.25492
675 3 12.5268 10.7372 23.264 -6.37158
676 1 10.7372 12.5268 23.264 -8.09912
737 1 10.7372 10.7372 25.0535 -8.34063
738 2 12.5268 12.5268 25.0535 -6.94711
679 3 16.1058 10.7372 23.264 -6.69282
680 2 14.3163 12.5268 23.264 -7.03114
739 2 14.3163 10.7372 25.0535 -7.06957
740 2 16.1058 12.5268 25.0535 -7.11264
683 1 1.78954 14.3163 23.264 -8.29686
684 3 0 16.1058 23.264 -6.3457
741 2 0 14.3163 25.0535 -6.91401
742 1 1.78954 16.1058 25.0535 -8.27999
687 2 5.36861 14.3163 23.264 -6.92743
688 2 3.57908 16.1058 23.264 -7.01521
743 1 3.57908 14.3163 25.0535 -8.1941
744 1 5.36861 16.1058 25.0535 -8.26198
691 2 8.94769 14.3163 23.264 -6.97487
692 3 7.15815 16.1058 23.264 -6.51077
745 3 7.15815 14.3163 25.0535 -6.33074
746 3 8.94769 16.1058 25.0535 -6.39954
695 1 12.5268 14.3163 23.264 -8.15535
696 1 10.7372 16.1058 23.264 -8.28438
747 2 10.7372 14.3163 25.0535 -6.9934
748 1 12.5268 16.1058 25.0535 -8.33087
699 1 16.1058 14.3163 23.264 -8.50377
700 3 14.3163 16.1058 23.264 -6.36017
749 3 14.3163 14.3163 25.0535 -6.40934
750 3 16.1058 16.1058 25.0535 -6.48918
751 2 1.78954 0 26.8431 -6.96515
752 1 0 1.78954 26.8431 -8.30756
801 3 0 0 28.6326 -6.43179
802 1 1.78954 1.78954 28.6326 -8.58105
803 2 1.78954 0 30.4221 -6.90236
804 3 0 1.78954 30.4221 -6.37805
753 2 5.36861 0 26.8431 -6.97443
754 3 3.57908 1.78954 26.8431 -6.4843
805 2 3.57908 0 28.6326 -6.9861
806 2 5.36861 1.78954 28.6326 -7.00448
807 1 5.36861 0 30.4221 -8.31848
808 3 3.57908 1.78954 30.4221 -6.43902
755 2 8.94769 0 26.8431 -6.93126
756 2 7.15815 1.78954 26.8431 -6.99342
809 1 7.15815 0 28.6326 -8.50051
810 3 8.94769 1.78954 28.6326 -6.4904
811 3 8.94769 0 30.4221 -6.53788
812 1 7.15815 1.78954 30.4221 -8.36427
757 1 12.5268 0 26.8431 -8.49234
758 1 10.7372 1.78954 26.8431 -8.67067
813 2 10.7372 0 28.6326 -6.92082
814 3 12.5268 1.78954 28.6326 -6.37517
815 1 12.5268 0 30.4221 -8.57006
816 3 10.7372 1.78954 30.4221 -6.59788
759 3 16.1058 0 26.8431 -6.28781
760 1 14.3163 1.78954 26.8431 -8.56604
817 2 14.3163 0 28.6326 -6.87052
818 3 16.1058 1.78954 28.6326 -6.27057
819 1 16.1058 0 30.4221 -8.33494
820 2 14.3163 1.78954 30.4221 -6.86505
761 3 1.78954 3.57908 26.8431 -6.3729
762 1 0 5.36861 26.8431 -8.39469
821 3 0 3.57908 28.6326 -6.34359
822 2 1.78954 5.36861 28.6326 -6.93219
823 3 1.78954 3.57908 30.4221 -6.3191
824 1 0 5.36861 30.4221 -8.52174
763 1 5.36861 3.57908 26.8431 -8.59321
764 3 3.57908 5.36861 26.8431 -6.36622
825 1 3.57908 3.57908 28.6326 -8.37495
826 3 5.36861 5.36861 28.6326 -6.25363
827 2 5.36861 3.57908 30.4221 -6.88328
828 1 3.57908 5.36861 30.4221 -8.46024
765 3 8.94769 3.57908 26.8431 -6.59071
766 2 7.15815 5.36861 26.8431 -6.86444
829 2 7.15815 3.57908 28.6326 -6.91058
830 3 8.94769 5.36861 28.6326 -6.46475
831 3 8.94769 3.57908 30.4221 -6.53182
832 1 7.15815 5.36861 30.4221 -8.59801
767 3 12.5268 3.57908 26.8431 -6.42402
768 3 10.7372 5.36861 26.8431 -6.45728
833 2 10.7372 3.57908 28.6326 -6.89643
834 1 12.5268 5.36861 28.6326 -8.65309
835 1 12.5268 3.57908 30.4221 -8.64765