ITEM: TIMESTEP
0
ITEM: NUMBER OF ATOMS
4000
ITEM: BOX BOUNDS pp pp pp
0.0000000000000000e+00 3.6243159999999996e+01
0.0000000000000000e+00 3.6243159999999996e+01
0.0000000000000000e+00 3.6243159999999996e+01
ITEM: ATOMS id type x y z c_peratom
1 2 0 0 0 -7.11373
2 2 1.81216 1.81216 0 -7.09053
3 3 1.81216 0 1.81216 -6.7021
4 2 0 1.81216 1.81216 -7.12607
101 2 0 0 3.62432 -7.10016
102 2 1.81216 1.81216 3.62432 -7.09605
5 3 3.62432 0 0 -6.51727
6 1 5.43647 1.81216 0 -7.97665
7 2 5.43647 0 1.81216 -7.05192
8 2 3.62432 1.81216 1.81216 -6.99958
105 3 3.62432 0 3.62432 -6.64646
106 3 5.43647 1.81216 3.62432 -6.42694
9 1 7.24863 0 0 -7.97982
10 1 9.06079 1.81216 0 -7.99134
11 2 9.06079 0 1.81216 -7.13732
12 2 7.24863 1.81216 1.81216 -7.10169
109 1 7.24863 0 3.62432 -8.17052
110 2 9.06079 1.81216 3.62432 -7.10142
13 2 10.8729 0 0 -7.12458
14 1 12.6851 1.81216 0 -8.13177
15 2 12.6851 0 1.81216 -7.02707
16 1 10.8729 1.81216 1.81216 -8.14679
113 3 10.8729 0 3.62432 -6.45276
114 3 12.6851 1.81216 3.62432 -6.56642
17 2 14.4973 0 0 -7.022
18 3 16.3094 1.81216 0 -6.65603
19 2 16.3094 0 1.81216 -6.9447
20 2 14.4973 1.81216 1.81216 -7.04704
117 1 14.4973 0 3.62432 -8.46306
118 3 16.3094 1.81216 3.62432 -6.64786
21 3 0 3.62432 0 -6.67808
22 3 1.81216 5.43647 0 -6.50541
23 3 1.81216 3.62432 1.81216 -6.52825
24 3 0 5.43647 1.81216 -6.58176
121 2 0 3.62432 3.62432 -6.99757
122 3 1.81216 5.43647 3.62432 -6.3796
25 1 3.62432 3.62432 0 -8.04779
26 3 5.43647 5.43647 0 -6.24172
27 1 5.43647 3.62432 1.81216 -7.98323
28 1 3.62432 5.43647 1.81216 -8.12242
125 1 3.62432 3.62432 3.62432 -8.14303
126 1 5.43647 5.43647 3.62432 -8.19161
29 1 7.24863 3.62432 0 -8.03876
30 1 9.06079 5.43647 0 -7.9239
31 1 9.06079 3.62432 1.81216 -8.07483
32 1 7.24863 5.43647 1.81216 -8.00073
129 2 7.24863 3.62432 3.62432 -7.01064
130 3 9.06079 5.43647 3.62432 -6.34366
33 2 10.8729 3.62432 0 -7.04142
34 1 12.6851 5.43647 0 -8.14001
35 3 12.6851 3.62432 1.81216 -6.52177
36 2 10.8729 5.43647 1.81216 -7.05993
133 2 10.8729 3.62432 3.62432 -7.01494
134 1 12.6851 5.43647 3.62432 -8.23193
37 2 14.4973 3.62432 0 -7.12564
38 2 16.3094 5.43647 0 -7.11469
39 3 16.3094 3.62432 1.81216 -6.62861
40 2 14.4973 5.43647 1.81216 -7.04761
137 3 14.4973 3.62432 3.62432 -6.56106
138 1 16.3094 5.43647 3.62432 -8.05686
41 2 0 7.24863 0 -7.02581
42 1 1.81216 9.06079 0 -8.29377
43 3 1.81216 7.24863 1.81216 -6.33391
44 3 0 9.06079 1.81216 -6.52769
141 1 0 7.24863 3.62432 -8.17458
142 1 1.81216 9.06079 3.62432 -8.28455
45 1 3.62432 7.24863 0 -8.12686
46 1 5.43647 9.06079 0 -8.11094
47 2 5.43647 7.24863 1.81216 -6.99891
48 3 3.62432 9.06079 1.81216 -6.3152
145 3 3.62432 7.24863 3.62432 -6.33184
146 1 5.43647 9.06079 3.62432 -8.22193
49 1 7.24863 7.24863 0 -8.04912
50 2 9.06079 9.06079 0 -7.10605
51 2 9.06079 7.24863 1.81216 -7.05049
52 2 7.24863 9.06079 1.81216 -7.02897
149 3 7.24863 7.24863 3.62432 -6.34646
150 3 9.06079 9.06079 3.62432 -6.40534
53 1 10.8729 7.24863 0 -7.96528
54 1 12.6851 9.06079 0 -8.11752
55 2 12.6851 7.24863 1.81216 -7.15139
56 2 10.8729 9.06079 1.81216 -7.02624
153 1 10.8729 7.24863 3.62432 -8.11933
154 2 12.6851 9.06079 3.62432 -7.00991
57 1 14.4973 7.24863 0 -8.09516
58 3 16.3094 9.06079 0 -6.50218
59 2 16.3094 7.24863 1.81216 -7.1134
60 1 14.4973 9.06079 1.81216 -8.27021
157 2 14.4973 7.24863 3.62432 -7.05048
158 2 16.3094 9.06079 3.62432 -7.02944
61 3 0 10.8729 0 -6.56614
62 2 1.81216 12.6851 0 -6.99659
63 2 1.81216 10.8729 1.81216 -7.01275
64 1 0 12.6851 1.81216 -8.3094
161 2 0 10.8729 3.62432 -7.09581
162 1 1.81216 12.6851 3.62432 -8.12126
65 1 3.62432 10.8729 0 -8.24725
66 3 5.43647 12.6851 0 -6.31933
67 1 5.43647 10.8729 1.81216 -8.0356
68 2 3.62432 12.6851 1.81216 -6.99627
165 3 3.62432 10.8729 3.62432 -6.30184
166 1 5.43647 12.6851 3.62432 -8.04598
69 2 7.24863 10.8729 0 -7.00025
70 3 9.06079 12.6851 0 -6.39431
71 3 9.06079 10.8729 1.81216 -6.51516
72 1 7.24863 12.6851 1.81216 -8.26115
169 3 7.24863 10.8729 3.62432 -6.30763
170 2 9.06079 12.6851 3.62432 -6.95799
73 3 10.8729 10.8729 0 -6.52389
74 1 12.6851 12.6851 0 -8.09356
75 3 12.6851 10.8729 1.81216 -6.39906
76 1 10.8729 12.6851 1.81216 -8.31698
173 3 10.8729 10.8729 3.62432 -6.46977
174 3 12.6851 12.6851 3.62432 -6.42705
77 3 14.4973 10.8729 0 -6.42077
78 2 16.3094 12.6851 0 -6.9834
79 3 16.3094 10.8729 1.81216 -6.34676
80 1 14.4973 12.6851 1.81216 -8.19643
177 2 14.4973 10.8729 3.62432 -7.01276
178 1 16.3094 12.6851 3.62432 -8.09228
81 2 0 14.4973 0 -6.99369
82 3 1.81216 16.3094 0 -6.4774
83 2 1.81216 14.4973 1.81216 -7.0375
84 1 0 16.3094 1.81216 -8.3067
181 3 0 14.4973 3.62432 -6.44481
182 3 1.81216 16.3094 3.62432 -6.42236
85 1 3.62432 14.4973 0 -8.30564
86 3 5.43647 16.3094 0 -6.39269
87 3 5.43647 14.4973 1.81216 -6.41023
88 2 3.62432 16.3094 1.81216 -7.05492
185 1 3.62432 14.4973 3.62432 -8.16371
186 2 5.43647 16.3094 3.62432 -7.04305
89 1 7.24863 14.4973 0 -8.14326
90 3 9.06079 16.3094 0 -6.38469
91 2 9.06079 14.4973 1.81216 -6.99146
92 2 7.24863 16.3094 1.81216 -7.01889
189 3 7.24863 14.4973 3.62432 -6.45828
190 2 9.06079 16.3094 3.62432 -7.11839
93 1 10.8729 14.4973 0 -8.09958
94 3 12.6851 16.3094 0 -6.26711
95 1 12.6851 14.4973 1.81216 -8.15056
96 1 10.8729 16.3094 1.81216 -8.17193
193 3 10.8729 14.4973 3.62432 -6.51929
194 3 12.6851 16.3094 3.62432 -6.40675
97 3 14.4973 14.4973 0 -6.2447
98 3 16.3094 16.3094 0 -6.28207
99 1 16.3094 14.4973 1.81216 -8.11541
100 2 14.4973 16.3094 1.81216 -6.87275
197 2 14.4973 14.4973 3.62432 -7.01148
198 3 16.3094 16.3094 3.62432 -6.39605
103 2 1.81216 0 5.43647 -7.15346
104 1 0 1.81216 5.43647 -8.32336
201 1 0 0 7.24863 -8.10584
202 2 1.81216 1.81216 7.24863 -7.00629
107 3 5.43647 0 5.43647 -6.37486
108 1 3.62432 1.81216 5.43647 -8.1617
203 1 3.62432 0 7.24863 -8.14315
204 2 5.43647 1.81216 7.24863 -6.98799
111 2 9.06079 0 5.43647 -7.03667
112 1 7.24863 1.81216 5.43647 -8.15988
205 3 7.24863 0 7.24863 -6.29887
206 1 9.06079 1.81216 7.24863 -8.14553
115 2 12.6851 0 5.43647 -6.98248
116 1 10.8729 1.81216 5.43647 -8.29893
207 2 10.8729 0 7.24863 -7.04824
208 3 12.6851 1.81216 7.24863 -6.59549
119 3 16.3094 0 5.43647 -6.51644
120 2 14.4973 1.81216 5.43647 -6.95289
209 3 14.4973 0 7.24863 -6.46986
210 3 16.3094 1.81216 7.24863 -6.4388
123 3 1.81216 3.62432 5.43647 -6.45857
124 1 0 5.43647 5.43647 -8.29398
211 3 0 3.62432 7.24863 -6.60299
212 2 1.81216 5.43647 7.24863 -7.0098
127 2 5.43647 3.62432 5.43647 -7.0363
128 3 3.62432 5.43647 5.43647 -6.51104
213 1 3.62432 3.62432 7.24863 -8.30448
214 2 5.43647 5.43647 7.24863 -6.99558
131 1 9.06079 3.62432 5.43647 -8.13517
132 3 7.24863 5.43647 5.43647 -6.43463
215 2 7.24863 3.62432 7.24863 -7.02846
216 3 9.06079 5.43647 7.24863 -6.40181
135 3 12.6851 3.62432 5.43647 -6.53544
136 1 10.8729 5.43647 5.43647 -8.16449
217 3 10.8729 3.62432 7.24863 -6.42973
218 2 12.6851 5.43647 7.24863 -7.02417
139 1 16.3094 3.62432 5.43647 -8.22323
140 2 14.4973 5.43647 5.43647 -7.0047
219 2 14.4973 3.62432 7.24863 -6.99882
220 3 16.3094 5.43647 7.24863 -6.39933
143 2 1.81216 7.24863 5.43647 -6.94764
144 3 0 9.06079 5.43647 -6.5187
221 3 0 7.24863 7.24863 -6.53614
222 1 1.81216 9.06079 7.24863 -8.23
147 3 5.43647 7.24863 5.43647 -6.36793
148 1 3.62432 9.06079 5.43647 -8.22593
223 3 3.62432 7.24863 7.24863 -6.54832
224 3 5.43647 9.06079 7.24863 -6.42148
151 1 9.06079 7.24863 5.43647 -8.06359
152 1 7.24863 9.06079 5.43647 -8.12013
225 1 7.24863 7.24863 7.24863 -8.15456
226 1 9.06079 9.06079 7.24863 -7.96455
155 3 12.6851 7.24863 5.43647 -6.43815
156 1 10.8729 9.06079 5.43647 -8.22785
227 3 10.8729 7.24863 7.24863 -6.25024
228 3 12.6851 9.06079 7.24863 -6.36512
159 1 16.3094 7.24863 5.43647 -8.00194
160 3 14.4973 9.06079 5.43647 -6.50074
229 1 14.4973 7.24863 7.24863 -8.26931
230 3 16.3094 9.06079 7.24863 -6.35143
163 2 1.81216 10.8729 5.43647 -7.04995
164 2 0 12.6851 5.43647 -7.06179
231 3 0 10.8729 7.24863 -6.67424
232 2 1.81216 12.6851 7.24863 -7.08421
167 3 5.43647 10.8729 5.43647 -6.23007
168 1 3.62432 12.6851 5.43647 -8.13513
233 2 3.62432 10.8729 7.24863 -7.04618
234 3 5.43647 12.6851 7.24863 -6.40071
171 1 9.06079 10.8729 5.43647 -8.05934
172 1 7.24863 12.6851 5.43647 -8.13576
235 1 7.24863 10.8729 7.24863 -8.1276
236 1 9.06079 12.6851 7.24863 -8.12288
175 3 12.6851 10.8729 5.43647 -6.51032
176 2 10.8729 12.6851 5.43647 -6.96464
237 3 10.8729 10.8729 7.24863 -6.36331
238 3 12.6851 12.6851 7.24863 -6.49841
179 1 16.3094 10.8729 5.43647 -8.14782
180 1 14.4973 12.6851 5.43647 -8.27125
239 2 14.4973 10.8729 7.24863 -6.88576
240 3 16.3094 12.6851 7.24863 -6.35709
183 1 1.81216 14.4973 5.43647 -8.04083
184 1 0 16.3094 5.43647 -8.17581
241 3 0 14.4973 7.24863 -6.56748
242 2 1.81216 16.3094 7.24863 -7.0455
187 3 5.43647 14.4973 5.43647 -6.27042
188 3 3.62432 16.3094 5.43647 -6.28775
243 1 3.62432 14.4973 7.24863 -8.31972
244 3 5.43647 16.3094 7.24863 -6.26906
191 2 9.06079 14.4973 5.43647 -7.14591
192 1 7.24863 16.3094 5.43647 -8.06725
245 1 7.24863 14.4973 7.24863 -8.04022
246 1 9.06079 16.3094 7.24863 -7.97393
195 3 12.6851 14.4973 5.43647 -6.51289
196 2 10.8729 16.3094 5.43647 -7.06071
247 2 10.8729 14.4973 7.24863 -7.06189
248 1 12.6851 16.3094 7.24863 -7.91775
199 3 16.3094 14.4973 5.43647 -6.29445
200 2 14.4973 16.3094 5.43647 -7.02493
249 1 14.4973 14.4973 7.24863 -8.04452
250 1 16.3094 16.3094 7.24863 -7.92146
251 3 1.81216 0 9.06079 -6.43784
252 2 0 1.81216 9.06079 -7.00299
301 3 0 0 10.8729 -6.49211
302 2 1.81216 1.81216 10.8729 -7.00626
303 2 1.81216 0 12.6851 -6.93332
304 1 0 1.81216 12.6851 -8.36734
253 2 5.43647 0 9.06079 -6.96352
254 3 3.62432 1.81216 9.06079 -6.45884
305 1 3.62432 0 10.8729 -8.32556
306 3 5.43647 1.81216 10.8729 -6.37185
307 1 5.43647 0 12.6851 -8.33877
308 3 3.62432 1.81216 12.6851 -6.50908
255 3 9.06079 0 9.06079 -6.43148
256 1 7.24863 1.81216 9.06079 -8.28614
309 3 7.24863 0 10.8729 -6.50436
310 2 9.06079 1.81216 10.8729 -7.0349
311 2 9.06079 0 12.6851 -7.07018
312 2 7.24863 1.81216 12.6851 -6.98757
257 1 12.6851 0 9.06079 -8.16626
258 2 10.8729 1.81216 9.06079 -7.01478
313 1 10.8729 0 10.8729 -8.18691
314 2 12.6851 1.81216 10.8729 -7.03629
315 3 12.6851 0 12.6851 -6.33881
316 1 10.8729 1.81216 12.6851 -8.05992
259 1 16.3094 0 9.06079 -8.05177
260 3 14.4973 1.81216 9.06079 -6.46855
317 2 14.4973 0 10.8729 -6.97197
318 1 16.3094 1.81216 10.8729 -8.03582
319 1 16.3094 0 12.6851 -7.97868
320 3 14.4973 1.81216 12.6851 -6.37986
261 2 1.81216 3.62432 9.06079 -7.10627
262 3 0 5.43647 9.06079 -6.65473
321 3 0 3.62432 10.8729 -6.50397
322 2 1.81216 5.43647 10.8729 -7.05875
323 3 1.81216 3.62432 12.6851 -6.49865
324 1 0 5.43647 12.6851 -8.12362
263 3 5.43647 3.62432 9.06079 -6.4726
264 3 3.62432 5.43647 9.06079 -6.59829
325 1 3.62432 3.62432 10.8729 -8.25478
326 2 5.43647 5.43647 10.8729 -7.0596
327 1 5.43647 3.62432 12.6851 -8.03296
328 1 3.62432 5.43647 12.6851 -7.96103
265 3 9.06079 3.62432 9.06079 -6.49197
266 2 7.24863 5.43647 9.06079 -7.00907
329 1 7.24863 3.62432 10.8729 -8.12261
330 3 9.06079 5.43647 10.8729 -6.39229
331 1 9.06079 3.62432 12.6851 -7.90282
332 1 7.24863 5.43647 12.6851 -7.9349
267 2 12.6851 3.62432 9.06079 -7.05658
268 1 10.8729 5.43647 9.06079 -8.40422
333 2 10.8729 3.62432 10.8729 -7.00405
334 3 12.6851 5.43647 10.8729 -6.45091
335 3 12.6851 3.62432 12.6851 -6.49424
336 1 10.8729 5.43647 12.6851 -8.22055
269 3 16.3094 3.62432 9.06079 -6.40004
270 1 14.4973 5.43647 9.06079 -8.24345
337 1 14.4973 3.62432 10.8729 -8.21459
338 2 16.3094 5.43647 10.8729 -7.00768
339 1 16.3094 3.62432 12.6851 -8.06993
340 2 14.4973 5.43647 12.6851 -7.01343
271 2 1.81216 7.24863 9.06079 -7.0761
272 1 0 9.06079 9.06079 -8.11707
341 2 0 7.24863 10.8729 -7.01986
342 1 1.81216 9.06079 10.8729 -8.05269
343 1 1.81216 7.24863 12.6851 -7.97074
344 3 0 9.06079 12.6851 -6.32797
273 1 5.43647 7.24863 9.06079 -8.21557
274 2 3.62432 9.06079 9.06079 -7.03994
345 2 3.62432 7.24863 10.8729 -7.10298
346 1 5.43647 9.06079 10.8729 -8.24324
347 1 5.43647 7.24863 12.6851 -8.02191
348 2 3.62432 9.06079 12.6851 -7.05469
275 2 9.06079 7.24863 9.06079 -6.97999
276 2 7.24863 9.06079 9.06079 -6.95399
349 3 7.24863 7.24863 10.8729 -6.38635
350 1 9.06079 9.06079 10.8729 -8.19082
351 1 9.06079 7.24863 12.6851 -8.07743
352 2 7.24863 9.06079 12.6851 -6.91336
277 1 12.6851 7.24863 9.06079 -8.16939
278 1 10.8729 9.06079 9.06079 -8.14179
353 2 10.8729 7.24863 10.8729 -7.01312
354 3 12.6851 9.06079 10.8729 -6.416
355 2 12.6851 7.24863 12.6851 -6.96179
356 1 10.8729 9.06079 12.6851 -8.26976
279 3 16.3094 7.24863 9.06079 -6.45029
280 3 14.4973 9.06079 9.06079 -6.37886
357 3 14.4973 7.24863 10.8729 -6.53023
358 2 16.3094 9.06079 10.8729 -6.94815
359 3 16.3094 7.24863 12.6851 -6.55652
360 3 14.4973 9.06079 12.6851 -6.48253
281 2 1.81216 10.8729 9.06079 -7.10008
282 2 0 12.6851 9.06079 -7.16497
361 1 0 10.8729 10.8729 -8.03821
362 3 1.81216 12.6851 10.8729 -6.58147
363 1 1.81216 10.8729 12.6851 -8.1747
364 2 0 12.6851 12.6851 -7.02157
283 3 5.43647 10.8729 9.06079 -6.58494
284 3 3.62432 12.6851 9.06079 -6.66524
365 2 3.62432 10.8729 10.8729 -7.06188
366 2 5.43647 12.6851 10.8729 -7.09616
367 3 5.43647 10.8729 12.6851 -6.56693
368 3 3.62432 12.6851 12.6851 -6.48462
285 3 9.06079 10.8729 9.06079 -6.35257
286 2 7.24863 12.6851 9.06079 -7.0428
369 3 7.24863 10.8729 10.8729 -6.48902
370 1 9.06079 12.6851 10.8729 -8.21734
371 3 9.06079 10.8729 12.6851 -6.40211
372 2 7.24863 12.6851 12.6851 -6.9866
287 1 12.6851 10.8729 9.06079 -8.24217
288 2 10.8729 12.6851 9.06079 -7.07471
373 2 10.8729 10.8729 10.8729 -6.9669
374 2 12.6851 12.6851 10.8729 -7.11354
375 3 12.6851 10.8729 12.6851 -6.45008
376 1 10.8729 12.6851 12.6851 -8.08945
289 1 16.3094 10.8729 9.06079 -8.2615
290 2 14.4973 12.6851 9.06079 -7.00475
377 1 14.4973 10.8729 10.8729 -8.30945
378 2 16.3094 12.6851 10.8729 -7.04923
379 3 16.3094 10.8729 12.6851 -6.55477
380 2 14.4973 12.6851 12.6851 -7.02745
291 3 1.81216 14.4973 9.06079 -6.62959
292 1 0 16.3094 9.06079 -8.34124
381 2 0 14.4973 10.8729 -7.00268
382 3 1.81216 16.3094 10.8729 -6.51374
383 1 1.81216 14.4973 12.6851 -8.2873
384 3 0 16.3094 12.6851 -6.53247
293 2 5.43647 14.4973 9.06079 -7.09895
294 2 3.62432 16.3094 9.06079 -6.9677
385 2 3.62432 14.4973 10.8729 -6.98047
386 3 5.43647 16.3094 10.8729 -6.50086
387 3 5.43647 14.4973 12.6851 -6.55509
388 3 3.62432 16.3094 12.6851 -6.56253
295 2 9.06079 14.4973 9.06079 -7.09616
296 1 7.24863 16.3094 9.06079 -8.04793
389 2 7.24863 14.4973 10.8729 -7.01442
390 1 9.06079 16.3094 10.8729 -7.95366
391 1 9.06079 14.4973 12.6851 -7.9788
392 3 7.24863 16.3094 12.6851 -6.38301
297 1 12.6851 14.4973 9.06079 -8.00451
298 2 10.8729 16.3094 9.06079 -7.08086
393 1 10.8729 14.4973 10.8729 -8.03201
394 3 12.6851 16.3094 10.8729 -6.42841
395 2 12.6851 14.4973 12.6851 -6.99469
396 3 10.8729 16.3094 12.6851 -6.31404
299 1 16.3094 14.4973 9.06079 -8.0327
300 1 14.4973 16.3094 9.06079 -7.99132
397 1 14.4973 14.4973 10.8729 -8.13152
398 1 16.3094 16.3094 10.8729 -8.21291
399 3 16.3094 14.4973 12.6851 -6.57169
400 2 14.4973 16.3094 12.6851 -6.97438
401 2 0 0 14.4973 -7.03088
402 2 1.81216 1.81216 14.4973 -7.09145
403 2 1.81216 0 16.3094 -7.04092
404 3 0 1.81216 16.3094 -6.52417
405 3 3.62432 0 14.4973 -6.55019
406 3 5.43647 1.81216 14.4973 -6.46343
407 3 5.43647 0 16.3094 -6.52013
408 2 3.62432 1.81216 16.3094 -7.05274
409 2 7.24863 0 14.4973 -7.00583
410 1 9.06079 1.81216 14.4973 -8.06294
411 3 9.06079 0 16.3094 -6.37207
412 1 7.24863 1.81216 16.3094 -8.10775
413 1 10.8729 0 14.4973 -8.3281
414 2 12.6851 1.81216 14.4973 -7.01445
415 2 12.6851 0 16.3094 -7.04571
416 3 10.8729 1.81216 16.3094 -6.43092
417 1 14.4973 0 14.4973 -8.14927
418 2 16.3094 1.81216 14.4973 -6.99975
419 3 16.3094 0 16.3094 -6.44284
420 1 14.4973 1.81216 16.3094 -8.04275
421 3 0 3.62432 14.4973 -6.44928
422 2 1.81216 5.43647 14.4973 -7.07448
423 3 1.81216 3.62432 16.3094 -6.54914
424 3 0 5.43647 16.3094 -6.35292
425 2 3.62432 3.62432 14.4973 -7.05328
426 1 5.43647 5.43647 14.4973 -7.93822
427 1 5.43647 3.62432 16.3094 -8.02383
428 2 3.62432 5.43647 16.3094 -7.03952
429 2 7.24863 3.62432 14.4973 -7.07996
430 1 9.06079 5.43647 14.4973 -8.06027
431 2 9.06079 3.62432 16.3094 -6.9482
432 3 7.24863 5.43647 16.3094 -6.27177
433 2 10.8729 3.62432 14.4973 -7.08861
434 2 12.6851 5.43647 14.4973 -7.09018
435 1 12.6851 3.62432 16.3094 -8.12918
436 2 10.8729 5.43647 16.3094 -7.02001
437 1 14.4973 3.62432 14.4973 -8.10428
438 2 16.3094 5.43647 14.4973 -6.99279
439 1 16.3094 3.62432 16.3094 -8.0049
440 2 14.4973 5.43647 16.3094 -7.11646
441 1 0 7.24863 14.4973 -8.08281
442 2 1.81216 9.06079 14.4973 -6.93693
443 1 1.81216 7.24863 16.3094 -8.23971
444 3 0 9.06079 16.3094 -6.37917
445 1 3.62432 7.24863 14.4973 -7.99218
446 3 5.43647 9.06079 14.4973 -6.49106
447 1 5.43647 7.24863 16.3094 -8.35353
448 3 3.62432 9.06079 16.3094 -6.33714
449 3 7.24863 7.24863 14.4973 -6.29736
450 3 9.06079 9.06079 14.4973 -6.4374
451 1 9.06079 7.24863 16.3094 -8.33693
452 2 7.24863 9.06079 16.3094 -6.94682
453 3 10.8729 7.24863 14.4973 -6.37703
454 3 12.6851 9.06079 14.4973 -6.39353
455 1 12.6851 7.24863 16.3094 -8.18671
456 2 10.8729 9.06079 16.3094 -6.92758
457 1 14.4973 7.24863 14.4973 -8.22781
458 1 16.3094 9.06079 14.4973 -8.47493
459 3 16.3094 7.24863 16.3094 -6.59389
460 3 14.4973 9.06079 16.3094 -6.45138
461 3 0 10.8729 14.4973 -6.41019
462 1 1.81216 12.6851 14.4973 -8.07116
463 3 1.81216 10.8729 16.3094 -6.28429
464 1 0 12.6851 16.3094 -8.23491
465 3 3.62432 10.8729 14.4973 -6.42339
466 1 5.43647 12.6851 14.4973 -8.26079
467 2 5.43647 10.8729 16.3094 -7.02283
468 1 3.62432 12.6851 16.3094 -8.00736
469 3 7.24863 10.8729 14.4973 -6.53954
470 1 9.06079 12.6851 14.4973 -8.07636
471 3 9.06079 10.8729 16.3094 -6.4368
472 2 7.24863 12.6851 16.3094 -7.0048
473 1 10.8729 10.8729 14.4973 -8.08991
474 2 12.6851 12.6851 14.4973 -7.01997
475 1 12.6851 10.8729 16.3094 -8.26779
476 2 10.8729 12.6851 16.3094 -6.96037
477 3 14.4973 10.8729 14.4973 -6.54917
478 3 16.3094 12.6851 14.4973 -6.57883
479 2 16.3094 10.8729 16.3094 -6.97303
480 3 14.4973 12.6851 16.3094 -6.49042
481 1 0 14.4973 14.4973 -8.11736
482 2 1.81216 16.3094 14.4973 -6.96058
483 1 1.81216 14.4973 16.3094 -8.1494
484 3 0 16.3094 16.3094 -6.41904
485 3 3.62432 14.4973 14.4973 -6.44939
486 3 5.43647 16.3094 14.4973 -6.55415
487 2 5.43647 14.4973 16.3094 -7.09515
488 2 3.62432 16.3094 16.3094 -7.0658
489 1 7.24863 14.4973 14.4973 -8.11173
490 3 9.06079 16.3094 14.4973 -6.3957
491 2 9.06079 14.4973 16.3094 -7.00316
492 1 7.24863 16.3094 16.3094 -8.1309
493 1 10.8729 14.4973 14.4973 -8.26542
494 3 12.6851 16.3094 14.4973 -6.43249
495 3 12.6851 14.4973 16.3094 -6.39198
496 3 10.8729 16.3094 16.3094 -6.41942
497 3 14.4973 14.4973 14.4973 -6.59163
498 2 16.3094 16.3094 14.4973 -6.90753
499 3 16.3094 14.4973 16.3094 -6.44822
500 1 14.4973 16.3094 16.3094 -8.22646
501 3 0 0 18.1216 -6.43332
502 1 1.81216 1.81216 18.1216 -8.32902
503 3 1.81216 0 19.9337 -6.32829
504 3 0 1.81216 19.9337 -6.36645
601 1 0 0 21.7459 -8.15602
602 2 1.81216 1.81216 21.7459 -6.99182
505 1 3.62432 0 18.1216 -8.14683
506 2 5.43647 1.81216 18.1216 -7.03574
507 1 5.43647 0 19.9337 -8.04474
508 2 3.62432 1.81216 19.9337 -7.0422
605 3 3.62432 0 21.7459 -6.38031
606 3 5.43647 1.81216 21.7459 -6.51394
509 2 7.24863 0 18.1216 -6.99904
510 1 9.06079 1.81216 18.1216 -8.17029
511 3 9.06079 0 19.9337 -6.30343
512 2 7.24863 1.81216 19.9337 -6.9733
609 1 7.24863 0 21.7459 -8.26375
610 3 9.06079 1.81216 21.7459 -6.43552
513 3 10.8729 0 18.1216 -6.31185
514 3 12.6851 1.81216 18.1216 -6.37862
515 3 12.6851 0 19.9337 -6.35775
516 1 10.8729 1.81216 19.9337 -8.26607
613 1 10.8729 0 21.7459 -8.24751
614 3 12.6851 1.81216 21.7459 -6.38277
517 2 14.4973 0 18.1216 -6.98077
518 2 16.3094 1.81216 18.1216 -7.06907
519 2 16.3094 0 19.9337 -6.95631
520 1 14.4973 1.81216 19.9337 -8.18834
617 3 14.4973 0 21.7459 -6.4985
618 1 16.3094 1.81216 21.7459 -8.0176
521 3 0 3.62432 18.1216 -6.3921
522 3 1.81216 5.43647 18.1216 -6.44623
523 2 1.81216 3.62432 19.9337 -7.01619
524 1 0 5.43647 19.9337 -8.34404
621 3 0 3.62432 21.7459 -6.42719
622 3 1.81216 5.43647 21.7459 -6.50164
525 1 3.62432 3.62432 18.1216 -8.24987
526 2 5.43647 5.43647 18.1216 -6.90956
527 3 5.43647 3.62432 19.9337 -6.51604
528 3 3.62432 5.43647 19.9337 -6.46452
625 2 3.62432 3.62432 21.7459 -7.04422
626 1 5.43647 5.43647 21.7459 -8.30305
529 1 7.24863 3.62432 18.1216 -8.09426
530 1 9.06079 5.43647 18.1216 -8.23845
531 1 9.06079 3.62432 19.9337 -8.11179
532 3 7.24863 5.43647 19.9337 -6.36491
629 2 7.24863 3.62432 21.7459 -6.95234
630 1 9.06079 5.43647 21.7459 -8.22592
533 3 10.8729 3.62432 18.1216 -6.33925
534 1 12.6851 5.43647 18.1216 -8.21085
535 2 12.6851 3.62432 19.9337 -6.89035
536 3 10.8729 5.43647 19.9337 -6.34906
633 3 10.8729 3.62432 21.7459 -6.37587
634 3 12.6851 5.43647 21.7459 -6.38786
537 1 14.4973 3.62432 18.1216 -7.93571
538 2 16.3094 5.43647 18.1216 -7.06216
539 1 16.3094 3.62432 19.9337 -7.99244
540 3 14.4973 5.43647 19.9337 -6.4998
637 1 14.4973 3.62432 21.7459 -8.19258
638 2 16.3094 5.43647 21.7459 -6.99796
541 3 0 7.24863 18.1216 -6.30514
542 1 1.81216 9.06079 18.1216 -8.14116
543 2 1.81216 7.24863 19.9337 -6.88409
544 1 0 9.06079 19.9337 -8.13858
641 3 0 7.24863 21.7459 -6.35292
642 1 1.81216 9.06079 21.7459 -8.01675
545 3 3.62432 7.24863 18.1216 -6.36458
546 3 5.43647 9.06079 18.1216 -6.42201
547 1 5.43647 7.24863 19.9337 -8.28057
548 1 3.62432 9.06079 19.9337 -7.98757
645 1 3.62432 7.24863 21.7459 -8.09615
646 3 5.43647 9.06079 21.7459 -6.34043
549 3 7.24863 7.24863 18.1216 -6.4297
550 3 9.06079 9.06079 18.1216 -6.49756
551 3 9.06079 7.24863 19.9337 -6.44682
552 2 7.24863 9.06079 19.9337 -6.94061
649 2 7.24863 7.24863 21.7459 -6.91369
650 3 9.06079 9.06079 21.7459 -6.48807
553 3 10.8729 7.24863 18.1216 -6.408
554 1 12.6851 9.06079 18.1216 -8.13169
555 2 12.6851 7.24863 19.9337 -6.90607
556 3 10.8729 9.06079 19.9337 -6.40861
653 1 10.8729 7.24863 21.7459 -8.30352
654 3 12.6851 9.06079 21.7459 -6.45138
557 2 14.4973 7.24863 18.1216 -7.04918
558 2 16.3094 9.06079 18.1216 -6.98331
559 2 16.3094 7.24863 19.9337 -7.06303
560 1 14.4973 9.06079 19.9337 -8.38705
657 3 14.4973 7.24863 21.7459 -6.48436
658 2 16.3094 9.06079 21.7459 -6.91879
561 3 0 10.8729 18.1216 -6.23784
562 1 1.81216 12.6851 18.1216 -7.92936
563 1 1.81216 10.8729 19.9337 -7.89789
564 1 0 12.6851 19.9337 -8.18684
661 3 0 10.8729 21.7459 -6.33729
662 1 1.81216 12.6851 21.7459 -8.04339
565 1 3.62432 10.8729 18.1216 -7.97649
566 1 5.43647 12.6851 18.1216 -8.01266
567 2 5.43647 10.8729 19.9337 -7.01468
568 2 3.62432 12.6851 19.9337 -7.10502
665 1 3.62432 10.8729 21.7459 -8.02366
666 1 5.43647 12.6851 21.7459 -8.22506
569 1 7.24863 10.8729 18.1216 -8.34873
570 3 9.06079 12.6851 18.1216 -6.40708
571 3 9.06079 10.8729 19.9337 -6.44413
572 3 7.24863 12.6851 19.9337 -6.45601
669 1 7.24863 10.8729 21.7459 -8.31442
670 2 9.06079 12.6851 21.7459 -6.95847
573 1 10.8729 10.8729 18.1216 -8.35193
574 3 12.6851 12.6851 18.1216 -6.36619
575 3 12.6851 10.8729 19.9337 -6.45724
576 3 10.8729 12.6851 19.9337 -6.39496
673 3 10.8729 10.8729 21.7459 -6.51808
674 3 12.6851 12.6851 21.7459 -6.47863
577 3 14.4973 10.8729 18.1216 -6.52908
578 3 16.3094 12.6851 18.1216 -6.49843
579 3 16.3094 10.8729 19.9337 -6.56187
580 2 14.4973 12.6851 19.9337 -6.89688
677 3 14.4973 10.8729 21.7459 -6.4857
678 1 16.3094 12.6851 21.7459 -8.42723
581 3 0 14.4973 18.1216 -6.29004
582 3 1.81216 16.3094 18.1216 -6.50661
583 1 1.81216 14.4973 19.9337 -8.18081
584 3 0 16.3094 19.9337 -6.34161
681 3 0 14.4973 21.7459 -6.29068
682 1 1.81216 16.3094 21.7459 -8.21353
585 2 3.62432 14.4973 18.1216 -7.14757
586 2 5.43647 16.3094 18.1216 -7.1069
587 2 5.43647 14.4973 19.9337 -7.13936
588 2 3.62432 16.3094 19.9337 -7.09567
685 3 3.62432 14.4973 21.7459 -6.42473
686 1 5.43647 16.3094 21.7459 -8.31681
589 1 7.24863 14.4973 18.1216 -8.12623
590 1 9.06079 16.3094 18.1216 -8.1019
591 2 9.06079 14.4973 19.9337 -7.00915
592 2 7.24863 16.3094 19.9337 -7.07517
689 2 7.24863 14.4973 21.7459 -6.99619
690 1 9.06079 16.3094 21.7459 -8.1031
593 1 10.8729 14.4973 18.1216 -8.31979
594 3 12.6851 16.3094 18.1216 -6.34874
595 1 12.6851 14.4973 19.9337 -8.25355
596 3 10.8729 16.3094 19.9337 -6.36287
693 1 10.8729 14.4973 21.7459 -8.12076
694 2 12.6851 16.3094 21.7459 -7.02349
597 1 14.4973 14.4973 18.1216 -8.1631
598 1 16.3094 16.3094 18.1216 -8.04033
599 1 16.3094 14.4973 19.9337 -8.16588
600 2 14.4973 16.3094 19.9337 -6.99198
697 3 14.4973 14.4973 21.7459 -6.49739
698 3 16.3094 16.3094 21.7459 -6.53038
603 3 1.81216 0 23.5581 -6.39663
604 1 0 1.81216 23.5581 -8.10421
701 1 0 0 25.3702 -8.21755
702 2 1.81216 1.81216 25.3702 -7.05057
607 1 5.43647 0 23.5581 -8.07788
608 1 3.62432 1.81216 23.5581 -8.30933
703 2 3.62432 0 25.3702 -7.02627
704 2 5.43647 1.81216 25.3702 -6.99853
611 2 9.06079 0 23.5581 -6.86763
612 3 7.24863 1.81216 23.5581 -6.51912
705 1 7.24863 0 25.3702 -8.16851
706 3 9.06079 1.81216 25.3702 -6.46272
615 1 12.6851 0 23.5581 -8.34979
616 3 10.8729 1.81216 23.5581 -6.48795
707 2 10.8729 0 25.3702 -6.9548
708 3 12.6851 1.81216 25.3702 -6.50272
619 2 16.3094 0 23.5581 -6.96107
620 2 14.4973 1.81216 23.5581 -6.99374
709 2 14.4973 0 25.3702 -7.09736
710 1 16.3094 1.81216 25.3702 -8.0606
623 2 1.81216 3.62432 23.5581 -7.05331
624 3 0 5.43647 23.5581 -6.47896
711 1 0 3.62432 25.3702 -8.18858
712 2 1.81216 5.43647 25.3702 -7.02995
627 2 5.43647 3.62432 23.5581 -7.00498
628 3 3.62432 5.43647 23.5581 -6.5931
713 3 3.62432 3.62432 25.3702 -6.66344
714 2 5.43647 5.43647 25.3702 -6.98527
631 3 9.06079 3.62432 23.5581 -6.4595
632 3 7.24863 5.43647 23.5581 -6.51981
715 3 7.24863 3.62432 25.3702 -6.53117
716 1 9.06079 5.43647 25.3702 -8.22102
635 3 12.6851 3.62432 23.5581 -6.39455
636 1 10.8729 5.43647 23.5581 -8.22492
717 3 10.8729 3.62432 25.3702 -6.40872
718 3 12.6851 5.43647 25.3702 -6.34638
639 1 16.3094 3.62432 23.5581 -8.03826
640 3 14.4973 5.43647 23.5581 -6.37283
719 1 14.4973 3.62432 25.3702 -8.32145
720 2 16.3094 5.43647 25.3702 -6.94241
643 1 1.81216 7.24863 23.5581 -8.32018
644 2 0 9.06079 23.5581 -7.01615
721 2 0 7.24863 25.3702 -7.04936
722 2 1.81216 9.06079 25.3702 -7.06537
647 3 5.43647 7.24863 23.5581 -6.44632
648 3 3.62432 9.06079 23.5581 -6.41356
723 3 3.62432 7.24863 25.3702 -6.62832
724 1 5.43647 9.06079 25.3702 -8.3087
651 2 9.06079 7.24863 23.5581 -6.985
652 1 7.24863 9.06079 23.5581 -8.24175
725 2 7.24863 7.24863 25.3702 -7.01104
726 3 9.06079 9.06079 25.3702 -6.49686
655 1 12.6851 7.24863 23.5581 -8.33457
656 2 10.8729 9.06079 23.5581 -6.83236
727 3 10.8729 7.24863 25.3702 -6.38602
728 3 12.6851 9.06079 25.3702 -6.34766
659 1 16.3094 7.24863 23.5581 -8.35462
660 1 14.4973 9.06079 23.5581 -8.34009
729 3 14.4973 7.24863 25.3702 -6.34747
730 1 16.3094 9.06079 25.3702 -8.17107
663 2 1.81216 10.8729 23.5581 -7.07005
664 2 0 12.6851 23.5581 -7.00826
731 1 0 10.8729 25.3702 -8.36989
732 2 1.81216 12.6851 25.3702 -7.09356
667 3 5.43647 10.8729 23.5581 -6.38868
668 2 3.62432 12.6851 23.5581 -7.12334
733 2 3.62432 10.8729 25.3702 -7.04211
734 2 5.43647 12.6851 25.3702 -6.98722
671 3 9.06079 10.8729 23.5581 -6.4016
672 3 7.24863 12.6851 23.5581 -6.436
735 1 7.24863 10.8729 25.3702 -8.21013
736 2 9.06079 12.6851 25.3702 -7.06687
675 3 12.6851 10.8729 23.5581 -6.42717
676 1 10.8729 12.6851 23.5581 -8.13626
737 1 10.8729 10.8729 25.3702 -8.27617
738 1 12.6851 12.6851 25.3702 -8.13843
679 3 16.3094 10.8729 23.5581 -6.4234
680 2 14.4973 12.6851 23.5581 -6.84291
739 3 14.4973 10.8729 25.3702 -6.3095
740 3 16.3094 12.6851 25.3702 -6.39847
683 1 1.81216 14.4973 23.5581 -8.17987
684 3 0 16.3094 23.5581 -6.37721
741 1 0 14.4973 25.3702 -8.20067
742 2 1.81216 16.3094 25.3702 -6.92647
687 2 5.43647 14.4973 23.5581 -7.02271
688 3 3.62432 16.3094 23.5581 -6.41551
743 3 3.62432 14.4973 25.3702 -6.58113
744 1 5.43647 16.3094 25.3702 -8.4073
691 1 9.06079 14.4973 23.5581 -8.07306
692 2 7.24863 16.3094 23.5581 -7.02999
745 1 7.24863 14.4973 25.3702 -8.1318
746 2 9.06079 16.3094 25.3702 -7.02101
695 2 12.6851 14.4973 23.5581 -6.9983
696 3 10.8729 16.3094 23.5581 -6.54383
747 2 10.8729 14.4973 25.3702 -7.03958
748 2 12.6851 16.3094 25.3702 -7.00293
699 3 16.3094 14.4973 23.5581 -6.42281
700 1 14.4973 16.3094 23.5581 -8.37114
749 3 14.4973 14.4973 25.3702 -6.36696
750 1 16.3094 16.3094 25.3702 -8.10561
751 3 1.81216 0 27.1824 -6.5915
752 2 0 1.81216 27.1824 -6.9274
801 1 0 0 28.9945 -8.35991
802 2 1.81216 1.81216 28.9945 -7.12096
803 2 1.81216 0 30.8067 -7.07134
804 3 0 1.81216 30.8067 -6.39303
753 1 5.43647 0 27.1824 -8.08293
754 2 3.62432 1.81216 27.1824 -7.13746
805 2 3.62432 0 28.9945 -6.97862
806 1 5.43647 1.81216 28.9945 -8.11679
807 3 5.43647 0 30.8067 -6.40312
808 3 3.62432 1.81216 30.8067 -6.52303
755 3 9.06079 0 27.1824 -6.40136
756 3 7.24863 1.81216 27.1824 -6.43247
809 1 7.24863 0 28.9945 -8.19908
810 2 9.06079 1.81216 28.9945 -7.03828
811 2 9.06079 0 30.8067 -7.01869
812 2 7.24863 1.81216 30.8067 -7.03312
757 1 12.6851 0 27.1824 -8.16062
758 1 10.8729 1.81216 27.1824 -8.3289
813 3 10.8729 0 28.9945 -6.41373
814 2 12.6851 1.81216 28.9945 -7.07645
815 1 12.6851 0 30.8067 -8.05479
816 1 10.8729 1.81216 30.8067 -8.09678
759 1 16.3094 0 27.1824 -8.26274
760 2 14.4973 1.81216 27.1824 -7.07861
817 2 14.4973 0 28.9945 -7.09685
818 2 16.3094 1.81216 28.9945 -7.11386
819 3 16.3094 0 30.8067 -6.65852
820 3 14.4973 1.81216 30.8067 -6.58082
761 3 1.81216 3.62432 27.1824 -6.68472
762 2 0 5.43647 27.1824 -7.07202
821 1 0 3.62432 28.9945 -8.30849
822 2 1.81216 5.43647 28.9945 -7.16375
823 2 1.81216 3.62432 30.8067 -7.05392
824 3 0 5.43647 30.8067 -6.60404
763 1 5.43647 3.62432 27.1824 -8.22258
764 3 3.62432 5.43647 27.1824 -6.72153
825 2 3.62432 3.62432 28.9945 -7.05824
826 3 5.43647 5.43647 28.9945 -6.70807
827 2 5.43647 3.62432 30.8067 -7.02167
828 2 3.62432 5.43647 30.8067 -7.17342
765 3 9.06079 3.62432 27.1824 -6.49364
766 2 7.24863 5.43647 27.1824 -7.01092
829 1 7.24863 3.62432 28.9945 -8.23819
830 2 9.06079 5.43647 28.9945 -7.10219
831 2 9.06079 3.62432 30.8067 -7.14779
832 2 7.24863 5.43647 30.8067 -7.11668
767 2 12.6851 3.62432 27.1824 -7.00666
768 1 10.8729 5.43647 27.1824 -8.22715
833 2 10.8729 3.62432 28.9945 -7.05889