ITEM: TIMESTEP
0
ITEM: NUMBER OF ATOMS
4000
ITEM: BOX BOUNDS pp pp pp
0.0000000000000000e+00 3.5680830000000000e+01
0.0000000000000000e+00 3.5680830000000000e+01
0.0000000000000000e+00 3.5680830000000000e+01
ITEM: ATOMS id type x y z c_peratom
1 1 0 0 0 -8.45066
2 3 1.78404 1.78404 0 -6.37785
3 3 1.78404 0 1.78404 -6.55578
4 3 0 1.78404 1.78404 -6.4397
101 2 0 0 3.56808 -6.9995
102 2 1.78404 1.78404 3.56808 -6.98131
5 1 3.56808 0 0 -8.44605
6 1 5.35212 1.78404 0 -8.49814
7 3 5.35212 0 1.78404 -6.41015
8 2 3.56808 1.78404 1.78404 -6.93415
105 2 3.56808 0 3.56808 -6.92705
106 3 5.35212 1.78404 3.56808 -6.48551
9 3 7.13617 0 0 -6.39497
10 2 8.92021 1.78404 0 -6.96327
11 3 8.92021 0 1.78404 -6.36725
12 3 7.13617 1.78404 1.78404 -6.39142
109 1 7.13617 0 3.56808 -8.84145
110 2 8.92021 1.78404 3.56808 -7.01358
13 1 10.7042 0 0 -8.00575
14 1 12.4883 1.78404 0 -8.12144
15 1 12.4883 0 1.78404 -8.13002
16 1 10.7042 1.78404 1.78404 -8.27972
113 3 10.7042 0 3.56808 -6.46421
114 2 12.4883 1.78404 3.56808 -6.99207
17 2 14.2723 0 0 -7.07022
18 1 16.0564 1.78404 0 -8.4266
19 1 16.0564 0 1.78404 -8.24909
20 1 14.2723 1.78404 1.78404 -8.16366
117 2 14.2723 0 3.56808 -7.03676
118 1 16.0564 1.78404 3.56808 -8.28404
21 2 0 3.56808 0 -6.94128
22 3 1.78404 5.35212 0 -6.37842
23 1 1.78404 3.56808 1.78404 -8.59436
24 2 0 5.35212 1.78404 -6.9921
121 2 0 3.56808 3.56808 -6.98411
122 3 1.78404 5.35212 3.56808 -6.48791
25 2 3.56808 3.56808 0 -6.89716
26 3 5.35212 5.35212 0 -6.34076
27 3 5.35212 3.56808 1.78404 -6.44203
28 1 3.56808 5.35212 1.78404 -8.71554
125 3 3.56808 3.56808 3.56808 -6.43099
126 3 5.35212 5.35212 3.56808 -6.53847
29 1 7.13617 3.56808 0 -8.41809
30 2 8.92021 5.35212 0 -6.9775
31 2 8.92021 3.56808 1.78404 -7.03276
32 2 7.13617 5.35212 1.78404 -7.00484
129 1 7.13617 3.56808 3.56808 -8.77033
130 2 8.92021 5.35212 3.56808 -7.09376
33 1 10.7042 3.56808 0 -8.29884
34 2 12.4883 5.35212 0 -6.92059
35 3 12.4883 3.56808 1.78404 -6.30642
36 3 10.7042 5.35212 1.78404 -6.52464
133 2 10.7042 3.56808 3.56808 -7.05068
134 1 12.4883 5.35212 3.56808 -8.68586
37 3 14.2723 3.56808 0 -6.24268
38 1 16.0564 5.35212 0 -8.44735
39 2 16.0564 3.56808 1.78404 -6.90673
40 1 14.2723 5.35212 1.78404 -8.33768
137 2 14.2723 3.56808 3.56808 -6.99894
138 2 16.0564 5.35212 3.56808 -6.89533
41 1 0 7.13617 0 -8.25851
42 2 1.78404 8.92021 0 -7.02736
43 2 1.78404 7.13617 1.78404 -7.00683
44 2 0 8.92021 1.78404 -7.00025
141 2 0 7.13617 3.56808 -7.00957
142 2 1.78404 8.92021 3.56808 -7.08097
45 3 3.56808 7.13617 0 -6.36381
46 1 5.35212 8.92021 0 -8.39066
47 2 5.35212 7.13617 1.78404 -6.98516
48 3 3.56808 8.92021 1.78404 -6.6245
145 2 3.56808 7.13617 3.56808 -7.07254
146 2 5.35212 8.92021 3.56808 -7.05618
49 3 7.13617 7.13617 0 -6.35232
50 1 8.92021 8.92021 0 -8.35156
51 3 8.92021 7.13617 1.78404 -6.43419
52 1 7.13617 8.92021 1.78404 -8.32442
149 2 7.13617 7.13617 3.56808 -7.07372
150 3 8.92021 8.92021 3.56808 -6.53253
53 1 10.7042 7.13617 0 -8.33865
54 1 12.4883 8.92021 0 -8.20725
55 2 12.4883 7.13617 1.78404 -6.94601
56 1 10.7042 8.92021 1.78404 -8.34546
153 3 10.7042 7.13617 3.56808 -6.49906
154 1 12.4883 8.92021 3.56808 -8.53127
57 2 14.2723 7.13617 0 -6.97641
58 2 16.0564 8.92021 0 -6.93546
59 1 16.0564 7.13617 1.78404 -8.32758
60 1 14.2723 8.92021 1.78404 -8.38016
157 3 14.2723 7.13617 3.56808 -6.33966
158 2 16.0564 8.92021 3.56808 -6.95529
61 2 0 10.7042 0 -6.92267
62 3 1.78404 12.4883 0 -6.4765
63 1 1.78404 10.7042 1.78404 -8.76747
64 3 0 12.4883 1.78404 -6.33964
161 3 0 10.7042 3.56808 -6.38322
162 3 1.78404 12.4883 3.56808 -6.57512
65 2 3.56808 10.7042 0 -6.94007
66 1 5.35212 12.4883 0 -8.3847
67 3 5.35212 10.7042 1.78404 -6.43444
68 3 3.56808 12.4883 1.78404 -6.53693
165 2 3.56808 10.7042 3.56808 -7.0298
166 3 5.35212 12.4883 3.56808 -6.54434
69 1 7.13617 10.7042 0 -8.35937
70 3 8.92021 12.4883 0 -6.29798
71 2 8.92021 10.7042 1.78404 -6.95771
72 2 7.13617 12.4883 1.78404 -6.9193
169 1 7.13617 10.7042 3.56808 -8.65843
170 2 8.92021 12.4883 3.56808 -6.93518
73 2 10.7042 10.7042 0 -6.92647
74 1 12.4883 12.4883 0 -8.19216
75 3 12.4883 10.7042 1.78404 -6.12569
76 1 10.7042 12.4883 1.78404 -8.44915
173 3 10.7042 10.7042 3.56808 -6.33678
174 1 12.4883 12.4883 3.56808 -8.44625
77 3 14.2723 10.7042 0 -6.28969
78 3 16.0564 12.4883 0 -6.41589
79 3 16.0564 10.7042 1.78404 -6.52793
80 1 14.2723 12.4883 1.78404 -8.51952
177 2 14.2723 10.7042 3.56808 -7.02562
178 2 16.0564 12.4883 3.56808 -7.01944
81 1 0 14.2723 0 -8.78864
82 3 1.78404 16.0564 0 -6.49217
83 3 1.78404 14.2723 1.78404 -6.52039
84 3 0 16.0564 1.78404 -6.38647
181 1 0 14.2723 3.56808 -8.63541
182 2 1.78404 16.0564 3.56808 -6.92326
85 3 3.56808 14.2723 0 -6.50548
86 3 5.35212 16.0564 0 -6.41404
87 2 5.35212 14.2723 1.78404 -6.89134
88 2 3.56808 16.0564 1.78404 -6.94183
185 3 3.56808 14.2723 3.56808 -6.64748
186 3 5.35212 16.0564 3.56808 -6.3796
89 3 7.13617 14.2723 0 -6.29869
90 2 8.92021 16.0564 0 -6.96377
91 1 8.92021 14.2723 1.78404 -8.46647
92 1 7.13617 16.0564 1.78404 -8.44927
189 3 7.13617 14.2723 3.56808 -6.36355
190 2 8.92021 16.0564 3.56808 -6.93508
93 3 10.7042 14.2723 0 -6.13123
94 2 12.4883 16.0564 0 -7.01621
95 3 12.4883 14.2723 1.78404 -6.26318
96 1 10.7042 16.0564 1.78404 -8.32488
193 3 10.7042 14.2723 3.56808 -6.24694
194 1 12.4883 16.0564 3.56808 -8.50585
97 2 14.2723 14.2723 0 -6.98359
98 3 16.0564 16.0564 0 -6.46461
99 2 16.0564 14.2723 1.78404 -6.99545
100 2 14.2723 16.0564 1.78404 -6.97711
197 2 14.2723 14.2723 3.56808 -6.98324
198 1 16.0564 16.0564 3.56808 -8.49569
103 1 1.78404 0 5.35212 -8.41975
104 2 0 1.78404 5.35212 -7.05003
201 2 0 0 7.13617 -6.93952
202 3 1.78404 1.78404 7.13617 -6.37622
107 3 5.35212 0 5.35212 -6.33191
108 3 3.56808 1.78404 5.35212 -6.38355
203 1 3.56808 0 7.13617 -8.38079
204 1 5.35212 1.78404 7.13617 -8.51307
111 2 8.92021 0 5.35212 -6.99199
112 3 7.13617 1.78404 5.35212 -6.42841
205 1 7.13617 0 7.13617 -8.51197
206 2 8.92021 1.78404 7.13617 -7.00522
115 2 12.4883 0 5.35212 -6.93992
116 1 10.7042 1.78404 5.35212 -8.56733
207 3 10.7042 0 7.13617 -6.53892
208 3 12.4883 1.78404 7.13617 -6.46567
119 1 16.0564 0 5.35212 -8.3787
120 3 14.2723 1.78404 5.35212 -6.39085
209 1 14.2723 0 7.13617 -8.34056
210 3 16.0564 1.78404 7.13617 -6.21307
123 1 1.78404 3.56808 5.35212 -8.57768
124 3 0 5.35212 5.35212 -6.43176
211 1 0 3.56808 7.13617 -8.53877
212 3 1.78404 5.35212 7.13617 -6.53732
127 3 5.35212 3.56808 5.35212 -6.42914
128 1 3.56808 5.35212 5.35212 -8.58582
213 3 3.56808 3.56808 7.13617 -6.37015
214 1 5.35212 5.35212 7.13617 -8.55541
131 2 8.92021 3.56808 5.35212 -7.08339
132 2 7.13617 5.35212 5.35212 -7.06242
215 2 7.13617 3.56808 7.13617 -7.00158
216 1 8.92021 5.35212 7.13617 -8.56589
135 2 12.4883 3.56808 5.35212 -7.01032
136 3 10.7042 5.35212 5.35212 -6.56072
217 2 10.7042 3.56808 7.13617 -7.03801
218 1 12.4883 5.35212 7.13617 -8.4983
139 1 16.0564 3.56808 5.35212 -8.50784
140 3 14.2723 5.35212 5.35212 -6.38968
219 1 14.2723 3.56808 7.13617 -8.36362
220 3 16.0564 5.35212 7.13617 -6.2538
143 3 1.78404 7.13617 5.35212 -6.58371
144 3 0 8.92021 5.35212 -6.41653
221 3 0 7.13617 7.13617 -6.53859
222 1 1.78404 8.92021 7.13617 -8.79279
147 2 5.35212 7.13617 5.35212 -7.11344
148 3 3.56808 8.92021 5.35212 -6.73668
223 3 3.56808 7.13617 7.13617 -6.59359
224 2 5.35212 8.92021 7.13617 -7.09158
151 3 8.92021 7.13617 5.35212 -6.67597
152 3 7.13617 8.92021 5.35212 -6.66421
225 2 7.13617 7.13617 7.13617 -7.12103
226 2 8.92021 8.92021 7.13617 -7.04499
155 2 12.4883 7.13617 5.35212 -6.91357
156 3 10.7042 8.92021 5.35212 -6.59805
227 2 10.7042 7.13617 7.13617 -6.995
228 1 12.4883 8.92021 7.13617 -8.71099
159 1 16.0564 7.13617 5.35212 -8.506
160 2 14.2723 8.92021 5.35212 -7.02346
229 2 14.2723 7.13617 7.13617 -6.90819
230 1 16.0564 8.92021 7.13617 -8.17531
163 2 1.78404 10.7042 5.35212 -7.04939
164 2 0 12.4883 5.35212 -7.01862
231 3 0 10.7042 7.13617 -6.51521
232 2 1.78404 12.4883 7.13617 -7.04622
167 3 5.35212 10.7042 5.35212 -6.60794
168 3 3.56808 12.4883 5.35212 -6.67801
233 2 3.56808 10.7042 7.13617 -7.0517
234 2 5.35212 12.4883 7.13617 -6.95427
171 2 8.92021 10.7042 5.35212 -6.9307
172 3 7.13617 12.4883 5.35212 -6.45871
235 1 7.13617 10.7042 7.13617 -8.68021
236 3 8.92021 12.4883 7.13617 -6.4208
175 2 12.4883 10.7042 5.35212 -6.94881
176 1 10.7042 12.4883 5.35212 -8.45568
237 3 10.7042 10.7042 7.13617 -6.58802
238 3 12.4883 12.4883 7.13617 -6.51791
179 1 16.0564 10.7042 5.35212 -8.49069
180 3 14.2723 12.4883 5.35212 -6.45788
239 2 14.2723 10.7042 7.13617 -6.99516
240 2 16.0564 12.4883 7.13617 -6.99942
183 3 1.78404 14.2723 5.35212 -6.61302
184 2 0 16.0564 5.35212 -6.92774
241 1 0 14.2723 7.13617 -8.57749
242 3 1.78404 16.0564 7.13617 -6.47806
187 1 5.35212 14.2723 5.35212 -8.67037
188 2 3.56808 16.0564 5.35212 -6.98607
243 2 3.56808 14.2723 7.13617 -7.01739
244 2 5.35212 16.0564 7.13617 -6.96166
191 1 8.92021 14.2723 5.35212 -8.64443
192 1 7.13617 16.0564 5.35212 -8.42519
245 3 7.13617 14.2723 7.13617 -6.34285
246 3 8.92021 16.0564 7.13617 -6.32243
195 2 12.4883 14.2723 5.35212 -6.91234
196 3 10.7042 16.0564 5.35212 -6.32078
247 2 10.7042 14.2723 7.13617 -6.91969
248 1 12.4883 16.0564 7.13617 -8.2719
199 1 16.0564 14.2723 5.35212 -8.33365
200 3 14.2723 16.0564 5.35212 -6.19361
249 1 14.2723 14.2723 7.13617 -8.29153
250 1 16.0564 16.0564 7.13617 -8.11847
251 3 1.78404 0 8.92021 -6.31661
252 3 0 1.78404 8.92021 -6.50766
301 2 0 0 10.7042 -6.95298
302 1 1.78404 1.78404 10.7042 -8.37205
303 3 1.78404 0 12.4883 -6.29162
304 1 0 1.78404 12.4883 -8.35804
253 3 5.35212 0 8.92021 -6.357
254 1 3.56808 1.78404 8.92021 -8.41898
305 2 3.56808 0 10.7042 -6.88962
306 2 5.35212 1.78404 10.7042 -6.97644
307 3 5.35212 0 12.4883 -6.47999
308 1 3.56808 1.78404 12.4883 -8.53691
255 3 8.92021 0 8.92021 -6.49579
256 2 7.13617 1.78404 8.92021 -6.9941
309 1 7.13617 0 10.7042 -8.72142
310 3 8.92021 1.78404 10.7042 -6.48137
311 3 8.92021 0 12.4883 -6.55705
312 3 7.13617 1.78404 12.4883 -6.54134
257 1 12.4883 0 8.92021 -8.57167
258 2 10.7042 1.78404 8.92021 -7.00651
313 3 10.7042 0 10.7042 -6.56645
314 2 12.4883 1.78404 10.7042 -7.05657
315 2 12.4883 0 12.4883 -6.95899
316 2 10.7042 1.78404 12.4883 -7.04978
259 2 16.0564 0 8.92021 -6.8983
260 2 14.2723 1.78404 8.92021 -6.95474
317 2 14.2723 0 10.7042 -7.01478
318 2 16.0564 1.78404 10.7042 -6.96409
319 1 16.0564 0 12.4883 -8.49876
320 1 14.2723 1.78404 12.4883 -8.4204
261 2 1.78404 3.56808 8.92021 -7.02261
262 3 0 5.35212 8.92021 -6.60669
321 2 0 3.56808 10.7042 -7.06856
322 2 1.78404 5.35212 10.7042 -7.15796
323 2 1.78404 3.56808 12.4883 -7.12505
324 3 0 5.35212 12.4883 -6.61499
263 3 5.35212 3.56808 8.92021 -6.58221
264 2 3.56808 5.35212 8.92021 -7.13423
325 2 3.56808 3.56808 10.7042 -7.14011
326 2 5.35212 5.35212 10.7042 -7.28178
327 3 5.35212 3.56808 12.4883 -6.7486
328 2 3.56808 5.35212 12.4883 -7.18094
265 1 8.92021 3.56808 8.92021 -8.38506
266 2 7.13617 5.35212 8.92021 -7.17127
329 2 7.13617 3.56808 10.7042 -7.09038
330 2 8.92021 5.35212 10.7042 -7.10257
331 1 8.92021 3.56808 12.4883 -8.58639
332 2 7.13617 5.35212 12.4883 -7.14632
267 2 12.4883 3.56808 8.92021 -6.96696
268 3 10.7042 5.35212 8.92021 -6.53604
333 1 10.7042 3.56808 10.7042 -8.34051
334 2 12.4883 5.35212 10.7042 -6.95669
335 1 12.4883 3.56808 12.4883 -8.33992
336 3 10.7042 5.35212 12.4883 -6.43693
269 1 16.0564 3.56808 8.92021 -8.42135
270 1 14.2723 5.35212 8.92021 -8.44587
337 3 14.2723 3.56808 10.7042 -6.36034
338 3 16.0564 5.35212 10.7042 -6.26998
339 1 16.0564 3.56808 12.4883 -8.50487
340 2 14.2723 5.35212 12.4883 -6.94514
271 2 1.78404 7.13617 8.92021 -7.06739
272 3 0 8.92021 8.92021 -6.57733
341 1 0 7.13617 10.7042 -8.81776
342 2 1.78404 8.92021 10.7042 -6.99128
343 3 1.78404 7.13617 12.4883 -6.61513
344 3 0 8.92021 12.4883 -6.39406
273 2 5.35212 7.13617 8.92021 -7.22978
274 2 3.56808 8.92021 8.92021 -7.11528
345 2 3.56808 7.13617 10.7042 -7.22344
346 3 5.35212 8.92021 10.7042 -6.69263
347 2 5.35212 7.13617 12.4883 -7.19589
348 2 3.56808 8.92021 12.4883 -7.01925
275 2 8.92021 7.13617 8.92021 -7.16603
276 3 7.13617 8.92021 8.92021 -6.74052
349 2 7.13617 7.13617 10.7042 -7.29377
350 2 8.92021 8.92021 10.7042 -7.20154
351 2 8.92021 7.13617 12.4883 -7.19064
352 2 7.13617 8.92021 12.4883 -7.17051
277 3 12.4883 7.13617 8.92021 -6.56711
278 2 10.7042 8.92021 8.92021 -7.08961
353 3 10.7042 7.13617 10.7042 -6.68276
354 3 12.4883 8.92021 10.7042 -6.61721
355 1 12.4883 7.13617 12.4883 -8.51337
356 2 10.7042 8.92021 12.4883 -7.0609
279 3 16.0564 7.13617 8.92021 -6.32535
280 3 14.2723 8.92021 8.92021 -6.49025
357 2 14.2723 7.13617 10.7042 -6.93924
358 3 16.0564 8.92021 10.7042 -6.28917
359 1 16.0564 7.13617 12.4883 -8.47662
360 3 14.2723 8.92021 12.4883 -6.35738
281 2 1.78404 10.7042 8.92021 -7.05495
282 1 0 12.4883 8.92021 -8.46928
361 2 0 10.7042 10.7042 -6.93131
362 1 1.78404 12.4883 10.7042 -8.38015
363 3 1.78404 10.7042 12.4883 -6.33935
364 2 0 12.4883 12.4883 -6.96607
283 3 5.35212 10.7042 8.92021 -6.46843
284 1 3.56808 12.4883 8.92021 -8.44944
365 1 3.56808 10.7042 10.7042 -8.45623
366 3 5.35212 12.4883 10.7042 -6.42148
367 1 5.35212 10.7042 12.4883 -8.59382
368 3 3.56808 12.4883 12.4883 -6.39599
285 3 8.92021 10.7042 8.92021 -6.56209
286 1 7.13617 12.4883 8.92021 -8.5392
369 3 7.13617 10.7042 10.7042 -6.56217
370 1 8.92021 12.4883 10.7042 -8.62986
371 2 8.92021 10.7042 12.4883 -7.03019
372 3 7.13617 12.4883 12.4883 -6.4384
287 3 12.4883 10.7042 8.92021 -6.58777
288 3 10.7042 12.4883 8.92021 -6.63659
373 2 10.7042 10.7042 10.7042 -7.02061
374 3 12.4883 12.4883 10.7042 -6.51022
375 1 12.4883 10.7042 12.4883 -8.49192
376 3 10.7042 12.4883 12.4883 -6.37222
289 1 16.0564 10.7042 8.92021 -8.35793
290 1 14.2723 12.4883 8.92021 -8.35985
377 2 14.2723 10.7042 10.7042 -6.89573
378 3 16.0564 12.4883 10.7042 -6.38132
379 1 16.0564 10.7042 12.4883 -8.51585
380 2 14.2723 12.4883 12.4883 -6.94503
291 2 1.78404 14.2723 8.92021 -7.03373
292 3 0 16.0564 8.92021 -6.40642
381 3 0 14.2723 10.7042 -6.4491
382 1 1.78404 16.0564 10.7042 -8.46284
383 2 1.78404 14.2723 12.4883 -6.9747
384 2 0 16.0564 12.4883 -7.02643
293 3 5.35212 14.2723 8.92021 -6.41959
294 3 3.56808 16.0564 8.92021 -6.54201
385 2 3.56808 14.2723 10.7042 -6.91618
386 1 5.35212 16.0564 10.7042 -8.46955
387 3 5.35212 14.2723 12.4883 -6.3822
388 1 3.56808 16.0564 12.4883 -8.23964
295 2 8.92021 14.2723 8.92021 -6.90585
296 1 7.13617 16.0564 8.92021 -8.47083
389 2 7.13617 14.2723 10.7042 -6.90958
390 3 8.92021 16.0564 10.7042 -6.47417
391 2 8.92021 14.2723 12.4883 -6.95409
392 3 7.13617 16.0564 12.4883 -6.44112
297 2 12.4883 14.2723 8.92021 -6.94886
298 3 10.7042 16.0564 8.92021 -6.43034
393 3 10.7042 14.2723 10.7042 -6.5063
394 3 12.4883 16.0564 10.7042 -6.44531
395 3 12.4883 14.2723 12.4883 -6.32395
396 1 10.7042 16.0564 12.4883 -8.44657
299 2 16.0564 14.2723 8.92021 -7.01445
300 2 14.2723 16.0564 8.92021 -6.97373
397 1 14.2723 14.2723 10.7042 -8.47196
398 1 16.0564 16.0564 10.7042 -8.32271
399 1 16.0564 14.2723 12.4883 -8.45525
400 3 14.2723 16.0564 12.4883 -6.2744
401 1 0 0 14.2723 -8.26155
402 2 1.78404 1.78404 14.2723 -7.0208
403 1 1.78404 0 16.0564 -8.39066
404 1 0 1.78404 16.0564 -8.07338
405 2 3.56808 0 14.2723 -6.94401
406 2 5.35212 1.78404 14.2723 -6.98011
407 3 5.35212 0 16.0564 -6.43721
408 3 3.56808 1.78404 16.0564 -6.4371
409 1 7.13617 0 14.2723 -8.78206
410 2 8.92021 1.78404 14.2723 -7.03005
411 2 8.92021 0 16.0564 -7.01975
412 2 7.13617 1.78404 16.0564 -6.96208
413 3 10.7042 0 14.2723 -6.5661
414 2 12.4883 1.78404 14.2723 -6.98825
415 3 12.4883 0 16.0564 -6.42289
416 2 10.7042 1.78404 16.0564 -7.14779
417 3 14.2723 0 14.2723 -6.28795
418 3 16.0564 1.78404 14.2723 -6.29328
419 3 16.0564 0 16.0564 -6.3886
420 1 14.2723 1.78404 16.0564 -8.79209
421 2 0 3.56808 14.2723 -7.02511
422 3 1.78404 5.35212 14.2723 -6.53942
423 1 1.78404 3.56808 16.0564 -8.45588
424 3 0 5.35212 16.0564 -6.42674
425 2 3.56808 3.56808 14.2723 -6.99935
426 3 5.35212 5.35212 14.2723 -6.53971
427 3 5.35212 3.56808 16.0564 -6.43201
428 1 3.56808 5.35212 16.0564 -8.52246
429 3 7.13617 3.56808 14.2723 -6.55884
430 3 8.92021 5.35212 14.2723 -6.53627
431 1 8.92021 3.56808 16.0564 -8.58104
432 1 7.13617 5.35212 16.0564 -8.55718
433 2 10.7042 3.56808 14.2723 -6.97024
434 1 12.4883 5.35212 14.2723 -8.57316
435 3 12.4883 3.56808 16.0564 -6.59821
436 3 10.7042 5.35212 16.0564 -6.51236
437 3 14.2723 3.56808 14.2723 -6.42315
438 2 16.0564 5.35212 14.2723 -6.98733
439 2 16.0564 3.56808 16.0564 -6.95583
440 2 14.2723 5.35212 16.0564 -6.98579
441 3 0 7.13617 14.2723 -6.45294
442 1 1.78404 8.92021 14.2723 -8.44549
443 1 1.78404 7.13617 16.0564 -8.47793
444 2 0 8.92021 16.0564 -6.96823
445 3 3.56808 7.13617 14.2723 -6.45782
446 3 5.35212 8.92021 14.2723 -6.50486
447 1 5.35212 7.13617 16.0564 -8.54139
448 3 3.56808 8.92021 16.0564 -6.33295
449 2 7.13617 7.13617 14.2723 -7.05206
450 2 8.92021 8.92021 14.2723 -7.1431
451 3 8.92021 7.13617 16.0564 -6.57769
452 3 7.13617 8.92021 16.0564 -6.5685
453 3 10.7042 7.13617 14.2723 -6.54351
454 1 12.4883 8.92021 14.2723 -8.5551
455 3 12.4883 7.13617 16.0564 -6.52296
456 2 10.7042 8.92021 16.0564 -6.99517
457 2 14.2723 7.13617 14.2723 -7.02178
458 2 16.0564 8.92021 14.2723 -6.98439
459 1 16.0564 7.13617 16.0564 -8.47439
460 2 14.2723 8.92021 16.0564 -7.00736
461 1 0 10.7042 14.2723 -8.5356
462 3 1.78404 12.4883 14.2723 -6.41419
463 3 1.78404 10.7042 16.0564 -6.29305
464 2 0 12.4883 16.0564 -6.97683
465 1 3.56808 10.7042 14.2723 -8.46082
466 3 5.35212 12.4883 14.2723 -6.37642
467 2 5.35212 10.7042 16.0564 -6.89299
468 1 3.56808 12.4883 16.0564 -8.50466
469 2 7.13617 10.7042 14.2723 -6.98587
470 1 8.92021 12.4883 14.2723 -8.54212
471 3 8.92021 10.7042 16.0564 -6.54592
472 3 7.13617 12.4883 16.0564 -6.37908
473 3 10.7042 10.7042 14.2723 -6.48432
474 1 12.4883 12.4883 14.2723 -8.32876
475 3 12.4883 10.7042 16.0564 -6.42883
476 2 10.7042 12.4883 16.0564 -6.9672
477 2 14.2723 10.7042 14.2723 -7.00664
478 2 16.0564 12.4883 14.2723 -6.94809
479 3 16.0564 10.7042 16.0564 -6.45695
480 1 14.2723 12.4883 16.0564 -8.37206
481 3 0 14.2723 14.2723 -6.55667
482 2 1.78404 16.0564 14.2723 -6.99803
483 1 1.78404 14.2723 16.0564 -8.39013
484 3 0 16.0564 16.0564 -6.33945
485 3 3.56808 14.2723 14.2723 -6.40365
486 1 5.35212 16.0564 14.2723 -8.51467
487 3 5.35212 14.2723 16.0564 -6.30745
488 2 3.56808 16.0564 16.0564 -6.96393
489 1 7.13617 14.2723 14.2723 -8.49967
490 1 8.92021 16.0564 14.2723 -8.36608
491 2 8.92021 14.2723 16.0564 -6.98155
492 2 7.13617 16.0564 16.0564 -6.89021
493 1 10.7042 14.2723 14.2723 -8.20299
494 1 12.4883 16.0564 14.2723 -8.26025
495 2 12.4883 14.2723 16.0564 -7.02552
496 2 10.7042 16.0564 16.0564 -6.97119
497 2 14.2723 14.2723 14.2723 -6.95834
498 1 16.0564 16.0564 14.2723 -8.11435
499 2 16.0564 14.2723 16.0564 -6.94904
500 1 14.2723 16.0564 16.0564 -8.29824
501 2 0 0 17.8404 -7.03515
502 1 1.78404 1.78404 17.8404 -8.31528
503 3 1.78404 0 19.6245 -6.48108
504 2 0 1.78404 19.6245 -7.00641
601 2 0 0 21.4085 -7.0767
602 2 1.78404 1.78404 21.4085 -7.00501
505 3 3.56808 0 17.8404 -6.29769
506 1 5.35212 1.78404 17.8404 -8.54594
507 3 5.35212 0 19.6245 -6.18223
508 1 3.56808 1.78404 19.6245 -8.43926
605 2 3.56808 0 21.4085 -7.00822
606 1 5.35212 1.78404 21.4085 -8.28563
509 1 7.13617 0 17.8404 -8.26452
510 2 8.92021 1.78404 17.8404 -7.08724
511 2 8.92021 0 19.6245 -7.02071
512 1 7.13617 1.78404 19.6245 -8.33849
609 3 7.13617 0 21.4085 -6.41051
610 3 8.92021 1.78404 21.4085 -6.41312
513 2 10.7042 0 17.8404 -7.07023
514 2 12.4883 1.78404 17.8404 -7.06353
515 3 12.4883 0 19.6245 -6.46528
516 2 10.7042 1.78404 19.6245 -7.09659
613 1 10.7042 0 21.4085 -8.54255
614 3 12.4883 1.78404 21.4085 -6.40735
517 3 14.2723 0 17.8404 -6.34721
518 2 16.0564 1.78404 17.8404 -6.95692
519 1 16.0564 0 19.6245 -8.20979
520 1 14.2723 1.78404 19.6245 -8.4685
617 2 14.2723 0 21.4085 -7.04928
618 1 16.0564 1.78404 21.4085 -8.27667
521 2 0 3.56808 17.8404 -7.02428
522 3 1.78404 5.35212 17.8404 -6.3323
523 2 1.78404 3.56808 19.6245 -6.93928
524 2 0 5.35212 19.6245 -6.97357
621 1 0 3.56808 21.4085 -8.69996
622 3 1.78404 5.35212 21.4085 -6.32304
525 3 3.56808 3.56808 17.8404 -6.23245
526 3 5.35212 5.35212 17.8404 -6.20661
527 2 5.35212 3.56808 19.6245 -6.94164
528 1 3.56808 5.35212 19.6245 -8.60471
625 3 3.56808 3.56808 21.4085 -6.24293
626 1 5.35212 5.35212 21.4085 -8.27111
529 3 7.13617 3.56808 17.8404 -6.3398
530 3 8.92021 5.35212 17.8404 -6.47498
531 2 8.92021 3.56808 19.6245 -7.0561
532 1 7.13617 5.35212 19.6245 -8.45182
629 1 7.13617 3.56808 21.4085 -8.11547
630 2 8.92021 5.35212 21.4085 -7.08422
533 2 10.7042 3.56808 17.8404 -7.09823
534 1 12.4883 5.35212 17.8404 -8.76596
535 2 12.4883 3.56808 19.6245 -7.03059
536 2 10.7042 5.35212 19.6245 -7.04555
633 1 10.7042 3.56808 21.4085 -8.50229
634 1 12.4883 5.35212 21.4085 -8.42786
537 2 14.2723 3.56808 17.8404 -7.02917
538 3 16.0564 5.35212 17.8404 -6.38032
539 1 16.0564 3.56808 19.6245 -8.47604
540 3 14.2723 5.35212 19.6245 -6.34676
637 3 14.2723 3.56808 21.4085 -6.3132
638 1 16.0564 5.35212 21.4085 -8.27632
541 2 0 7.13617 17.8404 -6.98835
542 1 1.78404 8.92021 17.8404 -8.29728
543 1 1.78404 7.13617 19.6245 -8.44831
544 2 0 8.92021 19.6245 -7.0672
641 2 0 7.13617 21.4085 -6.91242
642 2 1.78404 8.92021 21.4085 -6.9866
545 3 3.56808 7.13617 17.8404 -6.20094
546 2 5.35212 8.92021 17.8404 -6.96974
547 2 5.35212 7.13617 19.6245 -6.95542
548 1 3.56808 8.92021 19.6245 -8.4231
645 3 3.56808 7.13617 21.4085 -6.21782
646 1 5.35212 8.92021 21.4085 -8.3665
549 1 7.13617 7.13617 17.8404 -8.41807
550 2 8.92021 8.92021 17.8404 -6.95916
551 3 8.92021 7.13617 19.6245 -6.51445
552 2 7.13617 8.92021 19.6245 -7.00562
649 2 7.13617 7.13617 21.4085 -7.0159
650 1 8.92021 8.92021 21.4085 -8.5301
553 3 10.7042 7.13617 17.8404 -6.61105
554 2 12.4883 8.92021 17.8404 -6.95975
555 3 12.4883 7.13617 19.6245 -6.47165
556 3 10.7042 8.92021 19.6245 -6.4026
653 2 10.7042 7.13617 21.4085 -6.98395
654 1 12.4883 8.92021 21.4085 -8.3581
557 3 14.2723 7.13617 17.8404 -6.49887
558 2 16.0564 8.92021 17.8404 -6.89894
559 1 16.0564 7.13617 19.6245 -8.33754
560 2 14.2723 8.92021 19.6245 -6.99459
657 2 14.2723 7.13617 21.4085 -6.97348
658 1 16.0564 8.92021 21.4085 -8.42286
561 1 0 10.7042 17.8404 -8.27132
562 2 1.78404 12.4883 17.8404 -7.00259
563 2 1.78404 10.7042 19.6245 -7.00873
564 2 0 12.4883 19.6245 -7.03692
661 1 0 10.7042 21.4085 -8.03146
662 1 1.78404 12.4883 21.4085 -8.27901
565 3 3.56808 10.7042 17.8404 -6.47436
566 3 5.35212 12.4883 17.8404 -6.35931
567 2 5.35212 10.7042 19.6245 -7.04572
568 2 3.56808 12.4883 19.6245 -7.05866
665 3 3.56808 10.7042 21.4085 -6.34375
666 1 5.35212 12.4883 21.4085 -8.28725
569 1 7.13617 10.7042 17.8404 -8.66811
570 2 8.92021 12.4883 17.8404 -6.96981
571 2 8.92021 10.7042 19.6245 -6.96379
572 2 7.13617 12.4883 19.6245 -7.03459
669 1 7.13617 10.7042 21.4085 -8.34842
670 2 8.92021 12.4883 21.4085 -6.98238
573 1 10.7042 10.7042 17.8404 -8.59343
574 3 12.4883 12.4883 17.8404 -6.27814
575 1 12.4883 10.7042 19.6245 -8.2458
576 3 10.7042 12.4883 19.6245 -6.15473
673 1 10.7042 10.7042 21.4085 -8.38134
674 3 12.4883 12.4883 21.4085 -6.14311
577 1 14.2723 10.7042 17.8404 -8.4285
578 1 16.0564 12.4883 17.8404 -8.63373
579 3 16.0564 10.7042 19.6245 -6.41239
580 3 14.2723 12.4883 19.6245 -6.26268
677 1 14.2723 10.7042 21.4085 -8.52857
678 2 16.0564 12.4883 21.4085 -6.96779
581 1 0 14.2723 17.8404 -8.06407
582 2 1.78404 16.0564 17.8404 -7.05116
583 1 1.78404 14.2723 19.6245 -8.12243
584 1 0 16.0564 19.6245 -8.14831
681 3 0 14.2723 21.4085 -6.278
682 3 1.78404 16.0564 21.4085 -6.28221
585 1 3.56808 14.2723 17.8404 -8.25243
586 3 5.35212 16.0564 17.8404 -6.24149
587 1 5.35212 14.2723 19.6245 -8.25233
588 2 3.56808 16.0564 19.6245 -6.96813
685 1 3.56808 14.2723 21.4085 -8.12699
686 2 5.35212 16.0564 21.4085 -7.02892
589 1 7.13617 14.2723 17.8404 -8.51661
590 3 8.92021 16.0564 17.8404 -6.36557
591 1 8.92021 14.2723 19.6245 -8.39057
592 2 7.13617 16.0564 19.6245 -6.99509
689 3 7.13617 14.2723 21.4085 -6.38497
690 2 8.92021 16.0564 21.4085 -7.01002
593 1 10.7042 14.2723 17.8404 -8.49791
594 3 12.4883 16.0564 17.8404 -6.40745
595 1 12.4883 14.2723 19.6245 -8.56611
596 2 10.7042 16.0564 19.6245 -6.92078
693 1 10.7042 14.2723 21.4085 -8.33605
694 3 12.4883 16.0564 21.4085 -6.28941
597 2 14.2723 14.2723 17.8404 -6.93869
598 1 16.0564 16.0564 17.8404 -8.48541
599 2 16.0564 14.2723 19.6245 -6.93095
600 3 14.2723 16.0564 19.6245 -6.37822
697 1 14.2723 14.2723 21.4085 -8.75334
698 3 16.0564 16.0564 21.4085 -6.49922
603 2 1.78404 0 23.1925 -7.12034
604 3 0 1.78404 23.1925 -6.47148
701 2 0 0 24.9766 -7.03969
702 2 1.78404 1.78404 24.9766 -7.00237
607 2 5.35212 0 23.1925 -6.96343
608 1 3.56808 1.78404 23.1925 -8.56104
703 2 3.56808 0 24.9766 -7.06279
704 2 5.35212 1.78404 24.9766 -6.9239
611 3 8.92021 0 23.1925 -6.44787
612 1 7.13617 1.78404 23.1925 -8.4263
705 2 7.13617 0 24.9766 -6.935
706 1 8.92021 1.78404 24.9766 -8.4342
615 1 12.4883 0 23.1925 -8.34687
616 2 10.7042 1.78404 23.1925 -6.87958
707 3 10.7042 0 24.9766 -6.3522
708 3 12.4883 1.78404 24.9766 -6.32355
619 1 16.0564 0 23.1925 -8.32668
620 1 14.2723 1.78404 23.1925 -8.26034
709 2 14.2723 0 24.9766 -7.02149
710 2 16.0564 1.78404 24.9766 -7.0124
623 3 1.78404 3.56808 23.1925 -6.37729
624 3 0 5.35212 23.1925 -6.26087
711 1 0 3.56808 24.9766 -8.48226
712 3 1.78404 5.35212 24.9766 -6.14909
627 3 5.35212 3.56808 23.1925 -6.29814
628 1 3.56808 5.35212 23.1925 -8.56166
713 3 3.56808 3.56808 24.9766 -6.2469
714 2 5.35212 5.35212 24.9766 -7.00419
631 2 8.92021 3.56808 23.1925 -7.05982
632 2 7.13617 5.35212 23.1925 -7.08152
715 3 7.13617 3.56808 24.9766 -6.41932
716 2 8.92021 5.35212 24.9766 -7.07621
635 2 12.4883 3.56808 23.1925 -6.94305
636 2 10.7042 5.35212 23.1925 -7.07716
717 1 10.7042 3.56808 24.9766 -8.33861
718 3 12.4883 5.35212 24.9766 -6.39632
639 2 16.0564 3.56808 23.1925 -6.92805
640 2 14.2723 5.35212 23.1925 -6.94603
719 1 14.2723 3.56808 24.9766 -8.65647
720 3 16.0564 5.35212 24.9766 -6.34997
643 1 1.78404 7.13617 23.1925 -8.33474
644 1 0 8.92021 23.1925 -8.20782
721 1 0 7.13617 24.9766 -8.2478
722 2 1.78404 8.92021 24.9766 -7.05401
647 2 5.35212 7.13617 23.1925 -7.00954
648 1 3.56808 8.92021 23.1925 -8.31238
723 2 3.56808 7.13617 24.9766 -7.03699
724 1 5.35212 8.92021 24.9766 -8.17576
651 2 8.92021 7.13617 23.1925 -7.10693
652 3 7.13617 8.92021 23.1925 -6.38191
725 2 7.13617 7.13617 24.9766 -7.08893
726 3 8.92021 8.92021 24.9766 -6.44573
655 1 12.4883 7.13617 23.1925 -8.47708
656 3 10.7042 8.92021 23.1925 -6.44601
727 3 10.7042 7.13617 24.9766 -6.43533
728 2 12.4883 8.92021 24.9766 -6.9009
659 1 16.0564 7.13617 23.1925 -8.32359
660 2 14.2723 8.92021 23.1925 -6.99128
729 3 14.2723 7.13617 24.9766 -6.37952
730 1 16.0564 8.92021 24.9766 -8.23551
663 2 1.78404 10.7042 23.1925 -7.00543
664 1 0 12.4883 23.1925 -8.2285
731 3 0 10.7042 24.9766 -6.466
732 1 1.78404 12.4883 24.9766 -8.51929
667 3 5.35212 10.7042 23.1925 -6.21516
668 2 3.56808 12.4883 23.1925 -6.91021
733 2 3.56808 10.7042 24.9766 -7.0269
734 1 5.35212 12.4883 24.9766 -8.236
671 3 8.92021 10.7042 23.1925 -6.31712
672 2 7.13617 12.4883 23.1925 -6.9866
735 1 7.13617 10.7042 24.9766 -8.52342
736 3 8.92021 12.4883 24.9766 -6.39393
675 3 12.4883 10.7042 23.1925 -6.21705
676 1 10.7042 12.4883 23.1925 -8.2693
737 2 10.7042 10.7042 24.9766 -6.83884
738 1 12.4883 12.4883 24.9766 -8.39434
679 3 16.0564 10.7042 23.1925 -6.25924
680 3 14.2723 12.4883 23.1925 -6.18813
739 1 14.2723 10.7042 24.9766 -8.32244
740 1 16.0564 12.4883 24.9766 -8.1982
683 3 1.78404 14.2723 23.1925 -6.42796
684 3 0 16.0564 23.1925 -6.44565
741 3 0 14.2723 24.9766 -6.48791
742 2 1.78404 16.0564 24.9766 -7.08019
687 1 5.35212 14.2723 23.1925 -8.1746
688 2 3.56808 16.0564 23.1925 -7.02268
743 3 3.56808 14.2723 24.9766 -6.40637
744 1 5.35212 16.0564 24.9766 -8.2389
691 1 8.92021 14.2723 23.1925 -8.55289
692 2 7.13617 16.0564 23.1925 -6.9947
745 2 7.13617 14.2723 24.9766 -6.95509
746 3 8.92021 16.0564 24.9766 -6.22392
695 2 12.4883 14.2723 23.1925 -6.84396
696 3 10.7042 16.0564 23.1925 -6.36017
747 3 10.7042 14.2723 24.9766 -6.23742
748 1 12.4883 16.0564 24.9766 -8.53331
699 2 16.0564 14.2723 23.1925 -7.0096
700 3 14.2723 16.0564 23.1925 -6.227
749 1 14.2723 14.2723 24.9766 -8.26823
750 1 16.0564 16.0564 24.9766 -8.37496
751 1 1.78404 0 26.7606 -8.34761
752 3 0 1.78404 26.7606 -6.23744
801 1 0 0 28.5447 -8.45868
802 3 1.78404 1.78404 28.5447 -6.18848
803 1 1.78404 0 30.3287 -8.32289
804 3 0 1.78404 30.3287 -6.4338
753 1 5.35212 0 26.7606 -8.45443
754 1 3.56808 1.78404 26.7606 -8.24721
805 2 3.56808 0 28.5447 -6.93606
806 3 5.35212 1.78404 28.5447 -6.24621
807 3 5.35212 0 30.3287 -6.32874
808 1 3.56808 1.78404 30.3287 -8.41162
755 3 8.92021 0 26.7606 -6.37518
756 3 7.13617 1.78404 26.7606 -6.42982
809 3 7.13617 0 28.5447 -6.4426
810 1 8.92021 1.78404 28.5447 -8.31094
811 2 8.92021 0 30.3287 -6.92377
812 1 7.13617 1.78404 30.3287 -8.41725
757 3 12.4883 0 26.7606 -6.42567
758 1 10.7042 1.78404 26.7606 -8.32271
813 1 10.7042 0 28.5447 -8.25618
814 2 12.4883 1.78404 28.5447 -6.94237
815 1 12.4883 0 30.3287 -8.3449
816 2 10.7042 1.78404 30.3287 -6.94287
759 2 16.0564 0 26.7606 -7.07697
760 3 14.2723 1.78404 26.7606 -6.54572
817 3 14.2723 0 28.5447 -6.48173
818 2 16.0564 1.78404 28.5447 -6.97045
819 2 16.0564 0 30.3287 -6.92976
820 1 14.2723 1.78404 30.3287 -8.13193
761 1 1.78404 3.56808 26.7606 -8.20017
762 1 0 5.35212 26.7606 -8.0455
821 1 0 3.56808 28.5447 -8.53318
822 2 1.78404 5.35212 28.5447 -7.05213
823 3 1.78404 3.56808 30.3287 -6.42402
824 3 0 5.35212 30.3287 -6.53749
763 1 5.35212 3.56808 26.7606 -8.393
764 1 3.56808 5.35212 26.7606 -8.32364
825 2 3.56808 3.56808 28.5447 -6.95853
826 2 5.35212 5.35212 28.5447 -7.01288
827 1 5.35212 3.56808 30.3287 -8.03845
828 1 3.56808 5.35212 30.3287 -8.23553
765 2 8.92021 3.56808 26.7606 -7.02137
766 1 7.13617 5.35212 26.7606 -8.31858
829 2 7.13617 3.56808 28.5447 -6.9596
830 2 8.92021 5.35212 28.5447 -7.00186
831 3 8.92021 3.56808 30.3287 -6.23283
832 1 7.13617 5.35212 30.3287 -8.26258
767 3 12.4883 3.56808 26.7606 -6.19274
768 1 10.7042 5.35212 26.7606 -8.26443
833 1 10.7042 3.56808 28.5447 -8.19334
834 1 12.4883 5.35212 28.5447 -8.34612