ITEM: TIMESTEP
0
ITEM: NUMBER OF ATOMS
4000
ITEM: BOX BOUNDS pp pp pp
0.0000000000000000e+00 3.5430900000000001e+01
0.0000000000000000e+00 3.5430900000000001e+01
0.0000000000000000e+00 3.5430900000000001e+01
ITEM: ATOMS id type x y z c_peratom
1 2 0 0 0 -6.96323
2 2 1.77154 1.77154 0 -6.96612
3 3 1.77154 0 1.77154 -6.35325
4 1 0 1.77154 1.77154 -8.63975
101 2 0 0 3.54309 -6.92614
102 3 1.77154 1.77154 3.54309 -6.12389
5 3 3.54309 0 0 -6.40313
6 2 5.31463 1.77154 0 -6.92649
7 2 5.31463 0 1.77154 -6.92937
8 1 3.54309 1.77154 1.77154 -8.67192
105 2 3.54309 0 3.54309 -6.97248
106 2 5.31463 1.77154 3.54309 -6.93091
9 1 7.08618 0 0 -8.5282
10 3 8.85773 1.77154 0 -6.28275
11 3 8.85773 0 1.77154 -6.22118
12 3 7.08618 1.77154 1.77154 -6.30821
109 3 7.08618 0 3.54309 -6.29746
110 1 8.85773 1.77154 3.54309 -8.99169
13 1 10.6293 0 0 -8.5636
14 1 12.4008 1.77154 0 -8.64041
15 3 12.4008 0 1.77154 -6.16899
16 3 10.6293 1.77154 1.77154 -6.2401
113 3 10.6293 0 3.54309 -6.1876
114 1 12.4008 1.77154 3.54309 -8.94663
17 3 14.1724 0 0 -6.31979
18 3 15.9439 1.77154 0 -6.34739
19 1 15.9439 0 1.77154 -8.82152
20 3 14.1724 1.77154 1.77154 -6.26603
117 3 14.1724 0 3.54309 -6.20569
118 3 15.9439 1.77154 3.54309 -6.25094
21 3 0 3.54309 0 -6.34612
22 2 1.77154 5.31463 0 -6.93736
23 1 1.77154 3.54309 1.77154 -8.65041
24 3 0 5.31463 1.77154 -6.32535
121 3 0 3.54309 3.54309 -6.17147
122 3 1.77154 5.31463 3.54309 -6.20536
25 2 3.54309 3.54309 0 -7.00602
26 1 5.31463 5.31463 0 -8.76228
27 3 5.31463 3.54309 1.77154 -6.33205
28 3 3.54309 5.31463 1.77154 -6.34361
125 2 3.54309 3.54309 3.54309 -6.88273
126 1 5.31463 5.31463 3.54309 -8.56456
29 1 7.08618 3.54309 0 -8.96658
30 3 8.85773 5.31463 0 -6.3329
31 3 8.85773 3.54309 1.77154 -6.27497
32 3 7.08618 5.31463 1.77154 -6.32578
129 1 7.08618 3.54309 3.54309 -8.65341
130 3 8.85773 5.31463 3.54309 -6.36616
33 3 10.6293 3.54309 0 -6.26466
34 3 12.4008 5.31463 0 -6.33421
35 3 12.4008 3.54309 1.77154 -6.25661
36 1 10.6293 5.31463 1.77154 -8.76578
133 3 10.6293 3.54309 3.54309 -6.36883
134 3 12.4008 5.31463 3.54309 -6.38808
37 1 14.1724 3.54309 0 -8.66534
38 1 15.9439 5.31463 0 -8.57919
39 2 15.9439 3.54309 1.77154 -6.89559
40 2 14.1724 5.31463 1.77154 -6.96035
137 1 14.1724 3.54309 3.54309 -8.71779
138 1 15.9439 5.31463 3.54309 -8.48082
41 1 0 7.08618 0 -8.49685
42 2 1.77154 8.85773 0 -6.99829
43 1 1.77154 7.08618 1.77154 -8.67603
44 3 0 8.85773 1.77154 -6.3075
141 3 0 7.08618 3.54309 -6.26439
142 3 1.77154 8.85773 3.54309 -6.36154
45 2 3.54309 7.08618 0 -7.04713
46 2 5.31463 8.85773 0 -6.9998
47 2 5.31463 7.08618 1.77154 -7.00119
48 2 3.54309 8.85773 1.77154 -7.01264
145 1 3.54309 7.08618 3.54309 -8.72467
146 2 5.31463 8.85773 3.54309 -7.02342
49 2 7.08618 7.08618 0 -6.93641
50 3 8.85773 8.85773 0 -6.2696
51 1 8.85773 7.08618 1.77154 -8.59106
52 1 7.08618 8.85773 1.77154 -8.44433
149 2 7.08618 7.08618 3.54309 -6.98205
150 2 8.85773 8.85773 3.54309 -7.01356
53 2 10.6293 7.08618 0 -6.89899
54 2 12.4008 8.85773 0 -6.98069
55 1 12.4008 7.08618 1.77154 -8.48967
56 2 10.6293 8.85773 1.77154 -6.95912
153 2 10.6293 7.08618 3.54309 -6.94288
154 1 12.4008 8.85773 3.54309 -8.35824
57 2 14.1724 7.08618 0 -6.91919
58 1 15.9439 8.85773 0 -8.53036
59 2 15.9439 7.08618 1.77154 -7.01605
60 2 14.1724 8.85773 1.77154 -6.98096
157 2 14.1724 7.08618 3.54309 -6.93576
158 1 15.9439 8.85773 3.54309 -8.44594
61 1 0 10.6293 0 -8.41012
62 1 1.77154 12.4008 0 -8.45804
63 1 1.77154 10.6293 1.77154 -8.57912
64 1 0 12.4008 1.77154 -8.41509
161 2 0 10.6293 3.54309 -6.91592
162 2 1.77154 12.4008 3.54309 -6.9831
65 3 3.54309 10.6293 0 -6.43032
66 1 5.31463 12.4008 0 -8.64074
67 2 5.31463 10.6293 1.77154 -7.03195
68 2 3.54309 12.4008 1.77154 -6.97111
165 3 3.54309 10.6293 3.54309 -6.64035
166 3 5.31463 12.4008 3.54309 -6.53874
69 1 7.08618 10.6293 0 -8.52125
70 3 8.85773 12.4008 0 -6.32181
71 2 8.85773 10.6293 1.77154 -6.91153
72 3 7.08618 12.4008 1.77154 -6.41701
169 2 7.08618 10.6293 3.54309 -7.00327
170 3 8.85773 12.4008 3.54309 -6.37374
73 1 10.6293 10.6293 0 -8.55525
74 2 12.4008 12.4008 0 -6.97
75 3 12.4008 10.6293 1.77154 -6.30511
76 1 10.6293 12.4008 1.77154 -8.73255
173 3 10.6293 10.6293 3.54309 -6.38778
174 3 12.4008 12.4008 3.54309 -6.23521
77 1 14.1724 10.6293 0 -8.63658
78 2 15.9439 12.4008 0 -6.96238
79 3 15.9439 10.6293 1.77154 -6.28639
80 3 14.1724 12.4008 1.77154 -6.29283
177 1 14.1724 10.6293 3.54309 -8.68227
178 3 15.9439 12.4008 3.54309 -6.4093
81 2 0 14.1724 0 -6.95861
82 1 1.77154 15.9439 0 -8.58511
83 2 1.77154 14.1724 1.77154 -7.00447
84 2 0 15.9439 1.77154 -7.05599
181 2 0 14.1724 3.54309 -6.99892
182 1 1.77154 15.9439 3.54309 -8.39051
85 1 3.54309 14.1724 0 -8.47781
86 3 5.31463 15.9439 0 -6.28499
87 3 5.31463 14.1724 1.77154 -6.23042
88 3 3.54309 15.9439 1.77154 -6.21557
185 1 3.54309 14.1724 3.54309 -8.80491
186 3 5.31463 15.9439 3.54309 -6.21187
89 3 7.08618 14.1724 0 -6.33955
90 3 8.85773 15.9439 0 -6.14751
91 3 8.85773 14.1724 1.77154 -6.22825
92 1 7.08618 15.9439 1.77154 -8.81472
189 1 7.08618 14.1724 3.54309 -8.93759
190 3 8.85773 15.9439 3.54309 -6.25154
93 3 10.6293 14.1724 0 -6.29646
94 2 12.4008 15.9439 0 -6.97707
95 2 12.4008 14.1724 1.77154 -6.88162
96 1 10.6293 15.9439 1.77154 -8.88022
193 1 10.6293 14.1724 3.54309 -8.70563
194 3 12.4008 15.9439 3.54309 -6.3237
97 1 14.1724 14.1724 0 -8.53172
98 2 15.9439 15.9439 0 -7.00405
99 2 15.9439 14.1724 1.77154 -7.03336
100 3 14.1724 15.9439 1.77154 -6.38798
197 1 14.1724 14.1724 3.54309 -8.84001
198 2 15.9439 15.9439 3.54309 -7.02423
103 1 1.77154 0 5.31463 -8.24976
104 1 0 1.77154 5.31463 -8.3319
201 2 0 0 7.08618 -7.05464
202 2 1.77154 1.77154 7.08618 -6.99889
107 1 5.31463 0 5.31463 -8.46607
108 1 3.54309 1.77154 5.31463 -8.29893
203 2 3.54309 0 7.08618 -7.00402
204 3 5.31463 1.77154 7.08618 -6.12013
111 3 8.85773 0 5.31463 -6.22063
112 3 7.08618 1.77154 5.31463 -6.36892
205 2 7.08618 0 7.08618 -6.90548
206 3 8.85773 1.77154 7.08618 -6.41252
115 2 12.4008 0 5.31463 -6.86846
116 3 10.6293 1.77154 5.31463 -6.31557
207 1 10.6293 0 7.08618 -8.65779
208 3 12.4008 1.77154 7.08618 -6.33689
119 1 15.9439 0 5.31463 -8.90928
120 3 14.1724 1.77154 5.31463 -6.3231
209 3 14.1724 0 7.08618 -6.25193
210 3 15.9439 1.77154 7.08618 -6.18103
123 1 1.77154 3.54309 5.31463 -8.54819
124 1 0 5.31463 5.31463 -8.58375
211 2 0 3.54309 7.08618 -6.98519
212 3 1.77154 5.31463 7.08618 -6.35116
127 1 5.31463 3.54309 5.31463 -8.47054
128 3 3.54309 5.31463 5.31463 -6.31016
213 2 3.54309 3.54309 7.08618 -6.93359
214 2 5.31463 5.31463 7.08618 -6.97717
131 3 8.85773 3.54309 5.31463 -6.39894
132 2 7.08618 5.31463 5.31463 -6.9218
215 3 7.08618 3.54309 7.08618 -6.41874
216 2 8.85773 5.31463 7.08618 -6.99805
135 3 12.4008 3.54309 5.31463 -6.292
136 3 10.6293 5.31463 5.31463 -6.4336
217 1 10.6293 3.54309 7.08618 -8.92523
218 3 12.4008 5.31463 7.08618 -6.3963
139 2 15.9439 3.54309 5.31463 -6.89577
140 3 14.1724 5.31463 5.31463 -6.30904
219 1 14.1724 3.54309 7.08618 -8.72141
220 1 15.9439 5.31463 7.08618 -8.47191
143 3 1.77154 7.08618 5.31463 -6.31609
144 1 0 8.85773 5.31463 -8.85563
221 3 0 7.08618 7.08618 -6.3713
222 3 1.77154 8.85773 7.08618 -6.41768
147 3 5.31463 7.08618 5.31463 -6.43717
148 3 3.54309 8.85773 5.31463 -6.53124
223 1 3.54309 7.08618 7.08618 -9.05594
224 3 5.31463 8.85773 7.08618 -6.43129
151 1 8.85773 7.08618 5.31463 -8.61104
152 1 7.08618 8.85773 5.31463 -8.55492
225 2 7.08618 7.08618 7.08618 -6.94228
226 3 8.85773 8.85773 7.08618 -6.34084
155 1 12.4008 7.08618 5.31463 -8.74135
156 2 10.6293 8.85773 5.31463 -6.91693
227 2 10.6293 7.08618 7.08618 -6.96359
228 2 12.4008 8.85773 7.08618 -6.90034
159 2 15.9439 7.08618 5.31463 -6.95887
160 3 14.1724 8.85773 5.31463 -6.19101
229 2 14.1724 7.08618 7.08618 -6.94693
230 1 15.9439 8.85773 7.08618 -8.45933
163 3 1.77154 10.6293 5.31463 -6.57321
164 1 0 12.4008 5.31463 -8.79226
231 3 0 10.6293 7.08618 -6.33886
232 2 1.77154 12.4008 7.08618 -6.92077
167 2 5.31463 10.6293 5.31463 -6.97716
168 3 3.54309 12.4008 5.31463 -6.55908
233 2 3.54309 10.6293 7.08618 -6.97
234 1 5.31463 12.4008 7.08618 -8.5886
171 1 8.85773 10.6293 5.31463 -8.68435
172 3 7.08618 12.4008 5.31463 -6.38936
235 2 7.08618 10.6293 7.08618 -6.95348
236 1 8.85773 12.4008 7.08618 -8.62986
175 1 12.4008 10.6293 5.31463 -8.41531
176 2 10.6293 12.4008 5.31463 -6.85186
237 3 10.6293 10.6293 7.08618 -6.28298
238 1 12.4008 12.4008 7.08618 -8.67444
179 3 15.9439 10.6293 5.31463 -6.23974
180 3 14.1724 12.4008 5.31463 -6.1472
239 1 14.1724 10.6293 7.08618 -8.64448
240 3 15.9439 12.4008 7.08618 -6.34567
183 2 1.77154 14.1724 5.31463 -6.99
184 3 0 15.9439 5.31463 -6.32903
241 3 0 14.1724 7.08618 -6.29412
242 1 1.77154 15.9439 7.08618 -8.55227
187 3 5.31463 14.1724 5.31463 -6.36622
188 2 3.54309 15.9439 5.31463 -6.96119
243 2 3.54309 14.1724 7.08618 -6.94329
244 1 5.31463 15.9439 7.08618 -8.49911
191 2 8.85773 14.1724 5.31463 -6.79889
192 3 7.08618 15.9439 5.31463 -6.21008
245 3 7.08618 14.1724 7.08618 -6.17316
246 1 8.85773 15.9439 7.08618 -8.56544
195 3 12.4008 14.1724 5.31463 -6.31447
196 3 10.6293 15.9439 5.31463 -6.30413
247 3 10.6293 14.1724 7.08618 -6.12297
248 1 12.4008 15.9439 7.08618 -8.81456
199 1 15.9439 14.1724 5.31463 -8.55199
200 2 14.1724 15.9439 5.31463 -6.91527
249 3 14.1724 14.1724 7.08618 -6.24681
250 2 15.9439 15.9439 7.08618 -6.87638
251 1 1.77154 0 8.85773 -8.34722
252 2 0 1.77154 8.85773 -6.9353
301 1 0 0 10.6293 -8.65905
302 2 1.77154 1.77154 10.6293 -6.91
303 3 1.77154 0 12.4008 -6.23611
304 3 0 1.77154 12.4008 -6.22329
253 1 5.31463 0 8.85773 -8.36231
254 1 3.54309 1.77154 8.85773 -8.35431
305 3 3.54309 0 10.6293 -6.13054
306 2 5.31463 1.77154 10.6293 -6.94406
307 3 5.31463 0 12.4008 -6.27439
308 1 3.54309 1.77154 12.4008 -8.46549
255 2 8.85773 0 8.85773 -6.94941
256 1 7.08618 1.77154 8.85773 -8.5049
309 1 7.08618 0 10.6293 -8.53496
310 3 8.85773 1.77154 10.6293 -6.25388
311 2 8.85773 0 12.4008 -6.92826
312 3 7.08618 1.77154 12.4008 -6.3419
257 2 12.4008 0 8.85773 -6.8979
258 2 10.6293 1.77154 8.85773 -6.89663
313 1 10.6293 0 10.6293 -8.46941
314 2 12.4008 1.77154 10.6293 -6.94605
315 3 12.4008 0 12.4008 -6.31776
316 1 10.6293 1.77154 12.4008 -8.48113
259 1 15.9439 0 8.85773 -8.55191
260 1 14.1724 1.77154 8.85773 -8.5051
317 3 14.1724 0 10.6293 -6.37746
318 2 15.9439 1.77154 10.6293 -6.95469
319 1 15.9439 0 12.4008 -8.74655
320 3 14.1724 1.77154 12.4008 -6.29374
261 1 1.77154 3.54309 8.85773 -8.65008
262 3 0 5.31463 8.85773 -6.36743
321 3 0 3.54309 10.6293 -6.28044
322 2 1.77154 5.31463 10.6293 -6.9429
323 1 1.77154 3.54309 12.4008 -8.69597
324 3 0 5.31463 12.4008 -6.20282
263 1 5.31463 3.54309 8.85773 -8.40893
264 2 3.54309 5.31463 8.85773 -7.01992
325 2 3.54309 3.54309 10.6293 -7.02829
326 2 5.31463 5.31463 10.6293 -7.10073
327 1 5.31463 3.54309 12.4008 -8.55209
328 2 3.54309 5.31463 12.4008 -6.97277
265 2 8.85773 3.54309 8.85773 -6.97398
266 1 7.08618 5.31463 8.85773 -8.70529
329 2 7.08618 3.54309 10.6293 -6.97586
330 2 8.85773 5.31463 10.6293 -7.03408
331 1 8.85773 3.54309 12.4008 -8.62127
332 2 7.08618 5.31463 12.4008 -7.00102
267 2 12.4008 3.54309 8.85773 -6.95513
268 2 10.6293 5.31463 8.85773 -7.01147
333 1 10.6293 3.54309 10.6293 -8.53775
334 2 12.4008 5.31463 10.6293 -6.99162
335 2 12.4008 3.54309 12.4008 -6.90604
336 3 10.6293 5.31463 12.4008 -6.45155
269 3 15.9439 3.54309 8.85773 -6.28546
270 2 14.1724 5.31463 8.85773 -6.99474
337 1 14.1724 3.54309 10.6293 -8.51358
338 2 15.9439 5.31463 10.6293 -6.93433
339 1 15.9439 3.54309 12.4008 -8.59756
340 3 14.1724 5.31463 12.4008 -6.33565
271 3 1.77154 7.08618 8.85773 -6.4735
272 3 0 8.85773 8.85773 -6.34338
341 1 0 7.08618 10.6293 -8.59945
342 1 1.77154 8.85773 10.6293 -8.58718
343 1 1.77154 7.08618 12.4008 -8.64672
344 3 0 8.85773 12.4008 -6.2274
273 3 5.31463 7.08618 8.85773 -6.55923
274 2 3.54309 8.85773 8.85773 -6.95888
345 2 3.54309 7.08618 10.6293 -7.0667
346 2 5.31463 8.85773 10.6293 -7.00361
347 1 5.31463 7.08618 12.4008 -8.65296
348 2 3.54309 8.85773 12.4008 -6.98627
275 3 8.85773 7.08618 8.85773 -6.49204
276 1 7.08618 8.85773 8.85773 -8.67215
349 2 7.08618 7.08618 10.6293 -7.01469
350 3 8.85773 8.85773 10.6293 -6.32786
351 1 8.85773 7.08618 12.4008 -8.67791
352 3 7.08618 8.85773 12.4008 -6.4701
277 1 12.4008 7.08618 8.85773 -8.69029
278 1 10.6293 8.85773 8.85773 -8.84452
353 3 10.6293 7.08618 10.6293 -6.36272
354 3 12.4008 8.85773 10.6293 -6.32906
355 1 12.4008 7.08618 12.4008 -8.77856
356 1 10.6293 8.85773 12.4008 -8.60311
279 1 15.9439 7.08618 8.85773 -8.49702
280 2 14.1724 8.85773 8.85773 -6.94661
357 3 14.1724 7.08618 10.6293 -6.37461
358 2 15.9439 8.85773 10.6293 -6.92218
359 1 15.9439 7.08618 12.4008 -8.73309
360 2 14.1724 8.85773 12.4008 -6.90279
281 1 1.77154 10.6293 8.85773 -8.66337
282 3 0 12.4008 8.85773 -6.21603
361 3 0 10.6293 10.6293 -6.22579
362 1 1.77154 12.4008 10.6293 -8.48698
363 3 1.77154 10.6293 12.4008 -6.26903
364 1 0 12.4008 12.4008 -8.4568
283 1 5.31463 10.6293 8.85773 -8.35954
284 2 3.54309 12.4008 8.85773 -6.92476
365 3 3.54309 10.6293 10.6293 -6.28415
366 1 5.31463 12.4008 10.6293 -8.53646
367 2 5.31463 10.6293 12.4008 -6.95489
368 3 3.54309 12.4008 12.4008 -6.19778
285 2 8.85773 10.6293 8.85773 -6.91405
286 2 7.08618 12.4008 8.85773 -6.99054
369 1 7.08618 10.6293 10.6293 -8.35893
370 1 8.85773 12.4008 10.6293 -8.52672
371 2 8.85773 10.6293 12.4008 -6.98923
372 2 7.08618 12.4008 12.4008 -6.98334
287 3 12.4008 10.6293 8.85773 -6.29978
288 3 10.6293 12.4008 8.85773 -6.14557
373 2 10.6293 10.6293 10.6293 -6.86765
374 1 12.4008 12.4008 10.6293 -8.74963
375 3 12.4008 10.6293 12.4008 -6.30998
376 3 10.6293 12.4008 12.4008 -6.29869
289 3 15.9439 10.6293 8.85773 -6.17929
290 3 14.1724 12.4008 8.85773 -6.16971
377 1 14.1724 10.6293 10.6293 -8.75549
378 1 15.9439 12.4008 10.6293 -8.44773
379 3 15.9439 10.6293 12.4008 -6.18436
380 3 14.1724 12.4008 12.4008 -6.17394
291 1 1.77154 14.1724 8.85773 -8.53391
292 2 0 15.9439 8.85773 -6.95345
381 2 0 14.1724 10.6293 -6.90648
382 1 1.77154 15.9439 10.6293 -8.47379
383 1 1.77154 14.1724 12.4008 -8.49416
384 3 0 15.9439 12.4008 -6.3191
293 1 5.31463 14.1724 8.85773 -8.34148
294 3 3.54309 15.9439 8.85773 -6.08693
385 3 3.54309 14.1724 10.6293 -6.07056
386 1 5.31463 15.9439 10.6293 -8.40751
387 3 5.31463 14.1724 12.4008 -6.36798
388 2 3.54309 15.9439 12.4008 -6.86634
295 1 8.85773 14.1724 8.85773 -8.63948
296 2 7.08618 15.9439 8.85773 -6.92497
389 2 7.08618 14.1724 10.6293 -6.97863
390 3 8.85773 15.9439 10.6293 -6.39479
391 2 8.85773 14.1724 12.4008 -6.93843
392 1 7.08618 15.9439 12.4008 -8.65854
297 1 12.4008 14.1724 8.85773 -8.4754
298 3 10.6293 15.9439 8.85773 -6.22923
393 3 10.6293 14.1724 10.6293 -6.23277
394 3 12.4008 15.9439 10.6293 -6.2797
395 3 12.4008 14.1724 12.4008 -6.29273
396 1 10.6293 15.9439 12.4008 -8.87391
299 3 15.9439 14.1724 8.85773 -6.25382
300 1 14.1724 15.9439 8.85773 -8.64968
397 2 14.1724 14.1724 10.6293 -6.82104
398 1 15.9439 15.9439 10.6293 -8.30818
399 1 15.9439 14.1724 12.4008 -8.43395
400 1 14.1724 15.9439 12.4008 -8.78529
401 3 0 0 14.1724 -6.16954
402 1 1.77154 1.77154 14.1724 -8.91056
403 3 1.77154 0 15.9439 -6.37482
404 3 0 1.77154 15.9439 -6.20981
405 3 3.54309 0 14.1724 -6.22769
406 1 5.31463 1.77154 14.1724 -8.66405
407 3 5.31463 0 15.9439 -6.41038
408 3 3.54309 1.77154 15.9439 -6.34627
409 1 7.08618 0 14.1724 -8.59432
410 2 8.85773 1.77154 14.1724 -6.92956
411 2 8.85773 0 15.9439 -6.96732
412 2 7.08618 1.77154 15.9439 -6.89263
413 3 10.6293 0 14.1724 -6.29749
414 3 12.4008 1.77154 14.1724 -6.32462
415 2 12.4008 0 15.9439 -6.88992
416 1 10.6293 1.77154 15.9439 -8.91163
417 1 14.1724 0 14.1724 -8.89734
418 3 15.9439 1.77154 14.1724 -6.21443
419 3 15.9439 0 15.9439 -6.29494
420 3 14.1724 1.77154 15.9439 -6.32333
421 3 0 3.54309 14.1724 -6.2161
422 3 1.77154 5.31463 14.1724 -6.29356
423 3 1.77154 3.54309 15.9439 -6.24064
424 1 0 5.31463 15.9439 -8.96691
425 3 3.54309 3.54309 14.1724 -6.26688
426 2 5.31463 5.31463 14.1724 -7.01155
427 2 5.31463 3.54309 15.9439 -6.89676
428 1 3.54309 5.31463 15.9439 -8.82589
429 3 7.08618 3.54309 14.1724 -6.44706
430 2 8.85773 5.31463 14.1724 -7.04814
431 3 8.85773 3.54309 15.9439 -6.437
432 1 7.08618 5.31463 15.9439 -8.66404
433 2 10.6293 3.54309 14.1724 -6.94196
434 2 12.4008 5.31463 14.1724 -6.9706
435 3 12.4008 3.54309 15.9439 -6.47253
436 1 10.6293 5.31463 15.9439 -8.60219
437 1 14.1724 3.54309 14.1724 -8.91367
438 3 15.9439 5.31463 14.1724 -6.34097
439 3 15.9439 3.54309 15.9439 -6.2953
440 3 14.1724 5.31463 15.9439 -6.44833
441 3 0 7.08618 14.1724 -6.28999
442 3 1.77154 8.85773 14.1724 -6.27309
443 3 1.77154 7.08618 15.9439 -6.2303
444 1 0 8.85773 15.9439 -8.66428
445 2 3.54309 7.08618 14.1724 -6.97704
446 2 5.31463 8.85773 14.1724 -7.06464
447 2 5.31463 7.08618 15.9439 -6.97384
448 1 3.54309 8.85773 15.9439 -8.61607
449 2 7.08618 7.08618 14.1724 -7.08726
450 2 8.85773 8.85773 14.1724 -7.03483
451 2 8.85773 7.08618 15.9439 -7.01491
452 1 7.08618 8.85773 15.9439 -8.39373
453 2 10.6293 7.08618 14.1724 -7.00703
454 3 12.4008 8.85773 14.1724 -6.35304
455 1 12.4008 7.08618 15.9439 -8.60499
456 1 10.6293 8.85773 15.9439 -8.49099
457 2 14.1724 7.08618 14.1724 -6.9057
458 2 15.9439 8.85773 14.1724 -6.96924
459 2 15.9439 7.08618 15.9439 -6.91974
460 3 14.1724 8.85773 15.9439 -6.3878
461 1 0 10.6293 14.1724 -8.72321
462 3 1.77154 12.4008 14.1724 -6.302
463 2 1.77154 10.6293 15.9439 -6.88172
464 2 0 12.4008 15.9439 -6.9267
465 1 3.54309 10.6293 14.1724 -8.61374
466 1 5.31463 12.4008 14.1724 -8.44265
467 2 5.31463 10.6293 15.9439 -6.99607
468 3 3.54309 12.4008 15.9439 -6.28422
469 1 7.08618 10.6293 14.1724 -8.37001
470 1 8.85773 12.4008 14.1724 -8.53148
471 2 8.85773 10.6293 15.9439 -7.04501
472 2 7.08618 12.4008 15.9439 -6.99306
473 2 10.6293 10.6293 14.1724 -6.92457
474 1 12.4008 12.4008 14.1724 -8.67235
475 3 12.4008 10.6293 15.9439 -6.30588
476 2 10.6293 12.4008 15.9439 -7.01032
477 1 14.1724 10.6293 14.1724 -8.84026
478 3 15.9439 12.4008 14.1724 -6.33127
479 2 15.9439 10.6293 15.9439 -6.94127
480 2 14.1724 12.4008 15.9439 -6.92302
481 1 0 14.1724 14.1724 -8.53743
482 3 1.77154 15.9439 14.1724 -6.41041
483 2 1.77154 14.1724 15.9439 -6.90027
484 3 0 15.9439 15.9439 -6.36401
485 3 3.54309 14.1724 14.1724 -6.37273
486 3 5.31463 15.9439 14.1724 -6.41511
487 1 5.31463 14.1724 15.9439 -8.90073
488 3 3.54309 15.9439 15.9439 -6.37261
489 2 7.08618 14.1724 14.1724 -6.97904
490 2 8.85773 15.9439 14.1724 -7.0019
491 1 8.85773 14.1724 15.9439 -8.57381
492 3 7.08618 15.9439 15.9439 -6.3543
493 3 10.6293 14.1724 14.1724 -6.33455
494 3 12.4008 15.9439 14.1724 -6.2818
495 1 12.4008 14.1724 15.9439 -8.57632
496 2 10.6293 15.9439 15.9439 -6.96553
497 3 14.1724 14.1724 14.1724 -6.22062
498 3 15.9439 15.9439 14.1724 -6.26065
499 1 15.9439 14.1724 15.9439 -8.65411
500 3 14.1724 15.9439 15.9439 -6.36986
501 3 0 0 17.7155 -6.40202
502 3 1.77154 1.77154 17.7155 -6.37964
503 1 1.77154 0 19.487 -8.78341
504 3 0 1.77154 19.487 -6.29752
601 2 0 0 21.2585 -7.02351
602 2 1.77154 1.77154 21.2585 -6.98469
505 3 3.54309 0 17.7155 -6.48405
506 3 5.31463 1.77154 17.7155 -6.26345
507 1 5.31463 0 19.487 -8.74534
508 2 3.54309 1.77154 19.487 -6.84925
605 1 3.54309 0 21.2585 -8.42813
606 2 5.31463 1.77154 21.2585 -6.91442
509 1 7.08618 0 17.7155 -8.79521
510 2 8.85773 1.77154 17.7155 -6.90908
511 3 8.85773 0 19.487 -6.44515
512 3 7.08618 1.77154 19.487 -6.26137
609 3 7.08618 0 21.2585 -6.37177
610 1 8.85773 1.77154 21.2585 -8.70638
513 3 10.6293 0 17.7155 -6.48953
514 3 12.4008 1.77154 17.7155 -6.45822
515 2 12.4008 0 19.487 -7.07259
516 3 10.6293 1.77154 19.487 -6.5164
613 2 10.6293 0 21.2585 -7.05611
614 2 12.4008 1.77154 21.2585 -7.15988
517 1 14.1724 0 17.7155 -8.69352
518 1 15.9439 1.77154 17.7155 -8.60945
519 2 15.9439 0 19.487 -7.09263
520 2 14.1724 1.77154 19.487 -7.0733
617 3 14.1724 0 21.2585 -6.90486
618 2 15.9439 1.77154 21.2585 -7.24942
521 1 0 3.54309 17.7155 -8.78564
522 3 1.77154 5.31463 17.7155 -6.21047
523 3 1.77154 3.54309 19.487 -6.22838
524 3 0 5.31463 19.487 -6.27793
621 1 0 3.54309 21.2585 -8.72249
622 3 1.77154 5.31463 21.2585 -6.19654
525 1 3.54309 3.54309 17.7155 -8.73621
526 3 5.31463 5.31463 17.7155 -6.27047
527 1 5.31463 3.54309 19.487 -8.55071
528 3 3.54309 5.31463 19.487 -6.15724
625 1 3.54309 3.54309 21.2585 -8.73513
626 3 5.31463 5.31463 21.2585 -6.27095
529 1 7.08618 3.54309 17.7155 -8.46931
530 2 8.85773 5.31463 17.7155 -7.00806
531 1 8.85773 3.54309 19.487 -8.66714
532 2 7.08618 5.31463 19.487 -6.87497
629 2 7.08618 3.54309 21.2585 -6.89951
630 3 8.85773 5.31463 21.2585 -6.40784
533 3 10.6293 3.54309 17.7155 -6.40666
534 2 12.4008 5.31463 17.7155 -6.89962
535 1 12.4008 3.54309 19.487 -8.95901
536 3 10.6293 5.31463 19.487 -6.36783
633 3 10.6293 3.54309 21.2585 -6.4444
634 2 12.4008 5.31463 21.2585 -7.0259
537 3 14.1724 3.54309 17.7155 -6.45323
538 1 15.9439 5.31463 17.7155 -8.8558
539 2 15.9439 3.54309 19.487 -6.98511
540 3 14.1724 5.31463 19.487 -6.44402
637 2 14.1724 3.54309 21.2585 -7.17302
638 3 15.9439 5.31463 21.2585 -6.60291
541 3 0 7.08618 17.7155 -6.28428
542 3 1.77154 8.85773 17.7155 -6.21633
543 1 1.77154 7.08618 19.487 -8.83156
544 2 0 8.85773 19.487 -6.88294
641 2 0 7.08618 21.2585 -6.79179
642 2 1.77154 8.85773 21.2585 -6.92589
545 3 3.54309 7.08618 17.7155 -6.36638
546 2 5.31463 8.85773 17.7155 -7.03887
547 1 5.31463 7.08618 19.487 -8.79884
548 2 3.54309 8.85773 19.487 -6.91534
645 1 3.54309 7.08618 21.2585 -8.66288
646 3 5.31463 8.85773 21.2585 -6.32288
549 2 7.08618 7.08618 17.7155 -7.02745
550 2 8.85773 8.85773 17.7155 -7.05136
551 1 8.85773 7.08618 19.487 -8.81215
552 2 7.08618 8.85773 19.487 -6.97964
649 3 7.08618 7.08618 21.2585 -6.46714
650 2 8.85773 8.85773 21.2585 -6.95258
553 2 10.6293 7.08618 17.7155 -6.98039
554 3 12.4008 8.85773 17.7155 -6.32251
555 1 12.4008 7.08618 19.487 -8.62688
556 3 10.6293 8.85773 19.487 -6.37391
653 2 10.6293 7.08618 21.2585 -6.99164
654 1 12.4008 8.85773 21.2585 -8.47256
557 2 14.1724 7.08618 17.7155 -6.88373
558 1 15.9439 8.85773 17.7155 -8.66569
559 3 15.9439 7.08618 19.487 -6.35837
560 2 14.1724 8.85773 19.487 -6.86363
657 1 14.1724 7.08618 21.2585 -8.70775
658 3 15.9439 8.85773 21.2585 -6.41575
561 1 0 10.6293 17.7155 -8.12458
562 1 1.77154 12.4008 17.7155 -8.34264
563 1 1.77154 10.6293 19.487 -8.19383
564 1 0 12.4008 19.487 -8.1035
661 1 0 10.6293 21.2585 -8.42256
662 2 1.77154 12.4008 21.2585 -6.96268
565 1 3.54309 10.6293 17.7155 -8.4146
566 3 5.31463 12.4008 17.7155 -6.37297
567 2 5.31463 10.6293 19.487 -6.88616
568 2 3.54309 12.4008 19.487 -6.95249
665 1 3.54309 10.6293 21.2585 -8.79526
666 3 5.31463 12.4008 21.2585 -6.28859
569 1 7.08618 10.6293 17.7155 -8.5044
570 2 8.85773 12.4008 17.7155 -6.97563
571 3 8.85773 10.6293 19.487 -6.30292
572 1 7.08618 12.4008 19.487 -8.71147
669 1 7.08618 10.6293 21.2585 -8.66415
670 2 8.85773 12.4008 21.2585 -6.88421
573 1 10.6293 10.6293 17.7155 -8.7997
574 2 12.4008 12.4008 17.7155 -6.9401
575 3 12.4008 10.6293 19.487 -6.28951
576 3 10.6293 12.4008 19.487 -6.37535
673 1 10.6293 10.6293 21.2585 -8.67219
674 2 12.4008 12.4008 21.2585 -6.93483
577 1 14.1724 10.6293 17.7155 -8.60518
578 1 15.9439 12.4008 17.7155 -8.4775
579 3 15.9439 10.6293 19.487 -6.29609
580 1 14.1724 12.4008 19.487 -8.68435
677 2 14.1724 10.6293 21.2585 -6.91442
678 3 15.9439 12.4008 21.2585 -6.40598
581 2 0 14.1724 17.7155 -6.97834
582 1 1.77154 15.9439 17.7155 -8.60758
583 2 1.77154 14.1724 19.487 -7.01144
584 1 0 15.9439 19.487 -8.26787
681 2 0 14.1724 21.2585 -7.01225
682 2 1.77154 15.9439 21.2585 -7.06273
585 3 3.54309 14.1724 17.7155 -6.4504
586 3 5.31463 15.9439 17.7155 -6.35796
587 3 5.31463 14.1724 19.487 -6.4508
588 2 3.54309 15.9439 19.487 -7.00757
685 1 3.54309 14.1724 21.2585 -8.74042
686 2 5.31463 15.9439 21.2585 -7.00084
589 3 7.08618 14.1724 17.7155 -6.40825
590 2 8.85773 15.9439 17.7155 -7.01566
591 2 8.85773 14.1724 19.487 -6.98391
592 1 7.08618 15.9439 19.487 -8.79082
689 3 7.08618 14.1724 21.2585 -6.35287
690 2 8.85773 15.9439 21.2585 -6.95342
593 1 10.6293 14.1724 17.7155 -8.44368
594 2 12.4008 15.9439 17.7155 -6.99213
595 2 12.4008 14.1724 19.487 -7.01676
596 2 10.6293 15.9439 19.487 -6.93643
693 1 10.6293 14.1724 21.2585 -8.66326
694 2 12.4008 15.9439 21.2585 -7.00042
597 2 14.1724 14.1724 17.7155 -6.92788
598 3 15.9439 15.9439 17.7155 -6.29526
599 3 15.9439 14.1724 19.487 -6.30546
600 1 14.1724 15.9439 19.487 -8.9
697 3 14.1724 14.1724 21.2585 -6.48204
698 2 15.9439 15.9439 21.2585 -6.98411
603 1 1.77154 0 23.0301 -8.32885
604 1 0 1.77154 23.0301 -8.17031
701 2 0 0 24.8016 -6.96181
702 3 1.77154 1.77154 24.8016 -6.30855
607 3 5.31463 0 23.0301 -6.34583
608 1 3.54309 1.77154 23.0301 -8.51961
703 2 3.54309 0 24.8016 -6.85223
704 3 5.31463 1.77154 24.8016 -6.35979
611 3 8.85773 0 23.0301 -6.5432
612 1 7.08618 1.77154 23.0301 -8.84202
705 3 7.08618 0 24.8016 -6.37319
706 3 8.85773 1.77154 24.8016 -6.45737
615 2 12.4008 0 23.0301 -7.31125
616 3 10.6293 1.77154 23.0301 -6.71757
707 2 10.6293 0 24.8016 -7.12346
708 2 12.4008 1.77154 24.8016 -7.22654
619 2 15.9439 0 23.0301 -7.31605
620 2 14.1724 1.77154 23.0301 -7.34225
709 2 14.1724 0 24.8016 -7.32185
710 2 15.9439 1.77154 24.8016 -7.23705
623 2 1.77154 3.54309 23.0301 -6.87363
624 3 0 5.31463 23.0301 -6.17173
711 2 0 3.54309 24.8016 -6.94298
712 1 1.77154 5.31463 24.8016 -8.41465
627 3 5.31463 3.54309 23.0301 -6.31942
628 3 3.54309 5.31463 23.0301 -6.27435
713 2 3.54309 3.54309 24.8016 -6.96373
714 1 5.31463 5.31463 24.8016 -8.62288
631 2 8.85773 3.54309 23.0301 -6.87881
632 1 7.08618 5.31463 23.0301 -8.80194
715 2 7.08618 3.54309 24.8016 -6.91095
716 3 8.85773 5.31463 24.8016 -6.39158
635 2 12.4008 3.54309 23.0301 -7.17145
636 1 10.6293 5.31463 23.0301 -8.78943
717 3 10.6293 3.54309 24.8016 -6.53296
718 2 12.4008 5.31463 24.8016 -7.04228
639 2 15.9439 3.54309 23.0301 -7.19769
640 2 14.1724 5.31463 23.0301 -7.11097
719 2 14.1724 3.54309 24.8016 -7.19897
720 1 15.9439 5.31463 24.8016 -8.61653
643 1 1.77154 7.08618 23.0301 -8.53302
644 1 0 8.85773 23.0301 -8.59052
721 3 0 7.08618 24.8016 -6.11003
722 3 1.77154 8.85773 24.8016 -6.32132
647 3 5.31463 7.08618 23.0301 -6.3525
648 3 3.54309 8.85773 23.0301 -6.29798
723 2 3.54309 7.08618 24.8016 -6.84255
724 1 5.31463 8.85773 24.8016 -8.90738
651 2 8.85773 7.08618 23.0301 -6.96693
652 3 7.08618 8.85773 23.0301 -6.39956
725 3 7.08618 7.08618 24.8016 -6.30726
726 1 8.85773 8.85773 24.8016 -8.78676
655 2 12.4008 7.08618 23.0301 -7.04296
656 2 10.6293 8.85773 23.0301 -6.99096
727 2 10.6293 7.08618 24.8016 -6.97676
728 1 12.4008 8.85773 24.8016 -8.67182
659 2 15.9439 7.08618 23.0301 -6.94019
660 3 14.1724 8.85773 23.0301 -6.39385
729 3 14.1724 7.08618 24.8016 -6.46494
730 1 15.9439 8.85773 24.8016 -8.4914
663 3 1.77154 10.6293 23.0301 -6.42952
664 3 0 12.4008 23.0301 -6.35961
731 3 0 10.6293 24.8016 -6.38295
732 3 1.77154 12.4008 24.8016 -6.41999
667 3 5.31463 10.6293 23.0301 -6.3467
668 3 3.54309 12.4008 23.0301 -6.42578
733 3 3.54309 10.6293 24.8016 -6.43484
734 2 5.31463 12.4008 24.8016 -6.86992
671 3 8.85773 10.6293 23.0301 -6.31545
672 1 7.08618 12.4008 23.0301 -8.67913
735 3 7.08618 10.6293 24.8016 -6.3075
736 3 8.85773 12.4008 24.8016 -6.30051
675 2 12.4008 10.6293 23.0301 -7.00092
676 1 10.6293 12.4008 23.0301 -8.55187
737 2 10.6293 10.6293 24.8016 -6.96583
738 3 12.4008 12.4008 24.8016 -6.36141
679 2 15.9439 10.6293 23.0301 -6.89535
680 1 14.1724 12.4008 23.0301 -8.73778
739 2 14.1724 10.6293 24.8016 -6.93314
740 3 15.9439 12.4008 24.8016 -6.3847
683 2 1.77154 14.1724 23.0301 -6.96543
684 1 0 15.9439 23.0301 -8.50096
741 1 0 14.1724 24.8016 -8.64183
742 3 1.77154 15.9439 24.8016 -6.33427
687 2 5.31463 14.1724 23.0301 -6.95618
688 2 3.54309 15.9439 23.0301 -6.99526
743 1 3.54309 14.1724 24.8016 -8.86215
744 2 5.31463 15.9439 24.8016 -7.02725
691 3 8.85773 14.1724 23.0301 -6.21949
692 1 7.08618 15.9439 23.0301 -8.41834
745 1 7.08618 14.1724 24.8016 -8.4511
746 2 8.85773 15.9439 24.8016 -7.02172
695 3 12.4008 14.1724 23.0301 -6.35605
696 3 10.6293 15.9439 23.0301 -6.36547
747 1 10.6293 14.1724 24.8016 -8.66864
748 2 12.4008 15.9439 24.8016 -7.02497
699 2 15.9439 14.1724 23.0301 -6.9144
700 2 14.1724 15.9439 23.0301 -6.96664
749 1 14.1724 14.1724 24.8016 -8.64236
750 3 15.9439 15.9439 24.8016 -6.42249
751 1 1.77154 0 26.5732 -8.62365
752 3 0 1.77154 26.5732 -6.18393
801 3 0 0 28.3447 -6.204
802 1 1.77154 1.77154 28.3447 -8.5798
803 3 1.77154 0 30.1163 -6.27815
804 3 0 1.77154 30.1163 -6.12304
753 1 5.31463 0 26.5732 -8.87038
754 2 3.54309 1.77154 26.5732 -6.92387
805 3 3.54309 0 28.3447 -6.24731
806 1 5.31463 1.77154 28.3447 -8.43748
807 2 5.31463 0 30.1163 -6.84682
808 3 3.54309 1.77154 30.1163 -6.16344
755 1 8.85773 0 26.5732 -8.76835
756 2 7.08618 1.77154 26.5732 -6.85216
809 3 7.08618 0 28.3447 -6.38114
810 3 8.85773 1.77154 28.3447 -6.4527
811 3 8.85773 0 30.1163 -6.40498
812 2 7.08618 1.77154 30.1163 -6.91753
757 3 12.4008 0 26.5732 -6.65873
758 3 10.6293 1.77154 26.5732 -6.5008
813 1 10.6293 0 28.3447 -8.63426
814 3 12.4008 1.77154 28.3447 -6.3622
815 1 12.4008 0 30.1163 -8.61518
816 3 10.6293 1.77154 30.1163 -6.28683
759 2 15.9439 0 26.5732 -7.14244
760 2 14.1724 1.77154 26.5732 -7.12543
817 2 14.1724 0 28.3447 -6.96102
818 3 15.9439 1.77154 28.3447 -6.4493
819 1 15.9439 0 30.1163 -8.72062
820 3 14.1724 1.77154 30.1163 -6.24767
761 1 1.77154 3.54309 26.5732 -8.44098
762 2 0 5.31463 26.5732 -6.9679
821 2 0 3.54309 28.3447 -6.89352
822 1 1.77154 5.31463 28.3447 -8.22069
823 1 1.77154 3.54309 30.1163 -8.44684
824 3 0 5.31463 30.1163 -6.16905
763 1 5.31463 3.54309 26.5732 -8.39462
764 2 3.54309 5.31463 26.5732 -7.01178
825 2 3.54309 3.54309 28.3447 -6.96814
826 1 5.31463 5.31463 28.3447 -8.22774
827 1 5.31463 3.54309 30.1163 -8.31075
828 2 3.54309 5.31463 30.1163 -7.05835
765 1 8.85773 3.54309 26.5732 -8.79925
766 3 7.08618 5.31463 26.5732 -6.32103
829 2 7.08618 3.54309 28.3447 -6.97172
830 2 8.85773 5.31463 28.3447 -6.92157
831 3 8.85773 3.54309 30.1163 -6.50953
832 2 7.08618 5.31463 30.1163 -6.95742
767 3 12.4008 3.54309 26.5732 -6.58082
768 1 10.6293 5.31463 26.5732 -8.64986
833 3 10.6293 3.54309 28.3447 -6.43641
834 2 12.4008 5.31463 28.3447 -6.93259
835 1 12.4008 3.54309 30.1163 -8.50337