ITEM: TIMESTEP
0
ITEM: NUMBER OF ATOMS
4000
ITEM: BOX BOUNDS pp pp pp
0.0000000000000000e+00 3.5790759999999999e+01
0.0000000000000000e+00 3.5790759999999999e+01
0.0000000000000000e+00 3.5790759999999999e+01
ITEM: ATOMS id type x y z c_peratom
1 1 0 0 0 -8.33312
2 3 1.78954 1.78954 0 -6.48959
3 2 1.78954 0 1.78954 -6.91783
4 3 0 1.78954 1.78954 -6.35692
101 1 0 0 3.57908 -8.38465
102 3 1.78954 1.78954 3.57908 -6.28679
5 1 3.57908 0 0 -8.28917
6 2 5.36861 1.78954 0 -7.07429
7 1 5.36861 0 1.78954 -8.3829
8 2 3.57908 1.78954 1.78954 -6.97121
105 2 3.57908 0 3.57908 -6.87847
106 3 5.36861 1.78954 3.57908 -6.29835
9 3 7.15815 0 0 -6.54901
10 2 8.94769 1.78954 0 -7.03342
11 2 8.94769 0 1.78954 -6.9887
12 3 7.15815 1.78954 1.78954 -6.54676
109 1 7.15815 0 3.57908 -8.35495
110 2 8.94769 1.78954 3.57908 -7.03223
13 2 10.7372 0 0 -6.99107
14 3 12.5268 1.78954 0 -6.37003
15 1 12.5268 0 1.78954 -8.4431
16 1 10.7372 1.78954 1.78954 -8.39829
113 3 10.7372 0 3.57908 -6.49842
114 2 12.5268 1.78954 3.57908 -7.03663
17 3 14.3163 0 0 -6.30529
18 1 16.1058 1.78954 0 -8.30829
19 1 16.1058 0 1.78954 -8.44787
20 3 14.3163 1.78954 1.78954 -6.19261
117 1 14.3163 0 3.57908 -8.3409
118 3 16.1058 1.78954 3.57908 -6.415
21 2 0 3.57908 0 -7.00237
22 2 1.78954 5.36861 0 -7.07116
23 1 1.78954 3.57908 1.78954 -8.52019
24 2 0 5.36861 1.78954 -7.0175
121 2 0 3.57908 3.57908 -6.92217
122 2 1.78954 5.36861 3.57908 -6.98358
25 2 3.57908 3.57908 0 -7.0749
26 2 5.36861 5.36861 0 -6.98752
27 1 5.36861 3.57908 1.78954 -8.45445
28 1 3.57908 5.36861 1.78954 -8.27134
125 3 3.57908 3.57908 3.57908 -6.19642
126 3 5.36861 5.36861 3.57908 -6.21583
29 2 7.15815 3.57908 0 -7.03668
30 2 8.94769 5.36861 0 -6.93289
31 3 8.94769 3.57908 1.78954 -6.56731
32 1 7.15815 5.36861 1.78954 -8.52235
129 3 7.15815 3.57908 3.57908 -6.47302
130 3 8.94769 5.36861 3.57908 -6.47754
33 2 10.7372 3.57908 0 -6.97574
34 1 12.5268 5.36861 0 -8.23972
35 1 12.5268 3.57908 1.78954 -8.29745
36 3 10.7372 5.36861 1.78954 -6.39222
133 3 10.7372 3.57908 3.57908 -6.57456
134 1 12.5268 5.36861 3.57908 -8.16831
37 3 14.3163 3.57908 0 -6.27926
38 3 16.1058 5.36861 0 -6.40502
39 1 16.1058 3.57908 1.78954 -8.42872
40 2 14.3163 5.36861 1.78954 -7.00239
137 1 14.3163 3.57908 3.57908 -8.17323
138 3 16.1058 5.36861 3.57908 -6.41872
41 1 0 7.15815 0 -8.49364
42 3 1.78954 8.94769 0 -6.2987
43 3 1.78954 7.15815 1.78954 -6.39429
44 2 0 8.94769 1.78954 -6.94015
141 3 0 7.15815 3.57908 -6.48068
142 1 1.78954 8.94769 3.57908 -8.413
45 1 3.57908 7.15815 0 -8.14102
46 1 5.36861 8.94769 0 -8.11234
47 1 5.36861 7.15815 1.78954 -8.05977
48 1 3.57908 8.94769 1.78954 -8.08676
145 2 3.57908 7.15815 3.57908 -6.94443
146 1 5.36861 8.94769 3.57908 -8.21772
49 3 7.15815 7.15815 0 -6.1728
50 3 8.94769 8.94769 0 -6.27037
51 3 8.94769 7.15815 1.78954 -6.24364
52 1 7.15815 8.94769 1.78954 -8.324
149 3 7.15815 7.15815 3.57908 -6.31458
150 1 8.94769 8.94769 3.57908 -8.34569
53 1 10.7372 7.15815 0 -8.41965
54 3 12.5268 8.94769 0 -6.30428
55 2 12.5268 7.15815 1.78954 -6.91604
56 1 10.7372 8.94769 1.78954 -8.23581
153 1 10.7372 7.15815 3.57908 -8.287
154 3 12.5268 8.94769 3.57908 -6.23558
57 3 14.3163 7.15815 0 -6.46055
58 2 16.1058 8.94769 0 -6.9222
59 1 16.1058 7.15815 1.78954 -8.3682
60 2 14.3163 8.94769 1.78954 -6.9044
157 1 14.3163 7.15815 3.57908 -8.23667
158 1 16.1058 8.94769 3.57908 -8.27986
61 2 0 10.7372 0 -6.91527
62 1 1.78954 12.5268 0 -8.1037
63 2 1.78954 10.7372 1.78954 -6.91042
64 1 0 12.5268 1.78954 -8.30646
161 3 0 10.7372 3.57908 -6.47246
162 3 1.78954 12.5268 3.57908 -6.31274
65 2 3.57908 10.7372 0 -6.91371
66 1 5.36861 12.5268 0 -8.40056
67 1 5.36861 10.7372 1.78954 -8.12711
68 3 3.57908 12.5268 1.78954 -6.16321
165 1 3.57908 10.7372 3.57908 -8.20733
166 1 5.36861 12.5268 3.57908 -8.27921
69 3 7.15815 10.7372 0 -6.32452
70 3 8.94769 12.5268 0 -6.54428
71 2 8.94769 10.7372 1.78954 -6.89665
72 3 7.15815 12.5268 1.78954 -6.38192
169 3 7.15815 10.7372 3.57908 -6.1945
170 3 8.94769 12.5268 3.57908 -6.5338
73 1 10.7372 10.7372 0 -8.5453
74 2 12.5268 12.5268 0 -6.92981
75 1 12.5268 10.7372 1.78954 -8.34713
76 2 10.7372 12.5268 1.78954 -7.03131
173 3 10.7372 10.7372 3.57908 -6.31653
174 1 12.5268 12.5268 3.57908 -8.48339
77 1 14.3163 10.7372 0 -8.39287
78 1 16.1058 12.5268 0 -8.32209
79 3 16.1058 10.7372 1.78954 -6.42967
80 3 14.3163 12.5268 1.78954 -6.34719
177 3 14.3163 10.7372 3.57908 -6.3359
178 3 16.1058 12.5268 3.57908 -6.53342
81 2 0 14.3163 0 -7.00436
82 1 1.78954 16.1058 0 -8.1024
83 1 1.78954 14.3163 1.78954 -8.11381
84 1 0 16.1058 1.78954 -8.23619
181 1 0 14.3163 3.57908 -8.20017
182 1 1.78954 16.1058 3.57908 -8.10783
85 1 3.57908 14.3163 0 -8.1529
86 3 5.36861 16.1058 0 -6.24695
87 3 5.36861 14.3163 1.78954 -6.20806
88 3 3.57908 16.1058 1.78954 -6.17224
185 3 3.57908 14.3163 3.57908 -6.27931
186 3 5.36861 16.1058 3.57908 -6.2404
89 3 7.15815 14.3163 0 -6.43078
90 3 8.94769 16.1058 0 -6.42938
91 2 8.94769 14.3163 1.78954 -6.97462
92 1 7.15815 16.1058 1.78954 -8.42695
189 1 7.15815 14.3163 3.57908 -8.2393
190 1 8.94769 16.1058 3.57908 -8.13608
93 1 10.7372 14.3163 0 -8.67661
94 2 12.5268 16.1058 0 -6.99229
95 2 12.5268 14.3163 1.78954 -6.99426
96 2 10.7372 16.1058 1.78954 -6.98316
193 2 10.7372 14.3163 3.57908 -7.02462
194 1 12.5268 16.1058 3.57908 -8.6734
97 1 14.3163 14.3163 0 -8.54815
98 2 16.1058 16.1058 0 -6.96187
99 3 16.1058 14.3163 1.78954 -6.39057
100 3 14.3163 16.1058 1.78954 -6.47363
197 3 14.3163 14.3163 3.57908 -6.39825
198 1 16.1058 16.1058 3.57908 -8.76741
103 1 1.78954 0 5.36861 -8.16111
104 1 0 1.78954 5.36861 -8.2063
201 3 0 0 7.15815 -6.1843
202 3 1.78954 1.78954 7.15815 -6.0291
107 3 5.36861 0 5.36861 -6.26189
108 1 3.57908 1.78954 5.36861 -8.36964
203 1 3.57908 0 7.15815 -8.25956
204 3 5.36861 1.78954 7.15815 -6.19251
111 2 8.94769 0 5.36861 -6.99942
112 3 7.15815 1.78954 5.36861 -6.38595
205 1 7.15815 0 7.15815 -8.69468
206 3 8.94769 1.78954 7.15815 -6.52037
115 2 12.5268 0 5.36861 -7.07736
116 2 10.7372 1.78954 5.36861 -7.1161
207 1 10.7372 0 7.15815 -8.40997
208 1 12.5268 1.78954 7.15815 -8.37328
119 2 16.1058 0 5.36861 -7.05733
120 2 14.3163 1.78954 5.36861 -7.07386
209 1 14.3163 0 7.15815 -8.2686
210 2 16.1058 1.78954 7.15815 -7.05739
123 1 1.78954 3.57908 5.36861 -8.31348
124 2 0 5.36861 5.36861 -6.94046
211 1 0 3.57908 7.15815 -8.12744
212 3 1.78954 5.36861 7.15815 -6.1873
127 1 5.36861 3.57908 5.36861 -8.50081
128 1 3.57908 5.36861 5.36861 -8.28569
213 3 3.57908 3.57908 7.15815 -6.07939
214 2 5.36861 5.36861 7.15815 -6.98441
131 2 8.94769 3.57908 5.36861 -7.04603
132 3 7.15815 5.36861 5.36861 -6.44889
215 1 7.15815 3.57908 7.15815 -8.50073
216 3 8.94769 5.36861 7.15815 -6.47068
135 2 12.5268 3.57908 5.36861 -7.03
136 2 10.7372 5.36861 5.36861 -7.03133
217 2 10.7372 3.57908 7.15815 -7.08476
218 1 12.5268 5.36861 7.15815 -8.45022
139 1 16.1058 3.57908 5.36861 -8.59287
140 2 14.3163 5.36861 5.36861 -7.01298
219 3 14.3163 3.57908 7.15815 -6.50454
220 3 16.1058 5.36861 7.15815 -6.48151
143 1 1.78954 7.15815 5.36861 -8.23267
144 3 0 8.94769 5.36861 -6.375
221 1 0 7.15815 7.15815 -8.60293
222 2 1.78954 8.94769 7.15815 -6.91269
147 2 5.36861 7.15815 5.36861 -6.85763
148 3 3.57908 8.94769 5.36861 -6.2106
223 1 3.57908 7.15815 7.15815 -8.26406
224 3 5.36861 8.94769 7.15815 -6.33297
151 3 8.94769 7.15815 5.36861 -6.28448
152 3 7.15815 8.94769 5.36861 -6.25871
225 1 7.15815 7.15815 7.15815 -8.52171
226 1 8.94769 8.94769 7.15815 -8.34362
155 2 12.5268 7.15815 5.36861 -7.04403
156 1 10.7372 8.94769 5.36861 -8.12629
227 1 10.7372 7.15815 7.15815 -8.1419
228 1 12.5268 8.94769 7.15815 -8.06258
159 3 16.1058 7.15815 5.36861 -6.45243
160 1 14.3163 8.94769 5.36861 -8.3331
229 2 14.3163 7.15815 7.15815 -6.98536
230 3 16.1058 8.94769 7.15815 -6.41778
163 3 1.78954 10.7372 5.36861 -6.35316
164 2 0 12.5268 5.36861 -6.91638
231 1 0 10.7372 7.15815 -8.50984
232 2 1.78954 12.5268 7.15815 -6.93094
167 1 5.36861 10.7372 5.36861 -8.21186
168 2 3.57908 12.5268 5.36861 -6.93508
233 1 3.57908 10.7372 7.15815 -8.26461
234 1 5.36861 12.5268 7.15815 -8.41866
171 2 8.94769 10.7372 5.36861 -6.81631
172 1 7.15815 12.5268 5.36861 -8.20324
235 3 7.15815 10.7372 7.15815 -6.34545
236 1 8.94769 12.5268 7.15815 -8.65801
175 1 12.5268 10.7372 5.36861 -8.43438
176 3 10.7372 12.5268 5.36861 -6.44314
237 3 10.7372 10.7372 7.15815 -6.26858
238 2 12.5268 12.5268 7.15815 -6.84907
179 2 16.1058 10.7372 5.36861 -6.88453
180 3 14.3163 12.5268 5.36861 -6.46238
239 3 14.3163 10.7372 7.15815 -6.35144
240 2 16.1058 12.5268 7.15815 -7.05158
183 1 1.78954 14.3163 5.36861 -8.39092
184 2 0 16.1058 5.36861 -6.97859
241 1 0 14.3163 7.15815 -8.44306
242 3 1.78954 16.1058 7.15815 -6.36864
187 3 5.36861 14.3163 5.36861 -6.34853
188 3 3.57908 16.1058 5.36861 -6.37404
243 3 3.57908 14.3163 7.15815 -6.46198
244 2 5.36861 16.1058 7.15815 -6.92825
191 2 8.94769 14.3163 5.36861 -7.01468
192 1 7.15815 16.1058 5.36861 -8.24137
245 2 7.15815 14.3163 7.15815 -6.9696
246 1 8.94769 16.1058 7.15815 -8.17323
195 2 12.5268 14.3163 5.36861 -6.9074
196 1 10.7372 16.1058 5.36861 -8.1207
247 3 10.7372 14.3163 7.15815 -6.25092
248 1 12.5268 16.1058 7.15815 -8.1791
199 1 16.1058 14.3163 5.36861 -8.66839
200 3 14.3163 16.1058 5.36861 -6.3314
249 2 14.3163 14.3163 7.15815 -7.02707
250 2 16.1058 16.1058 7.15815 -6.93068
251 3 1.78954 0 8.94769 -6.19054
252 1 0 1.78954 8.94769 -8.19094
301 1 0 0 10.7372 -8.39693
302 2 1.78954 1.78954 10.7372 -6.9926
303 3 1.78954 0 12.5268 -6.25707
304 2 0 1.78954 12.5268 -6.8959
253 2 5.36861 0 8.94769 -6.98504
254 1 3.57908 1.78954 8.94769 -8.28917
305 2 3.57908 0 10.7372 -6.86841
306 2 5.36861 1.78954 10.7372 -7.07595
307 1 5.36861 0 12.5268 -8.17708
308 1 3.57908 1.78954 12.5268 -8.1603
255 3 8.94769 0 8.94769 -6.48902
256 3 7.15815 1.78954 8.94769 -6.44276
309 2 7.15815 0 10.7372 -6.98892
310 2 8.94769 1.78954 10.7372 -7.00981
311 2 8.94769 0 12.5268 -7.01741
312 3 7.15815 1.78954 12.5268 -6.2867
257 2 12.5268 0 8.94769 -7.05142
258 2 10.7372 1.78954 8.94769 -7.04006
313 3 10.7372 0 10.7372 -6.5137
314 1 12.5268 1.78954 10.7372 -8.65178
315 3 12.5268 0 12.5268 -6.40868
316 3 10.7372 1.78954 12.5268 -6.43464
259 2 16.1058 0 8.94769 -7.10761
260 2 14.3163 1.78954 8.94769 -7.03113
317 1 14.3163 0 10.7372 -8.34818
318 1 16.1058 1.78954 10.7372 -8.37584
319 3 16.1058 0 12.5268 -6.32921
320 2 14.3163 1.78954 12.5268 -6.86228
261 1 1.78954 3.57908 8.94769 -8.15956
262 2 0 5.36861 8.94769 -7.03444
321 2 0 3.57908 10.7372 -7.03351
322 2 1.78954 5.36861 10.7372 -7.07643
323 3 1.78954 3.57908 12.5268 -6.43966
324 3 0 5.36861 12.5268 -6.66024
263 1 5.36861 3.57908 8.94769 -8.20771
264 1 3.57908 5.36861 8.94769 -8.34056
325 1 3.57908 3.57908 10.7372 -8.04834
326 3 5.36861 5.36861 10.7372 -6.23415
327 1 5.36861 3.57908 12.5268 -8.02865
328 1 3.57908 5.36861 12.5268 -8.39524
265 2 8.94769 3.57908 8.94769 -7.02609
266 2 7.15815 5.36861 8.94769 -6.92067
329 1 7.15815 3.57908 10.7372 -8.39837
330 3 8.94769 5.36861 10.7372 -6.47495
331 3 8.94769 3.57908 12.5268 -6.40846
332 1 7.15815 5.36861 12.5268 -8.30394
267 3 12.5268 3.57908 8.94769 -6.40527
268 2 10.7372 5.36861 8.94769 -7.06297
333 3 10.7372 3.57908 10.7372 -6.56926
334 1 12.5268 5.36861 10.7372 -8.47938
335 3 12.5268 3.57908 12.5268 -6.36255
336 2 10.7372 5.36861 12.5268 -6.93454
269 1 16.1058 3.57908 8.94769 -8.52393
270 3 14.3163 5.36861 8.94769 -6.41071
337 3 14.3163 3.57908 10.7372 -6.34181
338 2 16.1058 5.36861 10.7372 -6.90251
339 3 16.1058 3.57908 12.5268 -6.33809
340 1 14.3163 5.36861 12.5268 -8.35065
271 2 1.78954 7.15815 8.94769 -6.98516
272 3 0 8.94769 8.94769 -6.50225
341 2 0 7.15815 10.7372 -7.09888
342 3 1.78954 8.94769 10.7372 -6.46397
343 2 1.78954 7.15815 12.5268 -6.94695
344 2 0 8.94769 12.5268 -7.01745
273 3 5.36861 7.15815 8.94769 -6.33601
274 1 3.57908 8.94769 8.94769 -8.17583
345 3 3.57908 7.15815 10.7372 -6.29677
346 1 5.36861 8.94769 10.7372 -8.29965
347 3 5.36861 7.15815 12.5268 -6.24689
348 1 3.57908 8.94769 12.5268 -8.58875
275 1 8.94769 7.15815 8.94769 -8.16252
276 2 7.15815 8.94769 8.94769 -6.96471
349 2 7.15815 7.15815 10.7372 -6.96735
350 1 8.94769 8.94769 10.7372 -8.46917
351 2 8.94769 7.15815 12.5268 -6.97978
352 2 7.15815 8.94769 12.5268 -6.93358
277 2 12.5268 7.15815 8.94769 -6.99814
278 2 10.7372 8.94769 8.94769 -6.9792
353 1 10.7372 7.15815 10.7372 -8.3395
354 2 12.5268 8.94769 10.7372 -6.96803
355 3 12.5268 7.15815 12.5268 -6.45107
356 3 10.7372 8.94769 12.5268 -6.40974
279 1 16.1058 7.15815 8.94769 -8.57401
280 1 14.3163 8.94769 8.94769 -8.38898
357 2 14.3163 7.15815 10.7372 -6.99631
358 2 16.1058 8.94769 10.7372 -7.03192
359 1 16.1058 7.15815 12.5268 -8.35491
360 2 14.3163 8.94769 12.5268 -6.94738
281 1 1.78954 10.7372 8.94769 -8.31293
282 3 0 12.5268 8.94769 -6.41205
361 2 0 10.7372 10.7372 -7.0138
362 2 1.78954 12.5268 10.7372 -6.92784
363 3 1.78954 10.7372 12.5268 -6.4448
364 2 0 12.5268 12.5268 -7.04691
283 2 5.36861 10.7372 8.94769 -6.95645
284 3 3.57908 12.5268 8.94769 -6.31817
365 1 3.57908 10.7372 10.7372 -8.10964
366 1 5.36861 12.5268 10.7372 -8.41646
367 1 5.36861 10.7372 12.5268 -8.25525
368 2 3.57908 12.5268 12.5268 -6.87111
285 3 8.94769 10.7372 8.94769 -6.30592
286 2 7.15815 12.5268 8.94769 -6.86074
369 3 7.15815 10.7372 10.7372 -6.29366
370 1 8.94769 12.5268 10.7372 -8.51743
371 2 8.94769 10.7372 12.5268 -6.87787
372 1 7.15815 12.5268 12.5268 -8.17874
287 1 12.5268 10.7372 8.94769 -8.43906
288 3 10.7372 12.5268 8.94769 -6.33909
373 3 10.7372 10.7372 10.7372 -6.31352
374 3 12.5268 12.5268 10.7372 -6.27251
375 1 12.5268 10.7372 12.5268 -8.39927
376 1 10.7372 12.5268 12.5268 -8.26418
289 3 16.1058 10.7372 8.94769 -6.64408
290 1 14.3163 12.5268 8.94769 -8.47568
377 3 14.3163 10.7372 10.7372 -6.48444
378 2 16.1058 12.5268 10.7372 -7.08685
379 3 16.1058 10.7372 12.5268 -6.51385
380 2 14.3163 12.5268 12.5268 -6.95327
291 1 1.78954 14.3163 8.94769 -8.47659
292 2 0 16.1058 8.94769 -7.01736
381 1 0 14.3163 10.7372 -8.37916
382 1 1.78954 16.1058 10.7372 -8.2607
383 1 1.78954 14.3163 12.5268 -8.21343
384 2 0 16.1058 12.5268 -7.0301
293 2 5.36861 14.3163 8.94769 -6.95426
294 3 3.57908 16.1058 8.94769 -6.49419
385 3 3.57908 14.3163 10.7372 -6.36508
386 3 5.36861 16.1058 10.7372 -6.44156
387 3 5.36861 14.3163 12.5268 -6.35774
388 1 3.57908 16.1058 12.5268 -8.44437
295 3 8.94769 14.3163 8.94769 -6.29558
296 1 7.15815 16.1058 8.94769 -8.58583
389 3 7.15815 14.3163 10.7372 -6.32233
390 2 8.94769 16.1058 10.7372 -6.8945
391 1 8.94769 14.3163 12.5268 -8.16451
392 3 7.15815 16.1058 12.5268 -6.35725
297 1 12.5268 14.3163 8.94769 -8.27991
298 1 10.7372 16.1058 8.94769 -8.2857
393 3 10.7372 14.3163 10.7372 -6.18756
394 1 12.5268 16.1058 10.7372 -8.34985
395 3 12.5268 14.3163 12.5268 -6.32449
396 2 10.7372 16.1058 12.5268 -6.9674
299 2 16.1058 14.3163 8.94769 -6.98501
300 1 14.3163 16.1058 8.94769 -8.06935
397 3 14.3163 14.3163 10.7372 -6.34014
398 1 16.1058 16.1058 10.7372 -8.31925
399 2 16.1058 14.3163 12.5268 -7.02856
400 1 14.3163 16.1058 12.5268 -8.23459
401 1 0 0 14.3163 -8.294
402 2 1.78954 1.78954 14.3163 -6.89035
403 2 1.78954 0 16.1058 -6.97362
404 1 0 1.78954 16.1058 -8.40607
405 1 3.57908 0 14.3163 -8.33604
406 3 5.36861 1.78954 14.3163 -6.04675
407 1 5.36861 0 16.1058 -8.2805
408 3 3.57908 1.78954 16.1058 -6.29819
409 1 7.15815 0 14.3163 -8.12366
410 1 8.94769 1.78954 14.3163 -8.48879
411 3 8.94769 0 16.1058 -6.20577
412 1 7.15815 1.78954 16.1058 -8.10777
413 2 10.7372 0 14.3163 -6.87991
414 1 12.5268 1.78954 14.3163 -8.41374
415 3 12.5268 0 16.1058 -6.31489
416 3 10.7372 1.78954 16.1058 -6.39804
417 1 14.3163 0 14.3163 -8.54236
418 3 16.1058 1.78954 14.3163 -6.27107
419 3 16.1058 0 16.1058 -6.19117
420 2 14.3163 1.78954 16.1058 -6.93927
421 3 0 3.57908 14.3163 -6.47655
422 3 1.78954 5.36861 14.3163 -6.35802
423 3 1.78954 3.57908 16.1058 -6.28765
424 1 0 5.36861 16.1058 -8.54662
425 1 3.57908 3.57908 14.3163 -8.41621
426 1 5.36861 5.36861 14.3163 -8.16103
427 2 5.36861 3.57908 16.1058 -6.85557
428 3 3.57908 5.36861 16.1058 -6.19931
429 1 7.15815 3.57908 14.3163 -8.19284
430 1 8.94769 5.36861 14.3163 -8.32289
431 3 8.94769 3.57908 16.1058 -6.29073
432 3 7.15815 5.36861 16.1058 -6.16271
433 2 10.7372 3.57908 14.3163 -6.90703
434 3 12.5268 5.36861 14.3163 -6.44923
435 1 12.5268 3.57908 16.1058 -8.40931
436 2 10.7372 5.36861 16.1058 -7.00654
437 1 14.3163 3.57908 14.3163 -8.39086
438 3 16.1058 5.36861 14.3163 -6.38418
439 2 16.1058 3.57908 16.1058 -6.95821
440 2 14.3163 5.36861 16.1058 -6.9864
441 3 0 7.15815 14.3163 -6.46964
442 3 1.78954 8.94769 14.3163 -6.40118
443 1 1.78954 7.15815 16.1058 -8.45842
444 2 0 8.94769 16.1058 -6.97144
445 3 3.57908 7.15815 14.3163 -6.28379
446 3 5.36861 8.94769 14.3163 -6.40594
447 1 5.36861 7.15815 16.1058 -8.42866
448 3 3.57908 8.94769 16.1058 -6.22921
449 3 7.15815 7.15815 14.3163 -6.28492
450 1 8.94769 8.94769 14.3163 -8.38591
451 1 8.94769 7.15815 16.1058 -8.33209
452 2 7.15815 8.94769 16.1058 -6.89548
453 2 10.7372 7.15815 14.3163 -7.01909
454 3 12.5268 8.94769 14.3163 -6.35317
455 1 12.5268 7.15815 16.1058 -8.37098
456 2 10.7372 8.94769 16.1058 -6.93325
457 1 14.3163 7.15815 14.3163 -8.25304
458 1 16.1058 8.94769 14.3163 -8.18933
459 2 16.1058 7.15815 16.1058 -6.88827
460 1 14.3163 8.94769 16.1058 -8.16684
461 1 0 10.7372 14.3163 -8.46972
462 1 1.78954 12.5268 14.3163 -8.36188
463 1 1.78954 10.7372 16.1058 -8.2384
464 3 0 12.5268 16.1058 -6.39294
465 3 3.57908 10.7372 14.3163 -6.32647
466 3 5.36861 12.5268 14.3163 -6.37934
467 3 5.36861 10.7372 16.1058 -6.37247
468 3 3.57908 12.5268 16.1058 -6.29982
469 2 7.15815 10.7372 14.3163 -6.99061
470 1 8.94769 12.5268 14.3163 -7.991
471 1 8.94769 10.7372 16.1058 -8.29954
472 1 7.15815 12.5268 16.1058 -8.26444
473 3 10.7372 10.7372 14.3163 -6.23502
474 1 12.5268 12.5268 14.3163 -8.09251
475 3 12.5268 10.7372 16.1058 -6.2992
476 1 10.7372 12.5268 16.1058 -8.33595
477 1 14.3163 10.7372 14.3163 -8.10445
478 2 16.1058 12.5268 14.3163 -6.95646
479 1 16.1058 10.7372 16.1058 -8.06206
480 1 14.3163 12.5268 16.1058 -8.10439
481 2 0 14.3163 14.3163 -7.05971
482 3 1.78954 16.1058 14.3163 -6.58029
483 2 1.78954 14.3163 16.1058 -7.02866
484 2 0 16.1058 16.1058 -7.11204
485 2 3.57908 14.3163 14.3163 -6.95572
486 2 5.36861 16.1058 14.3163 -6.87717
487 3 5.36861 14.3163 16.1058 -6.2876
488 1 3.57908 16.1058 16.1058 -8.47181
489 1 7.15815 14.3163 14.3163 -8.27936
490 1 8.94769 16.1058 14.3163 -8.22042
491 1 8.94769 14.3163 16.1058 -8.12965
492 3 7.15815 16.1058 16.1058 -6.31037
493 2 10.7372 14.3163 14.3163 -7.07165
494 2 12.5268 16.1058 14.3163 -6.99902
495 2 12.5268 14.3163 16.1058 -7.0499
496 2 10.7372 16.1058 16.1058 -7.03831
497 1 14.3163 14.3163 14.3163 -8.26931
498 2 16.1058 16.1058 14.3163 -6.9691
499 3 16.1058 14.3163 16.1058 -6.26398
500 2 14.3163 16.1058 16.1058 -6.96605
501 3 0 0 17.8954 -6.39017
502 1 1.78954 1.78954 17.8954 -8.5132
503 2 1.78954 0 19.6849 -7.06952
504 2 0 1.78954 19.6849 -6.99931
601 2 0 0 21.4745 -7.08188
602 2 1.78954 1.78954 21.4745 -7.14788
505 2 3.57908 0 17.8954 -6.90183
506 3 5.36861 1.78954 17.8954 -6.34938
507 3 5.36861 0 19.6849 -6.58559
508 3 3.57908 1.78954 19.6849 -6.5747
605 2 3.57908 0 21.4745 -7.09206
606 3 5.36861 1.78954 21.4745 -6.4507
509 1 7.15815 0 17.8954 -8.47103
510 2 8.94769 1.78954 17.8954 -6.89053
511 2 8.94769 0 19.6849 -6.99537
512 2 7.15815 1.78954 19.6849 -6.86307
609 1 7.15815 0 21.4745 -8.57573
610 3 8.94769 1.78954 21.4745 -6.35786
513 1 10.7372 0 17.8954 -8.45668
514 2 12.5268 1.78954 17.8954 -6.88953
515 3 12.5268 0 19.6849 -6.29585
516 1 10.7372 1.78954 19.6849 -8.67465
613 2 10.7372 0 21.4745 -6.85902
614 3 12.5268 1.78954 21.4745 -6.36763
517 1 14.3163 0 17.8954 -8.53477
518 1 16.1058 1.78954 17.8954 -8.44132
519 2 16.1058 0 19.6849 -6.90949
520 3 14.3163 1.78954 19.6849 -6.38859
617 1 14.3163 0 21.4745 -8.67385
618 2 16.1058 1.78954 21.4745 -6.90498
521 3 0 3.57908 17.8954 -6.41386
522 1 1.78954 5.36861 17.8954 -8.30504
523 3 1.78954 3.57908 19.6849 -6.51352
524 2 0 5.36861 19.6849 -6.97579
621 3 0 3.57908 21.4745 -6.5432
622 2 1.78954 5.36861 21.4745 -7.02164
525 1 3.57908 3.57908 17.8954 -8.50856
526 1 5.36861 5.36861 17.8954 -8.24385
527 3 5.36861 3.57908 19.6849 -6.31765
528 3 3.57908 5.36861 19.6849 -6.22096
625 2 3.57908 3.57908 21.4745 -6.95989
626 1 5.36861 5.36861 21.4745 -8.13137
529 1 7.15815 3.57908 17.8954 -8.39186
530 1 8.94769 5.36861 17.8954 -8.3198
531 3 8.94769 3.57908 19.6849 -6.30731
532 2 7.15815 5.36861 19.6849 -6.9327
629 1 7.15815 3.57908 21.4745 -8.30476
630 1 8.94769 5.36861 21.4745 -8.21663
533 3 10.7372 3.57908 17.8954 -6.42945
534 2 12.5268 5.36861 17.8954 -7.00198
535 3 12.5268 3.57908 19.6849 -6.44909
536 1 10.7372 5.36861 19.6849 -8.36324
633 3 10.7372 3.57908 21.4745 -6.28987
634 3 12.5268 5.36861 21.4745 -6.30075
537 3 14.3163 3.57908 17.8954 -6.52304
538 1 16.1058 5.36861 17.8954 -8.68128
539 3 16.1058 3.57908 19.6849 -6.45452
540 2 14.3163 5.36861 19.6849 -6.94534
637 1 14.3163 3.57908 21.4745 -8.68173
638 3 16.1058 5.36861 21.4745 -6.41529
541 2 0 7.15815 17.8954 -7.06772
542 1 1.78954 8.94769 17.8954 -8.09719
543 1 1.78954 7.15815 19.6849 -8.10617
544 2 0 8.94769 19.6849 -7.06332
641 1 0 7.15815 21.4745 -8.47061
642 3 1.78954 8.94769 21.4745 -6.34147
545 2 3.57908 7.15815 17.8954 -6.9313
546 1 5.36861 8.94769 17.8954 -8.16618
547 1 5.36861 7.15815 19.6849 -8.0654
548 1 3.57908 8.94769 19.6849 -7.96224
645 1 3.57908 7.15815 21.4745 -8.06512
646 1 5.36861 8.94769 21.4745 -8.24669
549 2 7.15815 7.15815 17.8954 -7.0206
550 3 8.94769 8.94769 17.8954 -6.41558
551 2 8.94769 7.15815 19.6849 -6.98904
552 1 7.15815 8.94769 19.6849 -8.45368
649 3 7.15815 7.15815 21.4745 -6.26296
650 2 8.94769 8.94769 21.4745 -6.92087
553 2 10.7372 7.15815 17.8954 -7.04988
554 2 12.5268 8.94769 17.8954 -6.99579
555 1 12.5268 7.15815 19.6849 -8.3024
556 1 10.7372 8.94769 19.6849 -8.38575
653 1 10.7372 7.15815 21.4745 -8.13774
654 2 12.5268 8.94769 21.4745 -6.97948
557 2 14.3163 7.15815 17.8954 -7.00023
558 3 16.1058 8.94769 17.8954 -6.35058
559 3 16.1058 7.15815 19.6849 -6.47175
560 3 14.3163 8.94769 19.6849 -6.47349
657 2 14.3163 7.15815 21.4745 -6.9105
658 1 16.1058 8.94769 21.4745 -8.48136
561 3 0 10.7372 17.8954 -6.33069
562 1 1.78954 12.5268 17.8954 -8.30068
563 1 1.78954 10.7372 19.6849 -8.29232
564 2 0 12.5268 19.6849 -7.0652
661 2 0 10.7372 21.4745 -7.04735
662 2 1.78954 12.5268 21.4745 -7.07866
565 1 3.57908 10.7372 17.8954 -8.03427
566 1 5.36861 12.5268 17.8954 -8.31579
567 2 5.36861 10.7372 19.6849 -6.97224
568 2 3.57908 12.5268 19.6849 -7.09278
665 3 3.57908 10.7372 21.4745 -6.38577
666 2 5.36861 12.5268 21.4745 -7.00213
569 3 7.15815 10.7372 17.8954 -6.31243
570 3 8.94769 12.5268 17.8954 -6.33519
571 3 8.94769 10.7372 19.6849 -6.41361
572 2 7.15815 12.5268 19.6849 -6.94558
669 3 7.15815 10.7372 21.4745 -6.36105
670 1 8.94769 12.5268 21.4745 -8.40061
573 3 10.7372 10.7372 17.8954 -6.39247
574 2 12.5268 12.5268 17.8954 -6.91363
575 3 12.5268 10.7372 19.6849 -6.43513
576 3 10.7372 12.5268 19.6849 -6.35964
673 1 10.7372 10.7372 21.4745 -8.31312
674 3 12.5268 12.5268 21.4745 -6.43632
577 1 14.3163 10.7372 17.8954 -8.44949
578 2 16.1058 12.5268 17.8954 -6.90858
579 3 16.1058 10.7372 19.6849 -6.34464
580 3 14.3163 12.5268 19.6849 -6.4129
677 3 14.3163 10.7372 21.4745 -6.47926
678 1 16.1058 12.5268 21.4745 -8.71081
581 2 0 14.3163 17.8954 -7.02578
582 2 1.78954 16.1058 17.8954 -7.01591
583 3 1.78954 14.3163 19.6849 -6.61183
584 1 0 16.1058 19.6849 -8.46344
681 2 0 14.3163 21.4745 -7.08774
682 3 1.78954 16.1058 21.4745 -6.57579
585 1 3.57908 14.3163 17.8954 -8.28204
586 1 5.36861 16.1058 17.8954 -8.40342
587 2 5.36861 14.3163 19.6849 -7.04328
588 2 3.57908 16.1058 19.6849 -7.03389
685 2 3.57908 14.3163 21.4745 -7.1204
686 3 5.36861 16.1058 21.4745 -6.42153
589 2 7.15815 14.3163 17.8954 -6.92572
590 1 8.94769 16.1058 17.8954 -8.51415
591 1 8.94769 14.3163 19.6849 -8.45867
592 3 7.15815 16.1058 19.6849 -6.25067
689 3 7.15815 14.3163 21.4745 -6.39746
690 1 8.94769 16.1058 21.4745 -8.39816
593 3 10.7372 14.3163 17.8954 -6.29184
594 1 12.5268 16.1058 17.8954 -8.52753
595 1 12.5268 14.3163 19.6849 -8.50845
596 2 10.7372 16.1058 19.6849 -6.8904
693 3 10.7372 14.3163 21.4745 -6.28224
694 1 12.5268 16.1058 21.4745 -8.30563
597 1 14.3163 14.3163 17.8954 -8.31338
598 3 16.1058 16.1058 17.8954 -6.38796
599 2 16.1058 14.3163 19.6849 -6.89721
600 3 14.3163 16.1058 19.6849 -6.24209
697 3 14.3163 14.3163 21.4745 -6.34817
698 1 16.1058 16.1058 21.4745 -8.64874
603 2 1.78954 0 23.264 -7.06701
604 1 0 1.78954 23.264 -8.53116
701 2 0 0 25.0535 -6.94512
702 3 1.78954 1.78954 25.0535 -6.4255
607 1 5.36861 0 23.264 -8.3266
608 3 3.57908 1.78954 23.264 -6.45287
703 1 3.57908 0 25.0535 -8.43183
704 3 5.36861 1.78954 25.0535 -6.22125
611 3 8.94769 0 23.264 -6.50968
612 2 7.15815 1.78954 23.264 -6.8856
705 2 7.15815 0 25.0535 -6.92694
706 3 8.94769 1.78954 25.0535 -6.34066
615 3 12.5268 0 23.264 -6.38972
616 1 10.7372 1.78954 23.264 -8.62366
707 3 10.7372 0 25.0535 -6.35182
708 1 12.5268 1.78954 25.0535 -8.74185
619 2 16.1058 0 23.264 -6.99373
620 3 14.3163 1.78954 23.264 -6.38132
709 3 14.3163 0 25.0535 -6.35159
710 1 16.1058 1.78954 25.0535 -8.8408
623 2 1.78954 3.57908 23.264 -6.98708
624 1 0 5.36861 23.264 -8.41981
711 1 0 3.57908 25.0535 -8.48741
712 3 1.78954 5.36861 25.0535 -6.30213
627 1 5.36861 3.57908 23.264 -8.16548
628 1 3.57908 5.36861 23.264 -8.09028
713 1 3.57908 3.57908 25.0535 -8.55989
714 2 5.36861 5.36861 25.0535 -7.01294
631 1 8.94769 3.57908 23.264 -8.19313
632 1 7.15815 5.36861 23.264 -8.09191
715 1 7.15815 3.57908 25.0535 -8.32317
716 2 8.94769 5.36861 25.0535 -7.02294
635 3 12.5268 3.57908 23.264 -6.28998
636 2 10.7372 5.36861 23.264 -6.83164
717 3 10.7372 3.57908 25.0535 -6.35757
718 1 12.5268 5.36861 25.0535 -8.53739
639 3 16.1058 3.57908 23.264 -6.37784
640 1 14.3163 5.36861 23.264 -8.22711
719 3 14.3163 3.57908 25.0535 -6.26308
720 1 16.1058 5.36861 25.0535 -8.47682
643 2 1.78954 7.15815 23.264 -6.94487
644 3 0 8.94769 23.264 -6.51053
721 1 0 7.15815 25.0535 -8.65645
722 2 1.78954 8.94769 25.0535 -6.95885
647 2 5.36861 7.15815 23.264 -7.01185
648 2 3.57908 8.94769 23.264 -6.97047
723 1 3.57908 7.15815 25.0535 -8.36834
724 2 5.36861 8.94769 25.0535 -7.03583
651 3 8.94769 7.15815 23.264 -6.41665
652 3 7.15815 8.94769 23.264 -6.42284
725 1 7.15815 7.15815 25.0535 -8.4552
726 3 8.94769 8.94769 25.0535 -6.42496
655 1 12.5268 7.15815 23.264 -8.38371
656 2 10.7372 8.94769 23.264 -6.88301
727 3 10.7372 7.15815 25.0535 -6.50085
728 3 12.5268 8.94769 25.0535 -6.36267
659 1 16.1058 7.15815 23.264 -8.34909
660 3 14.3163 8.94769 23.264 -6.38534
729 3 14.3163 7.15815 25.0535 -6.29771
730 2 16.1058 8.94769 25.0535 -6.84124
663 1 1.78954 10.7372 23.264 -8.73092
664 3 0 12.5268 23.264 -6.54959
731 3 0 10.7372 25.0535 -6.50967
732 3 1.78954 12.5268 25.0535 -6.57336
667 1 5.36861 10.7372 23.264 -8.61105
668 3 3.57908 12.5268 23.264 -6.53277
733 3 3.57908 10.7372 25.0535 -6.45999
734 2 5.36861 12.5268 25.0535 -6.92348
671 1 8.94769 10.7372 23.264 -8.38033
672 3 7.15815 12.5268 23.264 -6.31964
735 2 7.15815 10.7372 25.0535 -6.99017
736 1 8.94769 12.5268 25.0535 -8.1222
675 3 12.5268 10.7372 23.264 -6.40931
676 1 10.7372 12.5268 23.264 -8.3648
737 3 10.7372 10.7372 25.0535 -6.21305
738 3 12.5268 12.5268 25.0535 -6.43925
679 2 16.1058 10.7372 23.264 -6.87558
680 3 14.3163 12.5268 23.264 -6.47368
739 1 14.3163 10.7372 25.0535 -8.41909
740 1 16.1058 12.5268 25.0535 -8.30424
683 3 1.78954 14.3163 23.264 -6.7181
684 2 0 16.1058 23.264 -7.00392
741 1 0 14.3163 25.0535 -8.60189
742 3 1.78954 16.1058 25.0535 -6.51351
687 1 5.36861 14.3163 23.264 -8.73815
688 2 3.57908 16.1058 23.264 -6.98378
743 2 3.57908 14.3163 25.0535 -6.99016
744 3 5.36861 16.1058 25.0535 -6.41974
691 2 8.94769 14.3163 23.264 -6.81459
692 3 7.15815 16.1058 23.264 -6.29863
745 3 7.15815 14.3163 25.0535 -6.2624
746 1 8.94769 16.1058 25.0535 -8.2895
695 2 12.5268 14.3163 23.264 -6.95768
696 3 10.7372 16.1058 23.264 -6.36085
747 2 10.7372 14.3163 25.0535 -7.08759
748 2 12.5268 16.1058 25.0535 -7.01397
699 3 16.1058 14.3163 23.264 -6.31096
700 1 14.3163 16.1058 23.264 -8.35489
749 2 14.3163 14.3163 25.0535 -7.01211
750 2 16.1058 16.1058 25.0535 -6.91465
751 3 1.78954 0 26.8431 -6.42099
752 2 0 1.78954 26.8431 -7.06496
801 2 0 0 28.6326 -7.0917
802 2 1.78954 1.78954 28.6326 -7.06019
803 2 1.78954 0 30.4221 -7.095
804 3 0 1.78954 30.4221 -6.50543
753 1 5.36861 0 26.8431 -8.28261
754 3 3.57908 1.78954 26.8431 -6.35937
805 1 3.57908 0 28.6326 -8.26439
806 3 5.36861 1.78954 28.6326 -6.38914
807 1 5.36861 0 30.4221 -8.33818
808 2 3.57908 1.78954 30.4221 -7.07662
755 1 8.94769 0 26.8431 -8.58759
756 3 7.15815 1.78954 26.8431 -6.27259
809 2 7.15815 0 28.6326 -6.89825
810 2 8.94769 1.78954 28.6326 -6.8813
811 1 8.94769 0 30.4221 -8.31104
812 3 7.15815 1.78954 30.4221 -6.26407
757 3 12.5268 0 26.8431 -6.3803
758 3 10.7372 1.78954 26.8431 -6.36579
813 2 10.7372 0 28.6326 -7.01903
814 1 12.5268 1.78954 28.6326 -8.56068
815 2 12.5268 0 30.4221 -6.91987
816 1 10.7372 1.78954 30.4221 -8.1979
759 3 16.1058 0 26.8431 -6.36118
760 3 14.3163 1.78954 26.8431 -6.27472
817 3 14.3163 0 28.6326 -6.34587
818 1 16.1058 1.78954 28.6326 -8.27853
819 1 16.1058 0 30.4221 -8.01874
820 1 14.3163 1.78954 30.4221 -8.03722
761 2 1.78954 3.57908 26.8431 -6.97617
762 2 0 5.36861 26.8431 -6.91223
821 1 0 3.57908 28.6326 -8.39853
822 1 1.78954 5.36861 28.6326 -8.48334
823 2 1.78954 3.57908 30.4221 -7.07401
824 2 0 5.36861 30.4221 -6.95876
763 3 5.36861 3.57908 26.8431 -6.36974
764 3 3.57908 5.36861 26.8431 -6.41417
825 3 3.57908 3.57908 28.6326 -6.61082
826 1 5.36861 5.36861 28.6326 -8.59725
827 2 5.36861 3.57908 30.4221 -6.92554
828 2 3.57908 5.36861 30.4221 -6.96365
765 1 8.94769 3.57908 26.8431 -8.41385
766 2 7.15815 5.36861 26.8431 -7.04693
829 1 7.15815 3.57908 28.6326 -8.33784
830 1 8.94769 5.36861 28.6326 -8.29896
831 1 8.94769 3.57908 30.4221 -8.14318
832 3 7.15815 5.36861 30.4221 -6.33623
767 2 12.5268 3.57908 26.8431 -6.83841
768 2 10.7372 5.36861 26.8431 -6.975
833 3 10.7372 3.57908 28.6326 -6.29312
834 1 12.5268 5.36861 28.6326 -8.52322
835 2 12.5268 3.57908 30.4221 -6.95228