ITEM: TIMESTEP
0
ITEM: NUMBER OF ATOMS
4000
ITEM: BOX BOUNDS pp pp pp
0.0000000000000000e+00 3.5477780000000003e+01
0.0000000000000000e+00 3.5477780000000003e+01
0.0000000000000000e+00 3.5477780000000003e+01
ITEM: ATOMS id type x y z c_peratom
1 3 0 0 0 -6.2576
2 1 1.77389 1.77389 0 -8.59533
3 3 1.77389 0 1.77389 -6.22911
4 3 0 1.77389 1.77389 -6.27306
5 3 3.54778 0 0 -6.33087
8 3 3.54778 1.77389 1.77389 -6.20626
21 2 0 3.54778 0 -6.95768
23 2 1.77389 3.54778 1.77389 -6.90715
25 1 3.54778 3.54778 0 -8.39087
101 1 0 0 3.54778 -8.52326
102 1 1.77389 1.77389 3.54778 -8.67977
105 1 3.54778 0 3.54778 -8.35495
121 2 0 3.54778 3.54778 -6.98175
125 3 3.54778 3.54778 3.54778 -6.38889
6 3 5.32167 1.77389 0 -6.29246
7 1 5.32167 0 1.77389 -8.58133
9 3 7.09556 0 0 -6.51063
12 3 7.09556 1.77389 1.77389 -6.27042
27 1 5.32167 3.54778 1.77389 -8.87439
29 3 7.09556 3.54778 0 -6.32447
106 2 5.32167 1.77389 3.54778 -6.80779
109 1 7.09556 0 3.54778 -8.64904
129 2 7.09556 3.54778 3.54778 -6.87197
10 1 8.86945 1.77389 0 -8.87175
11 3 8.86945 0 1.77389 -6.44702
13 3 10.6433 0 0 -6.42048
16 3 10.6433 1.77389 1.77389 -6.30145
31 3 8.86945 3.54778 1.77389 -6.24534
33 2 10.6433 3.54778 0 -6.86703
110 1 8.86945 1.77389 3.54778 -8.67911
113 3 10.6433 0 3.54778 -6.36475
133 1 10.6433 3.54778 3.54778 -8.2794
14 3 12.4172 1.77389 0 -6.40117
15 1 12.4172 0 1.77389 -9.06753
17 2 14.1911 0 0 -6.97287
20 3 14.1911 1.77389 1.77389 -6.3088
35 1 12.4172 3.54778 1.77389 -8.45922
37 1 14.1911 3.54778 0 -8.52405
114 2 12.4172 1.77389 3.54778 -6.84488
117 3 14.1911 0 3.54778 -6.40986
137 2 14.1911 3.54778 3.54778 -6.96055
18 1 15.965 1.77389 0 -8.53075
19 2 15.965 0 1.77389 -7.01336
39 1 15.965 3.54778 1.77389 -8.4608
118 1 15.965 1.77389 3.54778 -8.7102
22 3 1.77389 5.32167 0 -6.23861
24 1 0 5.32167 1.77389 -8.41176
28 2 3.54778 5.32167 1.77389 -6.86821
41 1 0 7.09556 0 -8.43425
43 1 1.77389 7.09556 1.77389 -8.46494
45 1 3.54778 7.09556 0 -8.47125
122 2 1.77389 5.32167 3.54778 -6.98034
141 2 0 7.09556 3.54778 -6.98894
145 3 3.54778 7.09556 3.54778 -6.24124
26 3 5.32167 5.32167 0 -6.23349
32 3 7.09556 5.32167 1.77389 -6.25203
47 1 5.32167 7.09556 1.77389 -8.70162
49 1 7.09556 7.09556 0 -8.44778
126 3 5.32167 5.32167 3.54778 -6.34052
149 3 7.09556 7.09556 3.54778 -6.36343
30 1 8.86945 5.32167 0 -8.67023
36 2 10.6433 5.32167 1.77389 -7.00695
51 3 8.86945 7.09556 1.77389 -6.15682
53 1 10.6433 7.09556 0 -8.30121
130 1 8.86945 5.32167 3.54778 -8.58722
153 1 10.6433 7.09556 3.54778 -8.18384
34 1 12.4172 5.32167 0 -8.3359
40 2 14.1911 5.32167 1.77389 -6.94389
55 1 12.4172 7.09556 1.77389 -8.27004
57 3 14.1911 7.09556 0 -6.3108
134 2 12.4172 5.32167 3.54778 -6.99319
157 3 14.1911 7.09556 3.54778 -6.28939
38 3 15.965 5.32167 0 -6.24704
59 3 15.965 7.09556 1.77389 -6.46052
138 2 15.965 5.32167 3.54778 -6.94394
42 3 1.77389 8.86945 0 -6.06487
44 1 0 8.86945 1.77389 -8.22327
48 3 3.54778 8.86945 1.77389 -6.193
61 1 0 10.6433 0 -8.34999
63 1 1.77389 10.6433 1.77389 -8.38839
65 1 3.54778 10.6433 0 -8.22432
142 3 1.77389 8.86945 3.54778 -6.1611
161 2 0 10.6433 3.54778 -6.86913
165 2 3.54778 10.6433 3.54778 -6.91769
46 2 5.32167 8.86945 0 -6.91279
52 2 7.09556 8.86945 1.77389 -6.91008
67 1 5.32167 10.6433 1.77389 -8.50786
69 1 7.09556 10.6433 0 -8.56362
146 3 5.32167 8.86945 3.54778 -6.32771
169 3 7.09556 10.6433 3.54778 -6.38489
50 1 8.86945 8.86945 0 -8.4729
56 2 10.6433 8.86945 1.77389 -6.99012
71 3 8.86945 10.6433 1.77389 -6.34497
73 1 10.6433 10.6433 0 -8.50834
150 1 8.86945 8.86945 3.54778 -8.54216
173 2 10.6433 10.6433 3.54778 -6.9941
54 2 12.4172 8.86945 0 -7.00349
60 1 14.1911 8.86945 1.77389 -8.5445
75 1 12.4172 10.6433 1.77389 -8.34704
77 2 14.1911 10.6433 0 -6.94346
154 3 12.4172 8.86945 3.54778 -6.29002
177 2 14.1911 10.6433 3.54778 -6.97412
58 2 15.965 8.86945 0 -6.95472
79 1 15.965 10.6433 1.77389 -8.61763
158 3 15.965 8.86945 3.54778 -6.28489
62 2 1.77389 12.4172 0 -7.05225
64 3 0 12.4172 1.77389 -6.13675
68 1 3.54778 12.4172 1.77389 -8.09725
81 1 0 14.1911 0 -8.32587
83 1 1.77389 14.1911 1.77389 -8.23556
85 2 3.54778 14.1911 0 -6.96295
162 2 1.77389 12.4172 3.54778 -6.99667
181 1 0 14.1911 3.54778 -8.40104
185 2 3.54778 14.1911 3.54778 -6.9914
66 2 5.32167 12.4172 0 -7.04297
72 3 7.09556 12.4172 1.77389 -6.4056
87 1 5.32167 14.1911 1.77389 -8.55948
89 2 7.09556 14.1911 0 -6.91538
166 2 5.32167 12.4172 3.54778 -6.95768
189 2 7.09556 14.1911 3.54778 -6.8964
70 2 8.86945 12.4172 0 -6.93826
76 2 10.6433 12.4172 1.77389 -7.05027
91 3 8.86945 14.1911 1.77389 -6.41946
93 1 10.6433 14.1911 0 -8.58911
170 1 8.86945 12.4172 3.54778 -8.73452
193 2 10.6433 14.1911 3.54778 -6.98427
74 2 12.4172 12.4172 0 -6.99341
80 3 14.1911 12.4172 1.77389 -6.28028
95 1 12.4172 14.1911 1.77389 -8.28901
97 1 14.1911 14.1911 0 -8.42723
174 1 12.4172 12.4172 3.54778 -8.44613
197 2 14.1911 14.1911 3.54778 -7.0383
78 3 15.965 12.4172 0 -6.24225
99 1 15.965 14.1911 1.77389 -8.44766
178 2 15.965 12.4172 3.54778 -6.89832
82 2 1.77389 15.965 0 -7.02103
84 3 0 15.965 1.77389 -6.27982
88 1 3.54778 15.965 1.77389 -8.35989
182 2 1.77389 15.965 3.54778 -7.02811
86 3 5.32167 15.965 0 -6.19384
92 3 7.09556 15.965 1.77389 -6.31028
186 3 5.32167 15.965 3.54778 -6.24936
90 1 8.86945 15.965 0 -8.93702
96 2 10.6433 15.965 1.77389 -6.94852
190 1 8.86945 15.965 3.54778 -8.64512
94 2 12.4172 15.965 0 -6.9711
100 2 14.1911 15.965 1.77389 -7.08918
194 2 12.4172 15.965 3.54778 -7.00662
98 2 15.965 15.965 0 -6.98872
198 1 15.965 15.965 3.54778 -8.53674
103 2 1.77389 0 5.32167 -6.91868
104 3 0 1.77389 5.32167 -6.31762
108 3 3.54778 1.77389 5.32167 -6.36657
123 2 1.77389 3.54778 5.32167 -6.93472
201 3 0 0 7.09556 -6.18368
202 1 1.77389 1.77389 7.09556 -8.5704
203 3 3.54778 0 7.09556 -6.28863
211 2 0 3.54778 7.09556 -6.93616
213 2 3.54778 3.54778 7.09556 -6.93248
107 3 5.32167 0 5.32167 -6.3053
112 3 7.09556 1.77389 5.32167 -6.31283
127 1 5.32167 3.54778 5.32167 -8.82742
204 3 5.32167 1.77389 7.09556 -6.33346
205 1 7.09556 0 7.09556 -8.77867
215 3 7.09556 3.54778 7.09556 -6.25175
111 2 8.86945 0 5.32167 -6.95804
116 2 10.6433 1.77389 5.32167 -6.98346
131 2 8.86945 3.54778 5.32167 -6.9309
206 1 8.86945 1.77389 7.09556 -8.58134
207 2 10.6433 0 7.09556 -6.96653
217 2 10.6433 3.54778 7.09556 -6.9477
115 1 12.4172 0 5.32167 -8.70528
120 3 14.1911 1.77389 5.32167 -6.33384
135 1 12.4172 3.54778 5.32167 -8.51806
208 3 12.4172 1.77389 7.09556 -6.39505
209 1 14.1911 0 7.09556 -8.63603
219 2 14.1911 3.54778 7.09556 -6.94354
119 3 15.965 0 5.32167 -6.39419
139 2 15.965 3.54778 5.32167 -6.9299
210 1 15.965 1.77389 7.09556 -8.61402
124 1 0 5.32167 5.32167 -8.42073
128 1 3.54778 5.32167 5.32167 -8.67981
143 1 1.77389 7.09556 5.32167 -8.35911
212 2 1.77389 5.32167 7.09556 -6.95782
221 2 0 7.09556 7.09556 -6.97246
223 3 3.54778 7.09556 7.09556 -6.27685
132 2 7.09556 5.32167 5.32167 -6.89487
147 3 5.32167 7.09556 5.32167 -6.40766
214 3 5.32167 5.32167 7.09556 -6.36875
225 3 7.09556 7.09556 7.09556 -6.40633
136 2 10.6433 5.32167 5.32167 -7.0406
151 2 8.86945 7.09556 5.32167 -6.92715
216 1 8.86945 5.32167 7.09556 -8.77158
227 3 10.6433 7.09556 7.09556 -6.36297
140 1 14.1911 5.32167 5.32167 -8.38705
155 1 12.4172 7.09556 5.32167 -8.45607
218 2 12.4172 5.32167 7.09556 -6.89908
229 3 14.1911 7.09556 7.09556 -6.26104
159 3 15.965 7.09556 5.32167 -6.39787
220 1 15.965 5.32167 7.09556 -8.74338
144 1 0 8.86945 5.32167 -8.60274
148 1 3.54778 8.86945 5.32167 -8.81561
163 3 1.77389 10.6433 5.32167 -6.33728
222 2 1.77389 8.86945 7.09556 -6.91671
231 3 0 10.6433 7.09556 -6.32499
233 3 3.54778 10.6433 7.09556 -6.32417
152 1 7.09556 8.86945 5.32167 -8.66419
167 2 5.32167 10.6433 5.32167 -6.91505
224 2 5.32167 8.86945 7.09556 -6.90638
235 2 7.09556 10.6433 7.09556 -6.9328
156 2 10.6433 8.86945 5.32167 -6.98854
171 2 8.86945 10.6433 5.32167 -6.96835
226 1 8.86945 8.86945 7.09556 -8.50448
237 1 10.6433 10.6433 7.09556 -8.37452
160 1 14.1911 8.86945 5.32167 -8.72217
175 2 12.4172 10.6433 5.32167 -7.03358
228 2 12.4172 8.86945 7.09556 -6.96186
239 3 14.1911 10.6433 7.09556 -6.45173
179 1 15.965 10.6433 5.32167 -8.68179
230 3 15.965 8.86945 7.09556 -6.35904
164 1 0 12.4172 5.32167 -8.54679
168 1 3.54778 12.4172 5.32167 -8.44519
183 1 1.77389 14.1911 5.32167 -8.12535
232 3 1.77389 12.4172 7.09556 -6.2804
241 2 0 14.1911 7.09556 -6.95016
243 2 3.54778 14.1911 7.09556 -7.01571
172 3 7.09556 12.4172 5.32167 -6.27818
187 1 5.32167 14.1911 5.32167 -8.45748
234 1 5.32167 12.4172 7.09556 -8.38628
245 3 7.09556 14.1911 7.09556 -6.16003
176 2 10.6433 12.4172 5.32167 -7.08776
191 1 8.86945 14.1911 5.32167 -8.26686
236 1 8.86945 12.4172 7.09556 -8.43747
247 1 10.6433 14.1911 7.09556 -8.39776
180 2 14.1911 12.4172 5.32167 -7.03564
195 2 12.4172 14.1911 5.32167 -7.06824
238 2 12.4172 12.4172 7.09556 -7.09267
249 1 14.1911 14.1911 7.09556 -8.70187
199 3 15.965 14.1911 5.32167 -6.4655
240 3 15.965 12.4172 7.09556 -6.37591
184 2 0 15.965 5.32167 -6.99704
188 1 3.54778 15.965 5.32167 -8.31522
242 1 1.77389 15.965 7.09556 -8.15499
192 2 7.09556 15.965 5.32167 -6.91299
244 2 5.32167 15.965 7.09556 -6.90678
196 3 10.6433 15.965 5.32167 -6.32849
246 1 8.86945 15.965 7.09556 -8.59245
200 2 14.1911 15.965 5.32167 -7.03352
248 2 12.4172 15.965 7.09556 -6.98828
250 2 15.965 15.965 7.09556 -6.97339
251 1 1.77389 0 8.86945 -8.49711
252 3 0 1.77389 8.86945 -6.25397
254 1 3.54778 1.77389 8.86945 -8.4122
261 1 1.77389 3.54778 8.86945 -8.4235
301 3 0 0 10.6433 -6.21299
302 3 1.77389 1.77389 10.6433 -6.18074
303 1 1.77389 0 12.4172 -8.86773
304 3 0 1.77389 12.4172 -6.36887
305 2 3.54778 0 10.6433 -6.85272
308 1 3.54778 1.77389 12.4172 -8.69305
321 3 0 3.54778 10.6433 -6.30544
323 1 1.77389 3.54778 12.4172 -8.843
325 2 3.54778 3.54778 10.6433 -6.91578
253 3 5.32167 0 8.86945 -6.41407
256 3 7.09556 1.77389 8.86945 -6.32059
263 1 5.32167 3.54778 8.86945 -8.52899
306 2 5.32167 1.77389 10.6433 -6.92366
307 3 5.32167 0 12.4172 -6.53435
309 3 7.09556 0 10.6433 -6.4842
312 2 7.09556 1.77389 12.4172 -6.90833
327 3 5.32167 3.54778 12.4172 -6.37832
329 2 7.09556 3.54778 10.6433 -6.89533
255 3 8.86945 0 8.86945 -6.34022
258 3 10.6433 1.77389 8.86945 -6.40833
265 1 8.86945 3.54778 8.86945 -8.46758
310 1 8.86945 1.77389 10.6433 -8.71617
311 3 8.86945 0 12.4172 -6.37273
313 2 10.6433 0 10.6433 -6.91288
316 1 10.6433 1.77389 12.4172 -8.68829
331 3 8.86945 3.54778 12.4172 -6.33268
333 3 10.6433 3.54778 10.6433 -6.24061
257 2 12.4172 0 8.86945 -6.95365
260 2 14.1911 1.77389 8.86945 -6.94076
267 1 12.4172 3.54778 8.86945 -8.7508
314 3 12.4172 1.77389 10.6433 -6.40784
315 3 12.4172 0 12.4172 -6.41401
317 2 14.1911 0 10.6433 -6.93928
320 1 14.1911 1.77389 12.4172 -8.65186
335 3 12.4172 3.54778 12.4172 -6.29514
337 1 14.1911 3.54778 10.6433 -8.73167
259 1 15.965 0 8.86945 -8.5392
269 3 15.965 3.54778 8.86945 -6.42452
318 2 15.965 1.77389 10.6433 -6.89336
319 3 15.965 0 12.4172 -6.33951
339 3 15.965 3.54778 12.4172 -6.32549
262 1 0 5.32167 8.86945 -8.63312
264 1 3.54778 5.32167 8.86945 -8.43235
271 1 1.77389 7.09556 8.86945 -8.56339
322 3 1.77389 5.32167 10.6433 -6.19839
324 3 0 5.32167 12.4172 -6.40302
328 3 3.54778 5.32167 12.4172 -6.35887
341 3 0 7.09556 10.6433 -6.35344
343 1 1.77389 7.09556 12.4172 -8.78343
345 3 3.54778 7.09556 10.6433 -6.30027
266 3 7.09556 5.32167 8.86945 -6.281
273 3 5.32167 7.09556 8.86945 -6.43487
326 1 5.32167 5.32167 10.6433 -8.72336
332 2 7.09556 5.32167 12.4172 -6.8726
347 3 5.32167 7.09556 12.4172 -6.29154
349 3 7.09556 7.09556 10.6433 -6.36905
268 3 10.6433 5.32167 8.86945 -6.28496
275 3 8.86945 7.09556 8.86945 -6.4116
330 1 8.86945 5.32167 10.6433 -8.71816
336 1 10.6433 5.32167 12.4172 -8.5519
351 3 8.86945 7.09556 12.4172 -6.39145
353 2 10.6433 7.09556 10.6433 -6.9578
270 3 14.1911 5.32167 8.86945 -6.40644
277 1 12.4172 7.09556 8.86945 -8.70839
334 2 12.4172 5.32167 10.6433 -6.85477
340 3 14.1911 5.32167 12.4172 -6.3133
355 1 12.4172 7.09556 12.4172 -8.29517
357 2 14.1911 7.09556 10.6433 -6.89012
279 3 15.965 7.09556 8.86945 -6.42937
338 3 15.965 5.32167 10.6433 -6.33728
359 1 15.965 7.09556 12.4172 -8.33043
272 2 0 8.86945 8.86945 -6.91552
274 2 3.54778 8.86945 8.86945 -6.90863
281 1 1.77389 10.6433 8.86945 -8.65738
342 2 1.77389 8.86945 10.6433 -6.92377
344 3 0 8.86945 12.4172 -6.35214
348 2 3.54778 8.86945 12.4172 -6.98245
361 1 0 10.6433 10.6433 -8.51267
363 2 1.77389 10.6433 12.4172 -6.96247
365 3 3.54778 10.6433 10.6433 -6.41941
276 2 7.09556 8.86945 8.86945 -6.92679
283 1 5.32167 10.6433 8.86945 -8.51286
346 1 5.32167 8.86945 10.6433 -8.65785
352 2 7.09556 8.86945 12.4172 -6.94322
367 2 5.32167 10.6433 12.4172 -6.98379
369 1 7.09556 10.6433 10.6433 -8.38597
278 3 10.6433 8.86945 8.86945 -6.42968
285 1 8.86945 10.6433 8.86945 -8.29062
350 3 8.86945 8.86945 10.6433 -6.47353
356 1 10.6433 8.86945 12.4172 -8.7225
371 2 8.86945 10.6433 12.4172 -6.93778
373 2 10.6433 10.6433 10.6433 -7.00181
280 1 14.1911 8.86945 8.86945 -8.58963
287 2 12.4172 10.6433 8.86945 -7.06882
354 2 12.4172 8.86945 10.6433 -7.02481
360 1 14.1911 8.86945 12.4172 -8.35732
375 3 12.4172 10.6433 12.4172 -6.32474
377 2 14.1911 10.6433 10.6433 -6.99594
289 1 15.965 10.6433 8.86945 -8.67154
358 3 15.965 8.86945 10.6433 -6.19146
379 1 15.965 10.6433 12.4172 -8.25201
282 2 0 12.4172 8.86945 -6.95119
284 2 3.54778 12.4172 8.86945 -6.87417
291 1 1.77389 14.1911 8.86945 -8.38731
362 2 1.77389 12.4172 10.6433 -7.06438
364 1 0 12.4172 12.4172 -8.50301
368 1 3.54778 12.4172 12.4172 -8.48932
381 1 0 14.1911 10.6433 -8.2841
383 1 1.77389 14.1911 12.4172 -8.19554
385 2 3.54778 14.1911 10.6433 -6.96897
286 3 7.09556 12.4172 8.86945 -6.1171
293 1 5.32167 14.1911 8.86945 -8.59283
366 3 5.32167 12.4172 10.6433 -6.29376
372 3 7.09556 12.4172 12.4172 -6.36219
387 1 5.32167 14.1911 12.4172 -8.70135
389 3 7.09556 14.1911 10.6433 -6.30544
288 2 10.6433 12.4172 8.86945 -7.04388
295 3 8.86945 14.1911 8.86945 -6.20936
370 1 8.86945 12.4172 10.6433 -8.37459
376 1 10.6433 12.4172 12.4172 -8.56454
391 2 8.86945 14.1911 12.4172 -6.91578
393 1 10.6433 14.1911 10.6433 -8.47634
290 2 14.1911 12.4172 8.86945 -7.03732
297 2 12.4172 14.1911 8.86945 -6.98993
374 2 12.4172 12.4172 10.6433 -7.0503
380 1 14.1911 12.4172 12.4172 -8.42183
395 3 12.4172 14.1911 12.4172 -6.36523
397 1 14.1911 14.1911 10.6433 -8.59292
299 2 15.965 14.1911 8.86945 -6.95919
378 2 15.965 12.4172 10.6433 -6.97877
399 1 15.965 14.1911 12.4172 -8.6127
292 3 0 15.965 8.86945 -6.24326
294 1 3.54778 15.965 8.86945 -8.23902
382 2 1.77389 15.965 10.6433 -6.95747
384 2 0 15.965 12.4172 -6.93065
388 1 3.54778 15.965 12.4172 -8.61533
296 3 7.09556 15.965 8.86945 -6.27316
386 2 5.32167 15.965 10.6433 -6.86193
392 3 7.09556 15.965 12.4172 -6.311
298 2 10.6433 15.965 8.86945 -6.9754
390 1 8.86945 15.965 10.6433 -8.57458
396 2 10.6433 15.965 12.4172 -6.95725
300 3 14.1911 15.965 8.86945 -6.50776
394 3 12.4172 15.965 10.6433 -6.38637
400 3 14.1911 15.965 12.4172 -6.24386
398 3 15.965 15.965 10.6433 -6.3624
401 2 0 0 14.1911 -7.01579
402 3 1.77389 1.77389 14.1911 -6.32871
403 2 1.77389 0 15.965 -6.94882
404 1 0 1.77389 15.965 -8.57957
405 3 3.54778 0 14.1911 -6.37562
408 1 3.54778 1.77389 15.965 -8.92907
421 2 0 3.54778 14.1911 -6.92404
423 2 1.77389 3.54778 15.965 -6.9375
425 3 3.54778 3.54778 14.1911 -6.309
406 3 5.32167 1.77389 14.1911 -6.36706
407 3 5.32167 0 15.965 -6.4698
409 1 7.09556 0 14.1911 -8.82907
412 2 7.09556 1.77389 15.965 -6.94813
427 3 5.32167 3.54778 15.965 -6.43256
429 1 7.09556 3.54778 14.1911 -8.57495
410 2 8.86945 1.77389 14.1911 -6.91067
411 3 8.86945 0 15.965 -6.33338
413 1 10.6433 0 14.1911 -8.61423
416 3 10.6433 1.77389 15.965 -6.34203
431 1 8.86945 3.54778 15.965 -8.56429
433 3 10.6433 3.54778 14.1911 -6.3517
414 2 12.4172 1.77389 14.1911 -6.87905
415 2 12.4172 0 15.965 -6.87773
417 1 14.1911 0 14.1911 -8.89027
420 3 14.1911 1.77389 15.965 -6.38021
435 1 12.4172 3.54778 15.965 -8.63254
437 2 14.1911 3.54778 14.1911 -6.8495
418 3 15.965 1.77389 14.1911 -6.30248
419 3 15.965 0 15.965 -6.44078
439 1 15.965 3.54778 15.965 -8.82123
422 2 1.77389 5.32167 14.1911 -6.94404
424 1 0 5.32167 15.965 -8.69154
428 1 3.54778 5.32167 15.965 -8.56989
441 2 0 7.09556 14.1911 -6.93708
443 2 1.77389 7.09556 15.965 -6.98297
445 2 3.54778 7.09556 14.1911 -6.9732
426 1 5.32167 5.32167 14.1911 -8.49141
432 2 7.09556 5.32167 15.965 -6.98203
447 2 5.32167 7.09556 15.965 -7.04046
449 1 7.09556 7.09556 14.1911 -8.59999
430 2 8.86945 5.32167 14.1911 -6.93996
436 2 10.6433 5.32167 15.965 -6.90307
451 3 8.86945 7.09556 15.965 -6.35704
453 2 10.6433 7.09556 14.1911 -6.898
434 1 12.4172 5.32167 14.1911 -8.59226
440 3 14.1911 5.32167 15.965 -6.32875
455 3 12.4172 7.09556 15.965 -6.26218
457 3 14.1911 7.09556 14.1911 -6.22711
438 1 15.965 5.32167 14.1911 -8.57182
459 2 15.965 7.09556 15.965 -6.90096
442 1 1.77389 8.86945 14.1911 -8.5185
444 2 0 8.86945 15.965 -6.8796
448 2 3.54778 8.86945 15.965 -7.01991
461 3 0 10.6433 14.1911 -6.29989
463 1 1.77389 10.6433 15.965 -8.30823
465 2 3.54778 10.6433 14.1911 -7.06374
446 1 5.32167 8.86945 14.1911 -8.4624
452 2 7.09556 8.86945 15.965 -6.94998
467 2 5.32167 10.6433 15.965 -7.03313
469 1 7.09556 10.6433 14.1911 -8.74478
450 3 8.86945 8.86945 14.1911 -6.3613
456 1 10.6433 8.86945 15.965 -8.59686
471 3 8.86945 10.6433 15.965 -6.34423
473 2 10.6433 10.6433 14.1911 -6.86324
454 3 12.4172 8.86945 14.1911 -6.11128
460 1 14.1911 8.86945 15.965 -8.44633
475 1 12.4172 10.6433 15.965 -8.20948
477 1 14.1911 10.6433 14.1911 -8.27045
458 2 15.965 8.86945 14.1911 -7.01336
479 2 15.965 10.6433 15.965 -6.86614
462 2 1.77389 12.4172 14.1911 -6.99787
464 1 0 12.4172 15.965 -8.4767
468 1 3.54778 12.4172 15.965 -8.34105
481 2 0 14.1911 14.1911 -6.98254
483 1 1.77389 14.1911 15.965 -8.37498
485 2 3.54778 14.1911 14.1911 -6.99744
466 2 5.32167 12.4172 14.1911 -6.9751
472 3 7.09556 12.4172 15.965 -6.34552
487 1 5.32167 14.1911 15.965 -8.53702
489 3 7.09556 14.1911 14.1911 -6.3046
470 3 8.86945 12.4172 14.1911 -6.43006
476 3 10.6433 12.4172 15.965 -6.36508
491 1 8.86945 14.1911 15.965 -8.59368
493 2 10.6433 14.1911 14.1911 -6.95948
474 2 12.4172 12.4172 14.1911 -6.94701
480 2 14.1911 12.4172 15.965 -6.87674
495 1 12.4172 14.1911 15.965 -8.56348
497 3 14.1911 14.1911 14.1911 -6.2371
478 3 15.965 12.4172 14.1911 -6.24217
499 1 15.965 14.1911 15.965 -8.86042
482 2 1.77389 15.965 14.1911 -6.98214
484 3 0 15.965 15.965 -6.48943
488 1 3.54778 15.965 15.965 -8.51525
486 3 5.32167 15.965 14.1911 -6.27567
492 3 7.09556 15.965 15.965 -6.23674
490 1 8.86945 15.965 14.1911 -8.51946
496 3 10.6433 15.965 15.965 -6.2784
494 1 12.4172 15.965 14.1911 -8.56742
500 2 14.1911 15.965 15.965 -6.94242
498 1 15.965 15.965 14.1911 -8.49227
501 2 0 0 17.7389 -7.05871
502 2 1.77389 1.77389 17.7389 -7.08282
503 1 1.77389 0 19.5128 -8.73762
504 2 0 1.77389 19.5128 -7.0378
505 3 3.54778 0 17.7389 -6.47166
508 2 3.54778 1.77389 19.5128 -7.03242
521 2 0 3.54778 17.7389 -7.04093
523 1 1.77389 3.54778 19.5128 -8.42615
525 2 3.54778 3.54778 17.7389 -6.97988
601 2 0 0 21.2867 -7.01786
602 2 1.77389 1.77389 21.2867 -7.0622
605 2 3.54778 0 21.2867 -7.02207
621 2 0 3.54778 21.2867 -7.02905
625 1 3.54778 3.54778 21.2867 -8.4344
506 2 5.32167 1.77389 17.7389 -7.0297
507 1 5.32167 0 19.5128 -8.56763
509 1 7.09556 0 17.7389 -8.65296
512 3 7.09556 1.77389 19.5128 -6.36473
527 1 5.32167 3.54778 19.5128 -8.53305
529 2 7.09556 3.54778 17.7389 -6.97233
606 2 5.32167 1.77389 21.2867 -7.00249
609 2 7.09556 0 21.2867 -7.05801
629 2 7.09556 3.54778 21.2867 -6.94149
510 2 8.86945 1.77389 17.7389 -6.9575
511 2 8.86945 0 19.5128 -6.99497
513 1 10.6433 0 17.7389 -8.41562
516 2 10.6433 1.77389 19.5128 -6.96229
531 1 8.86945 3.54778 19.5128 -8.43041
533 3 10.6433 3.54778 17.7389 -6.3328
610 1 8.86945 1.77389 21.2867 -8.3502
613 1 10.6433 0 21.2867 -8.31719
633 1 10.6433 3.54778 21.2867 -8.21218
514 1 12.4172 1.77389 17.7389 -8.50388
515 2 12.4172 0 19.5128 -7.02183
517 3 14.1911 0 17.7389 -6.3707
520 1 14.1911 1.77389 19.5128 -8.5972
535 3 12.4172 3.54778 19.5128 -6.32127
537 2 14.1911 3.54778 17.7389 -6.92728
614 2 12.4172 1.77389 21.2867 -7.01191
617 2 14.1911 0 21.2867 -7.04438
637 2 14.1911 3.54778 21.2867 -6.99698
518 2 15.965 1.77389 17.7389 -6.92168
519 2 15.965 0 19.5128 -7.01385
539 2 15.965 3.54778 19.5128 -6.92515
618 2 15.965 1.77389 21.2867 -7.04856
522 3 1.77389 5.32167 17.7389 -6.39333
524 2 0 5.32167 19.5128 -6.9405
528 2 3.54778 5.32167 19.5128 -6.99777
541 1 0 7.09556 17.7389 -8.68842
543 3 1.77389 7.09556 19.5128 -6.33267
545 1 3.54778 7.09556 17.7389 -8.59089
622 1 1.77389 5.32167 21.2867 -8.46716
641 3 0 7.09556 21.2867 -6.337
645 2 3.54778 7.09556 21.2867 -6.93502
526 3 5.32167 5.32167 17.7389 -6.44644
532 3 7.09556 5.32167 19.5128 -6.33942
547 2 5.32167 7.09556 19.5128 -7.01901
549 1 7.09556 7.09556 17.7389 -8.76173
626 1 5.32167 5.32167 21.2867 -8.55337
649 3 7.09556 7.09556 21.2867 -6.26183
530 2 8.86945 5.32167 17.7389 -6.97694
536 1 10.6433 5.32167 19.5128 -8.48388
551 2 8.86945 7.09556 19.5128 -6.97145
553 1 10.6433 7.09556 17.7389 -8.54042
630 1 8.86945 5.32167 21.2867 -8.2674
653 2 10.6433 7.09556 21.2867 -6.97878
534 3 12.4172 5.32167 17.7389 -6.28086
540 1 14.1911 5.32167 19.5128 -8.74506
555 3 12.4172 7.09556 19.5128 -6.20517
557 1 14.1911 7.09556 17.7389 -8.72479
634 3 12.4172 5.32167 21.2867 -6.30095
657 2 14.1911 7.09556 21.2867 -6.93087
538 3 15.965 5.32167 17.7389 -6.29938
559 3 15.965 7.09556 19.5128 -6.30163
638 2 15.965 5.32167 21.2867 -6.95798
542 3 1.77389 8.86945 17.7389 -6.3036
544 3 0 8.86945 19.5128 -6.29848
548 1 3.54778 8.86945 19.5128 -8.62932
561 1 0 10.6433 17.7389 -8.59867
563 3 1.77389 10.6433 19.5128 -6.35068
565 3 3.54778 10.6433 17.7389 -6.40992
642 3 1.77389 8.86945 21.2867 -6.32574
661 1 0 10.6433 21.2867 -8.85653
665 2 3.54778 10.6433 21.2867 -6.96164
546 2 5.32167 8.86945 17.7389 -7.02861
552 2 7.09556 8.86945 19.5128 -6.99596
567 2 5.32167 10.6433 19.5128 -7.05429
569 1 7.09556 10.6433 17.7389 -8.76807
646 1 5.32167 8.86945 21.2867 -8.35865
669 2 7.09556 10.6433 21.2867 -6.95653
550 3 8.86945 8.86945 17.7389 -6.24602
556 1 10.6433 8.86945 19.5128 -8.23536
571 2 8.86945 10.6433 19.5128 -6.9855
573 1 10.6433 10.6433 17.7389 -8.30729
650 1 8.86945 8.86945 21.2867 -8.34098
673 3 10.6433 10.6433 21.2867 -6.11585
554 2 12.4172 8.86945 17.7389 -6.98118
560 2 14.1911 8.86945 19.5128 -6.86337
575 1 12.4172 10.6433 19.5128 -8.09172
577 1 14.1911 10.6433 17.7389 -8.3885
654 1 12.4172 8.86945 21.2867 -8.25479
677 2 14.1911 10.6433 21.2867 -6.87105
558 3 15.965 8.86945 17.7389 -6.1675
579 3 15.965 10.6433 19.5128 -6.27556
658 1 15.965 8.86945 21.2867 -8.58056
562 2 1.77389 12.4172 17.7389 -6.98801
564 3 0 12.4172 19.5128 -6.39244
568 1 3.54778 12.4172 19.5128 -8.49795
581 2 0 14.1911 17.7389 -6.96985
583 1 1.77389 14.1911 19.5128 -8.50838
585 2 3.54778 14.1911 17.7389 -6.99092
662 2 1.77389 12.4172 21.2867 -6.96982
681 3 0 14.1911 21.2867 -6.35093
685 3 3.54778 14.1911 21.2867 -6.35713
566 2 5.32167 12.4172 17.7389 -7.01828
572 3 7.09556 12.4172 19.5128 -6.46233
587 2 5.32167 14.1911 19.5128 -7.01354
589 1 7.09556 14.1911 17.7389 -8.50622
666 1 5.32167 12.4172 21.2867 -8.64935
689 2 7.09556 14.1911 21.2867 -6.99201
570 2 8.86945 12.4172 17.7389 -6.90459
576 1 10.6433 12.4172 19.5128 -8.42391
591 2 8.86945 14.1911 19.5128 -7.00413
593 2 10.6433 14.1911 17.7389 -6.96151
670 1 8.86945 12.4172 21.2867 -8.71504
693 3 10.6433 14.1911 21.2867 -6.49623
574 2 12.4172 12.4172 17.7389 -6.9951
580 1 14.1911 12.4172 19.5128 -8.59318
595 3 12.4172 14.1911 19.5128 -6.32114
597 3 14.1911 14.1911 17.7389 -6.31387
674 3 12.4172 12.4172 21.2867 -6.32545
697 1 14.1911 14.1911 21.2867 -8.64378
578 3 15.965 12.4172 17.7389 -6.34189
599 3 15.965 14.1911 19.5128 -6.28351
678 2 15.965 12.4172 21.2867 -6.83897
582 2 1.77389 15.965 17.7389 -7.05303
584 2 0 15.965 19.5128 -7.04005
588 1 3.54778 15.965 19.5128 -8.74737
682 2 1.77389 15.965 21.2867 -6.92834
586 3 5.32167 15.965 17.7389 -6.33935
592 2 7.09556 15.965 19.5128 -7.00514
686 2 5.32167 15.965 21.2867 -6.90331
590 1 8.86945 15.965 17.7389 -8.3943
596 2 10.6433 15.965 19.5128 -6.98327
690 1 8.86945 15.965 21.2867 -8.64158
594 1 12.4172 15.965 17.7389 -8.37581
600 1 14.1911 15.965 19.5128 -8.42635
694 2 12.4172 15.965 21.2867 -7.01087
598 3 15.965 15.965 17.7389 -6.42019
698 2 15.965 15.965 21.2867 -6.91217
603 2 1.77389 0 23.0606 -7.05571
604 1 0 1.77389 23.0606 -8.43216
608 3 3.54778 1.77389 23.0606 -6.50472
623 3 1.77389 3.54778 23.0606 -6.33566
701 2 0 0 24.8344 -6.9936
702 2 1.77389 1.77389 24.8344 -7.0323
703 1 1.77389 0 26.6083 -8.47982
704 1 0 1.77389 26.6083 -8.36546
705 2 3.54778 0 24.8344 -7.01321
708 2 3.54778 1.77389 26.6083 -6.98639
721 1 0 3.54778 24.8344 -8.50013
723 3 1.77389 3.54778 26.6083 -6.28169
725 1 3.54778 3.54778 24.8344 -8.78039
607 1 5.32167 0 23.0606 -8.59902
612 2 7.09556 1.77389 23.0606 -7.00979
627 3 5.32167 3.54778 23.0606 -6.39512
706 2 5.32167 1.77389 24.8344 -6.98355
707 1 5.32167 0 26.6083 -8.67152
709 2 7.09556 0 24.8344 -6.93406
712 2 7.09556 1.77389 26.6083 -6.9871
727 3 5.32167 3.54778 26.6083 -6.3671
729 1 7.09556 3.54778 24.8344 -8.36676
611 3 8.86945 0 23.0606 -6.39798
616 2 10.6433 1.77389 23.0606 -7.06725
631 1 8.86945 3.54778 23.0606 -8.02162
710 1 8.86945 1.77389 24.8344 -8.2714
711 1 8.86945 0 26.6083 -8.57235
713 2 10.6433 0 24.8344 -6.91113
716 2 10.6433 1.77389 26.6083 -7.00592
731 1 8.86945 3.54778 26.6083 -8.3669
733 1 10.6433 3.54778 24.8344 -8.17569
615 1 12.4172 0 23.0606 -8.15165
620 2 14.1911 1.77389 23.0606 -7.0093
635 1 12.4172 3.54778 23.0606 -8.37248
714 2 12.4172 1.77389 24.8344 -7.00787
715 1 12.4172 0 26.6083 -8.53846
717 1 14.1911 0 24.8344 -8.178
720 2 14.1911 1.77389 26.6083 -6.94148
735 2 12.4172 3.54778 26.6083 -6.98287
737 2 14.1911 3.54778 24.8344 -6.97518
619 3 15.965 0 23.0606 -6.2822
639 1 15.965 3.54778 23.0606 -8.31009
718 1 15.965 1.77389 24.8344 -8.3327
719 3 15.965 0 26.6083 -6.13829
739 3 15.965 3.54778 26.6083 -6.31446
624 1 0 5.32167 23.0606 -8.55111
628 2 3.54778 5.32167 23.0606 -6.94014
643 3 1.77389 7.09556 23.0606 -6.30426
722 2 1.77389 5.32167 24.8344 -6.93053
724 2 0 5.32167 26.6083 -6.84911
728 3 3.54778 5.32167 26.6083 -6.34236
741 3 0 7.09556 24.8344 -6.38643
743 1 1.77389 7.09556 26.6083 -8.781
745 2 3.54778 7.09556 24.8344 -6.99223
632 2 7.09556 5.32167 23.0606 -6.99914
647 2 5.32167 7.09556 23.0606 -7.0046
726 1 5.32167 5.32167 24.8344 -8.6148
732 3 7.09556 5.32167 26.6083 -6.32695
747 2 5.32167 7.09556 26.6083 -6.89561
749 2 7.09556 7.09556 24.8344 -6.99417
636 2 10.6433 5.32167 23.0606 -7.00841
651 1 8.86945 7.09556 23.0606 -8.30608
730 2 8.86945 5.32167 24.8344 -6.94323
736 2 10.6433 5.32167 26.6083 -7.01497
751 1 8.86945 7.09556 26.6083 -8.70819
753 2 10.6433 7.09556 24.8344 -7.01901
640 3 14.1911 5.32167 23.0606 -6.3131
655 1 12.4172 7.09556 23.0606 -8.37703
734 1 12.4172 5.32167 24.8344 -8.30648
740 2 14.1911 5.32167 26.6083 -6.96046
755 2 12.4172 7.09556 26.6083 -6.97074
757 2 14.1911 7.09556 24.8344 -6.9607
659 1 15.965 7.09556 23.0606 -8.57143
738 3 15.965 5.32167 24.8344 -6.38884
759 3 15.965 7.09556 26.6083 -6.47783
644 1 0 8.86945 23.0606 -8.78772
648 1 3.54778 8.86945 23.0606 -8.47693
663 3 1.77389 10.6433 23.0606 -6.32457
742 2 1.77389 8.86945 24.8344 -6.93197
744 3 0 8.86945 26.6083 -6.37915
748 1 3.54778 8.86945 26.6083 -8.27006
761 1 0 10.6433 24.8344 -8.69301
763 2 1.77389 10.6433 26.6083 -6.9732
765 1 3.54778 10.6433 24.8344 -8.23095
652 1 7.09556 8.86945 23.0606 -8.30488
667 2 5.32167 10.6433 23.0606 -7.04425
746 1 5.32167 8.86945 24.8344 -8.30116
752 3 7.09556 8.86945 26.6083 -6.42921
767 2 5.32167 10.6433 26.6083 -6.98224
769 2 7.09556 10.6433 24.8344 -6.91968
656 1 10.6433 8.86945 23.0606 -8.22997
671 3 8.86945 10.6433 23.0606 -6.38223
750 3 8.86945 8.86945 24.8344 -6.3902
756 2 10.6433 8.86945 26.6083 -6.99103
771 1 8.86945 10.6433 26.6083 -8.84608
773 2 10.6433 10.6433 24.8344 -6.92513
660 3 14.1911 8.86945 23.0606 -6.15403
675 1 12.4172 10.6433 23.0606 -8.50303
754 1 12.4172 8.86945 24.8344 -8.5384
760 3 14.1911 8.86945 26.6083 -6.29593
775 3 12.4172 10.6433 26.6083 -6.27516
777 3 14.1911 10.6433 24.8344 -6.23339
679 1 15.965 10.6433 23.0606 -8.39946
758 2 15.965 8.86945 24.8344 -6.90814
779 2 15.965 10.6433 26.6083 -6.96574
664 2 0 12.4172 23.0606 -6.95085
668 2 3.54778 12.4172 23.0606 -6.99177
683 1 1.77389 14.1911 23.0606 -8.55831
762 2 1.77389 12.4172 24.8344 -7.03616
764 2 0 12.4172 26.6083 -7.03517
768 1 3.54778 12.4172 26.6083 -8.40346
781 3 0 14.1911 24.8344 -6.41507
783 2 1.77389 14.1911 26.6083 -7.00484
785 2 3.54778 14.1911 24.8344 -6.97335
672 3 7.09556 12.4172 23.0606 -6.42029
687 2 5.32167 14.1911 23.0606 -7.01294
766 1 5.32167 12.4172 24.8344 -8.45293
772 3 7.09556 12.4172 26.6083 -6.33473
787 3 5.32167 14.1911 26.6083 -6.23702
789 1 7.09556 14.1911 24.8344 -8.53575
676 3 10.6433 12.4172 23.0606 -6.43542
691 2 8.86945 14.1911 23.0606 -6.99897
770 3 8.86945 12.4172 24.8344 -6.51596
776 2 10.6433 12.4172 26.6083 -6.98043
791 1 8.86945 14.1911 26.6083 -8.81997
793 2 10.6433 14.1911 24.8344 -7.06917
680 3 14.1911 12.4172 23.0606 -6.29846
695 2 12.4172 14.1911 23.0606 -6.97509
774 1 12.4172 12.4172 24.8344 -8.74883
780 3 14.1911 12.4172 26.6083 -6.29027
795 2 12.4172 14.1911 26.6083 -7.0376
797 3 14.1911 14.1911 24.8344 -6.47324
699 3 15.965 14.1911 23.0606 -6.32259
778 1 15.965 12.4172 24.8344 -8.62213
799 2 15.965 14.1911 26.6083 -6.96073
684 1 0 15.965 23.0606 -8.55574
688 1 3.54778 15.965 23.0606 -8.79815
782 3 1.77389 15.965 24.8344 -6.29721
784 1 0 15.965 26.6083 -8.58396
788 1 3.54778 15.965 26.6083 -8.5812
692 1 7.09556 15.965 23.0606 -8.61257
786 2 5.32167 15.965 24.8344 -6.84064
792 3 7.09556 15.965 26.6083 -6.38152
696 2 10.6433 15.965 23.0606 -7.06658
790 3 8.86945 15.965 24.8344 -6.45713
796 2 10.6433 15.965 26.6083 -7.0303
700 3 14.1911 15.965 23.0606 -6.60306
794 2 12.4172 15.965 24.8344 -7.05032
800 1 14.1911 15.965 26.6083 -8.77414
798 3 15.965 15.965 24.8344 -6.45206
801 3 0 0 28.3822 -6.08676
802 2 1.77389 1.77389 28.3822 -6.96809
803 1 1.77389 0 30.1561 -8.49869
804 1 0 1.77389 30.1561 -8.38371
805 3 3.54778 0 28.3822 -6.35604
808 1 3.54778 1.77389 30.1561 -8.57517
821 1 0 3.54778 28.3822 -8.55343