ITEM: TIMESTEP
0
ITEM: NUMBER OF ATOMS
4000
ITEM: BOX BOUNDS pp pp pp
0.0000000000000000e+00 3.6097780000000000e+01
0.0000000000000000e+00 3.6097780000000000e+01
0.0000000000000000e+00 3.6097780000000000e+01
ITEM: ATOMS id type x y z c_peratom
1 2 0 0 0 -7.05321
2 1 1.80489 1.80489 0 -8.26037
3 2 1.80489 0 1.80489 -6.91706
4 3 0 1.80489 1.80489 -6.34951
101 3 0 0 3.60978 -6.38575
102 1 1.80489 1.80489 3.60978 -8.3302
5 2 3.60978 0 0 -7.06318
6 3 5.41467 1.80489 0 -6.5714
7 3 5.41467 0 1.80489 -6.55683
8 3 3.60978 1.80489 1.80489 -6.49079
105 2 3.60978 0 3.60978 -6.98912
106 3 5.41467 1.80489 3.60978 -6.41871
9 2 7.21956 0 0 -7.02514
10 1 9.02445 1.80489 0 -8.03951
11 2 9.02445 0 1.80489 -7.05477
12 1 7.21956 1.80489 1.80489 -8.40904
109 2 7.21956 0 3.60978 -7.00621
110 2 9.02445 1.80489 3.60978 -7.04566
13 2 10.8293 0 0 -6.9848
14 2 12.6342 1.80489 0 -6.97562
15 3 12.6342 0 1.80489 -6.39735
16 1 10.8293 1.80489 1.80489 -8.14093
113 1 10.8293 0 3.60978 -8.06563
114 3 12.6342 1.80489 3.60978 -6.38808
17 1 14.4391 0 0 -8.27427
18 2 16.244 1.80489 0 -7.06083
19 2 16.244 0 1.80489 -7.06837
20 2 14.4391 1.80489 1.80489 -7.03994
117 1 14.4391 0 3.60978 -8.28932
118 3 16.244 1.80489 3.60978 -6.63575
21 1 0 3.60978 0 -7.92845
22 1 1.80489 5.41467 0 -8.15075
23 1 1.80489 3.60978 1.80489 -8.10641
24 1 0 5.41467 1.80489 -8.37818
121 3 0 3.60978 3.60978 -6.32977
122 3 1.80489 5.41467 3.60978 -6.44911
25 3 3.60978 3.60978 0 -6.41543
26 2 5.41467 5.41467 0 -6.90945
27 3 5.41467 3.60978 1.80489 -6.45195
28 1 3.60978 5.41467 1.80489 -8.36782
125 3 3.60978 3.60978 3.60978 -6.33369
126 2 5.41467 5.41467 3.60978 -7.05898
29 3 7.21956 3.60978 0 -6.43146
30 1 9.02445 5.41467 0 -8.17541
31 2 9.02445 3.60978 1.80489 -7.03869
32 1 7.21956 5.41467 1.80489 -8.34512
129 3 7.21956 3.60978 3.60978 -6.51385
130 3 9.02445 5.41467 3.60978 -6.48952
33 1 10.8293 3.60978 0 -8.17204
34 1 12.6342 5.41467 0 -7.9907
35 3 12.6342 3.60978 1.80489 -6.45339
36 2 10.8293 5.41467 1.80489 -7.01345
133 1 10.8293 3.60978 3.60978 -8.29052
134 2 12.6342 5.41467 3.60978 -6.98926
37 2 14.4391 3.60978 0 -7.07122
38 2 16.244 5.41467 0 -7.04769
39 2 16.244 3.60978 1.80489 -7.06715
40 1 14.4391 5.41467 1.80489 -8.32388
137 3 14.4391 3.60978 3.60978 -6.64076
138 3 16.244 5.41467 3.60978 -6.65467
41 3 0 7.21956 0 -6.25647
42 1 1.80489 9.02445 0 -8.31331
43 2 1.80489 7.21956 1.80489 -6.97843
44 3 0 9.02445 1.80489 -6.44689
141 3 0 7.21956 3.60978 -6.57096
142 2 1.80489 9.02445 3.60978 -7.09427
45 3 3.60978 7.21956 0 -6.44721
46 1 5.41467 9.02445 0 -8.46187
47 2 5.41467 7.21956 1.80489 -7.01107
48 2 3.60978 9.02445 1.80489 -7.02622
145 2 3.60978 7.21956 3.60978 -7.15722
146 3 5.41467 9.02445 3.60978 -6.54569
49 3 7.21956 7.21956 0 -6.46719
50 3 9.02445 9.02445 0 -6.31272
51 1 9.02445 7.21956 1.80489 -8.22574
52 3 7.21956 9.02445 1.80489 -6.44912
149 2 7.21956 7.21956 3.60978 -7.02941
150 2 9.02445 9.02445 3.60978 -7.04867
53 1 10.8293 7.21956 0 -8.01112
54 2 12.6342 9.02445 0 -7.15528
55 1 12.6342 7.21956 1.80489 -8.04152
56 1 10.8293 9.02445 1.80489 -8.04039
153 2 10.8293 7.21956 3.60978 -6.99955
154 3 12.6342 9.02445 3.60978 -6.27019
57 2 14.4391 7.21956 0 -7.06299
58 2 16.244 9.02445 0 -7.11309
59 3 16.244 7.21956 1.80489 -6.60243
60 1 14.4391 9.02445 1.80489 -8.32175
157 3 14.4391 7.21956 3.60978 -6.46453
158 3 16.244 9.02445 3.60978 -6.49088
61 1 0 10.8293 0 -8.12309
62 3 1.80489 12.6342 0 -6.35935
63 1 1.80489 10.8293 1.80489 -8.32401
64 3 0 12.6342 1.80489 -6.35871
161 2 0 10.8293 3.60978 -6.97355
162 3 1.80489 12.6342 3.60978 -6.40005
65 3 3.60978 10.8293 0 -6.36957
66 2 5.41467 12.6342 0 -6.94847
67 2 5.41467 10.8293 1.80489 -6.8977
68 1 3.60978 12.6342 1.80489 -8.42836
165 3 3.60978 10.8293 3.60978 -6.48466
166 3 5.41467 12.6342 3.60978 -6.27576
69 3 7.21956 10.8293 0 -6.3688
70 2 9.02445 12.6342 0 -7.08836
71 1 9.02445 10.8293 1.80489 -8.15886
72 1 7.21956 12.6342 1.80489 -8.27115
169 1 7.21956 10.8293 3.60978 -8.18054
170 3 9.02445 12.6342 3.60978 -6.26303
73 1 10.8293 10.8293 0 -7.91497
74 2 12.6342 12.6342 0 -7.15596
75 1 12.6342 10.8293 1.80489 -8.18774
76 1 10.8293 12.6342 1.80489 -8.24969
173 3 10.8293 10.8293 3.60978 -6.21569
174 3 12.6342 12.6342 3.60978 -6.46799
77 2 14.4391 10.8293 0 -7.10067
78 2 16.244 12.6342 0 -7.13061
79 3 16.244 10.8293 1.80489 -6.64767
80 3 14.4391 12.6342 1.80489 -6.67681
177 3 14.4391 10.8293 3.60978 -6.48369
178 2 16.244 12.6342 3.60978 -7.10637
81 1 0 14.4391 0 -8.40299
82 3 1.80489 16.244 0 -6.47948
83 3 1.80489 14.4391 1.80489 -6.36708
84 2 0 16.244 1.80489 -6.90377
181 1 0 14.4391 3.60978 -8.52579
182 3 1.80489 16.244 3.60978 -6.38871
85 3 3.60978 14.4391 0 -6.45039
86 3 5.41467 16.244 0 -6.43884
87 3 5.41467 14.4391 1.80489 -6.35413
88 3 3.60978 16.244 1.80489 -6.50467
185 1 3.60978 14.4391 3.60978 -8.41811
186 3 5.41467 16.244 3.60978 -6.39621
89 2 7.21956 14.4391 0 -7.00249
90 1 9.02445 16.244 0 -8.1713
91 2 9.02445 14.4391 1.80489 -7.03678
92 1 7.21956 16.244 1.80489 -8.22873
189 1 7.21956 14.4391 3.60978 -8.10091
190 1 9.02445 16.244 3.60978 -8.12752
93 2 10.8293 14.4391 0 -7.08478
94 2 12.6342 16.244 0 -7.05462
95 2 12.6342 14.4391 1.80489 -7.09773
96 1 10.8293 16.244 1.80489 -8.11022
193 3 10.8293 14.4391 3.60978 -6.4415
194 2 12.6342 16.244 3.60978 -7.08244
97 1 14.4391 14.4391 0 -8.42538
98 2 16.244 16.244 0 -6.98111
99 2 16.244 14.4391 1.80489 -7.11285
100 3 14.4391 16.244 1.80489 -6.69948
197 2 14.4391 14.4391 3.60978 -7.18701
198 3 16.244 16.244 3.60978 -6.66815
103 3 1.80489 0 5.41467 -6.38094
104 3 0 1.80489 5.41467 -6.34461
201 2 0 0 7.21956 -7.01293
202 2 1.80489 1.80489 7.21956 -6.99165
107 1 5.41467 0 5.41467 -8.11791
108 1 3.60978 1.80489 5.41467 -8.09627
203 3 3.60978 0 7.21956 -6.31364
204 2 5.41467 1.80489 7.21956 -7.01988
111 1 9.02445 0 5.41467 -8.03324
112 3 7.21956 1.80489 5.41467 -6.42491
205 1 7.21956 0 7.21956 -8.04038
206 1 9.02445 1.80489 7.21956 -8.009
115 3 12.6342 0 5.41467 -6.18489
116 1 10.8293 1.80489 5.41467 -7.95527
207 1 10.8293 0 7.21956 -8.01876
208 1 12.6342 1.80489 7.21956 -7.93495
119 1 16.244 0 5.41467 -8.10924
120 2 14.4391 1.80489 5.41467 -6.97814
209 1 14.4391 0 7.21956 -8.10132
210 3 16.244 1.80489 7.21956 -6.44198
123 1 1.80489 3.60978 5.41467 -8.14984
124 2 0 5.41467 5.41467 -6.9658
211 1 0 3.60978 7.21956 -8.38361
212 2 1.80489 5.41467 7.21956 -7.0431
127 1 5.41467 3.60978 5.41467 -8.29779
128 2 3.60978 5.41467 5.41467 -7.03026
213 1 3.60978 3.60978 7.21956 -7.97431
214 2 5.41467 5.41467 7.21956 -7.10753
131 2 9.02445 3.60978 5.41467 -7.05128
132 2 7.21956 5.41467 5.41467 -7.07317
215 2 7.21956 3.60978 7.21956 -7.03645
216 2 9.02445 5.41467 7.21956 -7.06205
135 2 12.6342 3.60978 5.41467 -7.0631
136 3 10.8293 5.41467 5.41467 -6.52632
217 1 10.8293 3.60978 7.21956 -8.11259
218 1 12.6342 5.41467 7.21956 -8.28574
139 2 16.244 3.60978 5.41467 -7.09361
140 3 14.4391 5.41467 5.41467 -6.51091
219 1 14.4391 3.60978 7.21956 -8.07295
220 1 16.244 5.41467 7.21956 -8.1851
143 3 1.80489 7.21956 5.41467 -6.69138
144 3 0 9.02445 5.41467 -6.61165
221 1 0 7.21956 7.21956 -8.44955
222 3 1.80489 9.02445 7.21956 -6.61171
147 1 5.41467 7.21956 5.41467 -8.42687
148 2 3.60978 9.02445 5.41467 -7.09224
223 2 3.60978 7.21956 7.21956 -7.11532
224 2 5.41467 9.02445 7.21956 -7.03922
151 1 9.02445 7.21956 5.41467 -8.41751
152 3 7.21956 9.02445 5.41467 -6.47113
225 3 7.21956 7.21956 7.21956 -6.62316
226 3 9.02445 9.02445 7.21956 -6.41838
155 3 12.6342 7.21956 5.41467 -6.43272
156 1 10.8293 9.02445 5.41467 -8.201
227 2 10.8293 7.21956 7.21956 -6.99274
228 1 12.6342 9.02445 7.21956 -8.19823
159 3 16.244 7.21956 5.41467 -6.46994
160 3 14.4391 9.02445 5.41467 -6.39103
229 3 14.4391 7.21956 7.21956 -6.25157
230 1 16.244 9.02445 7.21956 -8.34062
163 2 1.80489 10.8293 5.41467 -6.99509
164 1 0 12.6342 5.41467 -8.22766
231 2 0 10.8293 7.21956 -7.01932
232 1 1.80489 12.6342 7.21956 -8.33574
167 1 5.41467 10.8293 5.41467 -8.34696
168 3 3.60978 12.6342 5.41467 -6.33028
233 1 3.60978 10.8293 7.21956 -8.24084
234 3 5.41467 12.6342 7.21956 -6.28392
171 2 9.02445 10.8293 5.41467 -6.85604
172 1 7.21956 12.6342 5.41467 -8.22137
235 3 7.21956 10.8293 7.21956 -6.39262
236 2 9.02445 12.6342 7.21956 -7.00285
175 1 12.6342 10.8293 5.41467 -8.27134
176 1 10.8293 12.6342 5.41467 -8.37558
237 1 10.8293 10.8293 7.21956 -8.08685
238 2 12.6342 12.6342 7.21956 -7.0501
179 3 16.244 10.8293 5.41467 -6.47473
180 2 14.4391 12.6342 5.41467 -7.05993
239 3 14.4391 10.8293 7.21956 -6.35246
240 1 16.244 12.6342 7.21956 -8.34369
183 3 1.80489 14.4391 5.41467 -6.38795
184 3 0 16.244 5.41467 -6.36474
241 2 0 14.4391 7.21956 -6.91362
242 1 1.80489 16.244 7.21956 -8.37005
187 1 5.41467 14.4391 5.41467 -8.3367
188 2 3.60978 16.244 5.41467 -6.86927
243 3 3.60978 14.4391 7.21956 -6.41076
244 3 5.41467 16.244 7.21956 -6.43764
191 3 9.02445 14.4391 5.41467 -6.45787
192 2 7.21956 16.244 5.41467 -6.92901
245 2 7.21956 14.4391 7.21956 -6.95271
246 3 9.02445 16.244 7.21956 -6.57211
195 3 12.6342 14.4391 5.41467 -6.70794
196 3 10.8293 16.244 5.41467 -6.57675
247 2 10.8293 14.4391 7.21956 -7.01521
248 2 12.6342 16.244 7.21956 -7.09228
199 2 16.244 14.4391 5.41467 -7.18449
200 2 14.4391 16.244 5.41467 -7.14947
249 2 14.4391 14.4391 7.21956 -7.20833
250 2 16.244 16.244 7.21956 -7.0849
251 1 1.80489 0 9.02445 -8.15251
252 2 0 1.80489 9.02445 -6.98427
301 1 0 0 10.8293 -8.06337
302 3 1.80489 1.80489 10.8293 -6.28186
303 1 1.80489 0 12.6342 -8.10555
304 1 0 1.80489 12.6342 -8.06318
253 3 5.41467 0 9.02445 -6.38219
254 1 3.60978 1.80489 9.02445 -8.30172
305 2 3.60978 0 10.8293 -6.89333
306 3 5.41467 1.80489 10.8293 -6.34738
307 3 5.41467 0 12.6342 -6.41875
308 1 3.60978 1.80489 12.6342 -8.36947
255 2 9.02445 0 9.02445 -7.05033
256 1 7.21956 1.80489 9.02445 -8.13643
309 1 7.21956 0 10.8293 -8.41792
310 3 9.02445 1.80489 10.8293 -6.45225
311 2 9.02445 0 12.6342 -6.98245
312 3 7.21956 1.80489 12.6342 -6.52814
257 3 12.6342 0 9.02445 -6.19217
258 1 10.8293 1.80489 9.02445 -8.16238
313 1 10.8293 0 10.8293 -8.25136
314 3 12.6342 1.80489 10.8293 -6.39144
315 3 12.6342 0 12.6342 -6.38167
316 3 10.8293 1.80489 12.6342 -6.41419
259 3 16.244 0 9.02445 -6.25893
260 1 14.4391 1.80489 9.02445 -8.17247
317 1 14.4391 0 10.8293 -8.26593
318 2 16.244 1.80489 10.8293 -7.08952
319 2 16.244 0 12.6342 -7.11761
320 2 14.4391 1.80489 12.6342 -7.1002
261 3 1.80489 3.60978 9.02445 -6.39563
262 3 0 5.41467 9.02445 -6.39728
321 1 0 3.60978 10.8293 -8.13635
322 2 1.80489 5.41467 10.8293 -6.99322
323 1 1.80489 3.60978 12.6342 -8.10583
324 2 0 5.41467 12.6342 -6.98949
263 1 5.41467 3.60978 9.02445 -8.19056
264 1 3.60978 5.41467 9.02445 -8.27115
325 3 3.60978 3.60978 10.8293 -6.32633
326 3 5.41467 5.41467 10.8293 -6.5747
327 3 5.41467 3.60978 12.6342 -6.46445
328 3 3.60978 5.41467 12.6342 -6.50603
265 3 9.02445 3.60978 9.02445 -6.40298
266 3 7.21956 5.41467 9.02445 -6.62491
329 3 7.21956 3.60978 10.8293 -6.46551
330 1 9.02445 5.41467 10.8293 -8.54593
331 2 9.02445 3.60978 12.6342 -6.91228
332 3 7.21956 5.41467 12.6342 -6.53597
267 2 12.6342 3.60978 9.02445 -7.10147
268 2 10.8293 5.41467 9.02445 -6.96551
333 3 10.8293 3.60978 10.8293 -6.45071
334 1 12.6342 5.41467 10.8293 -8.14859
335 1 12.6342 3.60978 12.6342 -8.18644
336 2 10.8293 5.41467 12.6342 -6.93625
269 2 16.244 3.60978 9.02445 -7.15893
270 1 14.4391 5.41467 9.02445 -8.01462
337 2 14.4391 3.60978 10.8293 -7.08239
338 1 16.244 5.41467 10.8293 -7.97802
339 1 16.244 3.60978 12.6342 -8.12335
340 1 14.4391 5.41467 12.6342 -7.93629
271 2 1.80489 7.21956 9.02445 -7.06607
272 3 0 9.02445 9.02445 -6.51511
341 3 0 7.21956 10.8293 -6.45885
342 1 1.80489 9.02445 10.8293 -8.17143
343 2 1.80489 7.21956 12.6342 -7.02694
344 1 0 9.02445 12.6342 -8.0738
273 2 5.41467 7.21956 9.02445 -7.09468
274 2 3.60978 9.02445 9.02445 -7.0865
345 2 3.60978 7.21956 10.8293 -7.08176
346 3 5.41467 9.02445 10.8293 -6.54197
347 2 5.41467 7.21956 12.6342 -6.94108
348 1 3.60978 9.02445 12.6342 -8.2013
275 2 9.02445 7.21956 9.02445 -7.04516
276 3 7.21956 9.02445 9.02445 -6.58909
349 2 7.21956 7.21956 10.8293 -7.0554
350 2 9.02445 9.02445 10.8293 -6.96429
351 3 9.02445 7.21956 12.6342 -6.51939
352 1 7.21956 9.02445 12.6342 -8.54363
277 3 12.6342 7.21956 9.02445 -6.23875
278 1 10.8293 9.02445 9.02445 -8.22524
353 3 10.8293 7.21956 10.8293 -6.45646
354 3 12.6342 9.02445 10.8293 -6.32243
355 2 12.6342 7.21956 12.6342 -6.99198
356 1 10.8293 9.02445 12.6342 -8.49018
279 2 16.244 7.21956 9.02445 -7.06307
280 1 14.4391 9.02445 9.02445 -8.16271
357 1 14.4391 7.21956 10.8293 -8.04075
358 1 16.244 9.02445 10.8293 -8.03359
359 3 16.244 7.21956 12.6342 -6.26673
360 3 14.4391 9.02445 12.6342 -6.35179
281 2 1.80489 10.8293 9.02445 -6.97764
282 3 0 12.6342 9.02445 -6.49292
361 2 0 10.8293 10.8293 -7.05248
362 2 1.80489 12.6342 10.8293 -6.97446
363 1 1.80489 10.8293 12.6342 -8.11523
364 2 0 12.6342 12.6342 -7.1505
283 1 5.41467 10.8293 9.02445 -8.40697
284 3 3.60978 12.6342 9.02445 -6.3352
365 1 3.60978 10.8293 10.8293 -8.27069
366 3 5.41467 12.6342 10.8293 -6.29456
367 3 5.41467 10.8293 12.6342 -6.39486
368 3 3.60978 12.6342 12.6342 -6.34361
285 1 9.02445 10.8293 9.02445 -8.23651
286 3 7.21956 12.6342 9.02445 -6.38704
369 2 7.21956 10.8293 10.8293 -6.91246
370 1 9.02445 12.6342 10.8293 -8.25917
371 3 9.02445 10.8293 12.6342 -6.42897
372 1 7.21956 12.6342 12.6342 -8.40983
287 3 12.6342 10.8293 9.02445 -6.38496
288 3 10.8293 12.6342 9.02445 -6.43898
373 1 10.8293 10.8293 10.8293 -8.21117
374 3 12.6342 12.6342 10.8293 -6.5527
375 2 12.6342 10.8293 12.6342 -6.9499
376 3 10.8293 12.6342 12.6342 -6.43567
289 1 16.244 10.8293 9.02445 -8.02613
290 2 14.4391 12.6342 9.02445 -7.08285
377 3 14.4391 10.8293 10.8293 -6.48482
378 2 16.244 12.6342 10.8293 -7.06064
379 1 16.244 10.8293 12.6342 -8.22061
380 2 14.4391 12.6342 12.6342 -7.13129
291 3 1.80489 14.4391 9.02445 -6.47534
292 2 0 16.244 9.02445 -6.97648
381 1 0 14.4391 10.8293 -8.29687
382 3 1.80489 16.244 10.8293 -6.4663
383 1 1.80489 14.4391 12.6342 -8.15986
384 2 0 16.244 12.6342 -7.0375
293 1 5.41467 14.4391 9.02445 -8.50342
294 2 3.60978 16.244 9.02445 -6.9859
385 1 3.60978 14.4391 10.8293 -8.29464
386 2 5.41467 16.244 10.8293 -6.99097
387 1 5.41467 14.4391 12.6342 -8.29365
388 3 3.60978 16.244 12.6342 -6.28333
295 3 9.02445 14.4391 9.02445 -6.47871
296 3 7.21956 16.244 9.02445 -6.49269
389 3 7.21956 14.4391 10.8293 -6.38063
390 1 9.02445 16.244 10.8293 -8.33472
391 3 9.02445 14.4391 12.6342 -6.3977
392 2 7.21956 16.244 12.6342 -6.93173
297 2 12.6342 14.4391 9.02445 -7.15444
298 3 10.8293 16.244 9.02445 -6.50304
393 1 10.8293 14.4391 10.8293 -8.34289
394 1 12.6342 16.244 10.8293 -8.30821
395 3 12.6342 14.4391 12.6342 -6.48552
396 3 10.8293 16.244 12.6342 -6.37332
299 3 16.244 14.4391 9.02445 -6.62004
300 2 14.4391 16.244 9.02445 -7.16826
397 2 14.4391 14.4391 10.8293 -7.11277
398 2 16.244 16.244 10.8293 -7.08175
399 2 16.244 14.4391 12.6342 -7.04536
400 3 14.4391 16.244 12.6342 -6.51876
401 2 0 0 14.4391 -6.9216
402 1 1.80489 1.80489 14.4391 -8.17672
403 3 1.80489 0 16.244 -6.37147
404 3 0 1.80489 16.244 -6.34302
405 3 3.60978 0 14.4391 -6.2616
406 3 5.41467 1.80489 14.4391 -6.44668
407 1 5.41467 0 16.244 -8.25837
408 1 3.60978 1.80489 16.244 -8.13548
409 2 7.21956 0 14.4391 -6.89516
410 1 9.02445 1.80489 14.4391 -8.44198
411 3 9.02445 0 16.244 -6.38619
412 2 7.21956 1.80489 16.244 -6.90374
413 3 10.8293 0 14.4391 -6.26918
414 1 12.6342 1.80489 14.4391 -8.16936
415 1 12.6342 0 16.244 -8.09259
416 1 10.8293 1.80489 16.244 -8.1698
417 2 14.4391 0 14.4391 -7.09116
418 2 16.244 1.80489 14.4391 -7.05078
419 1 16.244 0 16.244 -8.18588
420 3 14.4391 1.80489 16.244 -6.26598
421 3 0 3.60978 14.4391 -6.288
422 1 1.80489 5.41467 14.4391 -8.39438
423 3 1.80489 3.60978 16.244 -6.22668
424 2 0 5.41467 16.244 -7.0458
425 2 3.60978 3.60978 14.4391 -6.93171
426 1 5.41467 5.41467 14.4391 -8.42515
427 1 5.41467 3.60978 16.244 -8.36012
428 3 3.60978 5.41467 16.244 -6.33255
429 3 7.21956 3.60978 14.4391 -6.45163
430 3 9.02445 5.41467 14.4391 -6.53055
431 3 9.02445 3.60978 16.244 -6.50357
432 3 7.21956 5.41467 16.244 -6.49842
433 2 10.8293 3.60978 14.4391 -7.06489
434 1 12.6342 5.41467 14.4391 -8.03094
435 1 12.6342 3.60978 16.244 -7.99336
436 1 10.8293 5.41467 16.244 -8.23399
437 2 14.4391 3.60978 14.4391 -7.06312
438 3 16.244 5.41467 14.4391 -6.3693
439 1 16.244 3.60978 16.244 -8.22088
440 2 14.4391 5.41467 16.244 -7.00518
441 1 0 7.21956 14.4391 -8.01778
442 1 1.80489 9.02445 14.4391 -8.20161
443 3 1.80489 7.21956 16.244 -6.36975
444 2 0 9.02445 16.244 -7.05741
445 3 3.60978 7.21956 14.4391 -6.36432
446 3 5.41467 9.02445 14.4391 -6.5
447 1 5.41467 7.21956 16.244 -8.55332
448 3 3.60978 9.02445 16.244 -6.55341
449 3 7.21956 7.21956 14.4391 -6.44869
450 2 9.02445 9.02445 14.4391 -6.90813
451 1 9.02445 7.21956 16.244 -8.45053
452 3 7.21956 9.02445 16.244 -6.56487
453 3 10.8293 7.21956 14.4391 -6.4362
454 3 12.6342 9.02445 14.4391 -6.45087
455 3 12.6342 7.21956 16.244 -6.29902
456 2 10.8293 9.02445 16.244 -6.86541
457 1 14.4391 7.21956 14.4391 -8.23653
458 2 16.244 9.02445 14.4391 -7.0251
459 2 16.244 7.21956 16.244 -7.04475
460 1 14.4391 9.02445 16.244 -8.08051
461 2 0 10.8293 14.4391 -7.08129
462 2 1.80489 12.6342 14.4391 -7.07324
463 3 1.80489 10.8293 16.244 -6.58817
464 2 0 12.6342 16.244 -7.04811
465 2 3.60978 10.8293 14.4391 -6.9806
466 3 5.41467 12.6342 14.4391 -6.42474
467 2 5.41467 10.8293 16.244 -6.96448
468 3 3.60978 12.6342 16.244 -6.47548
469 3 7.21956 10.8293 14.4391 -6.46186
470 2 9.02445 12.6342 14.4391 -6.85306
471 3 9.02445 10.8293 16.244 -6.50838
472 1 7.21956 12.6342 16.244 -8.41862
473 3 10.8293 10.8293 14.4391 -6.62906
474 2 12.6342 12.6342 14.4391 -6.99652
475 2 12.6342 10.8293 16.244 -7.00614
476 3 10.8293 12.6342 16.244 -6.45577
477 1 14.4391 10.8293 14.4391 -8.14321
478 2 16.244 12.6342 14.4391 -7.06589
479 1 16.244 10.8293 16.244 -8.32583
480 2 14.4391 12.6342 16.244 -7.03035
481 2 0 14.4391 14.4391 -7.09622
482 2 1.80489 16.244 14.4391 -7.16313
483 1 1.80489 14.4391 16.244 -8.01327
484 1 0 16.244 16.244 -8.03058
485 1 3.60978 14.4391 14.4391 -8.17838
486 3 5.41467 16.244 14.4391 -6.26397
487 2 5.41467 14.4391 16.244 -6.92979
488 1 3.60978 16.244 16.244 -7.89046
489 3 7.21956 14.4391 14.4391 -6.38476
490 3 9.02445 16.244 14.4391 -6.41984
491 3 9.02445 14.4391 16.244 -6.42529
492 1 7.21956 16.244 16.244 -8.40474
493 1 10.8293 14.4391 14.4391 -8.58147
494 2 12.6342 16.244 14.4391 -6.92393
495 3 12.6342 14.4391 16.244 -6.41243
496 2 10.8293 16.244 16.244 -6.96176
497 1 14.4391 14.4391 14.4391 -8.46527
498 3 16.244 16.244 14.4391 -6.53637
499 2 16.244 14.4391 16.244 -6.99163
500 3 14.4391 16.244 16.244 -6.42066
501 2 0 0 18.0489 -6.92256
502 1 1.80489 1.80489 18.0489 -8.21879
503 2 1.80489 0 19.8538 -6.99404
504 3 0 1.80489 19.8538 -6.32264
601 1 0 0 21.6587 -8.13993
602 3 1.80489 1.80489 21.6587 -6.36892
505 1 3.60978 0 18.0489 -8.21388
506 3 5.41467 1.80489 18.0489 -6.35629
507 3 5.41467 0 19.8538 -6.46389
508 1 3.60978 1.80489 19.8538 -8.42849
605 2 3.60978 0 21.6587 -7.04784
606 2 5.41467 1.80489 21.6587 -6.98648
509 3 7.21956 0 18.0489 -6.43125
510 3 9.02445 1.80489 18.0489 -6.42054
511 2 9.02445 0 19.8538 -6.88233
512 1 7.21956 1.80489 19.8538 -8.43166
609 3 7.21956 0 21.6587 -6.56095
610 3 9.02445 1.80489 21.6587 -6.43693
513 3 10.8293 0 18.0489 -6.30994
514 1 12.6342 1.80489 18.0489 -8.08343
515 2 12.6342 0 19.8538 -6.98379
516 1 10.8293 1.80489 19.8538 -8.28944
613 3 10.8293 0 21.6587 -6.41368
614 1 12.6342 1.80489 21.6587 -8.15483
517 2 14.4391 0 18.0489 -7.064
518 1 16.244 1.80489 18.0489 -8.07599
519 2 16.244 0 19.8538 -7.09663
520 1 14.4391 1.80489 19.8538 -8.18862
617 2 14.4391 0 21.6587 -7.00889
618 1 16.244 1.80489 21.6587 -8.31984
521 1 0 3.60978 18.0489 -8.06111
522 1 1.80489 5.41467 18.0489 -8.25661
523 3 1.80489 3.60978 19.8538 -6.25764
524 1 0 5.41467 19.8538 -8.10505
621 3 0 3.60978 21.6587 -6.33904
622 3 1.80489 5.41467 21.6587 -6.47106
525 3 3.60978 3.60978 18.0489 -6.26506
526 2 5.41467 5.41467 18.0489 -6.93145
527 3 5.41467 3.60978 19.8538 -6.39954
528 1 3.60978 5.41467 19.8538 -8.26987
625 3 3.60978 3.60978 21.6587 -6.40742
626 1 5.41467 5.41467 21.6587 -8.31666
529 2 7.21956 3.60978 18.0489 -6.99122
530 2 9.02445 5.41467 18.0489 -6.96814
531 1 9.02445 3.60978 19.8538 -8.08137
532 3 7.21956 5.41467 19.8538 -6.53399
629 1 7.21956 3.60978 21.6587 -8.07943
630 1 9.02445 5.41467 21.6587 -8.01632
533 2 10.8293 3.60978 18.0489 -7.0238
534 1 12.6342 5.41467 18.0489 -8.17493
535 3 12.6342 3.60978 19.8538 -6.2566
536 1 10.8293 5.41467 19.8538 -8.31539
633 3 10.8293 3.60978 21.6587 -6.18113
634 3 12.6342 5.41467 21.6587 -6.31498
537 3 14.4391 3.60978 18.0489 -6.23482
538 1 16.244 5.41467 18.0489 -8.30709
539 3 16.244 3.60978 19.8538 -6.29614
540 2 14.4391 5.41467 19.8538 -6.91236
637 3 14.4391 3.60978 21.6587 -6.27767
638 3 16.244 5.41467 21.6587 -6.3159
541 1 0 7.21956 18.0489 -8.06564
542 2 1.80489 9.02445 18.0489 -6.9735
543 1 1.80489 7.21956 19.8538 -8.22607
544 2 0 9.02445 19.8538 -7.00143
641 3 0 7.21956 21.6587 -6.46919
642 2 1.80489 9.02445 21.6587 -6.98958
545 3 3.60978 7.21956 18.0489 -6.45282
546 3 5.41467 9.02445 18.0489 -6.644
547 2 5.41467 7.21956 19.8538 -7.06746
548 3 3.60978 9.02445 19.8538 -6.54864
645 2 3.60978 7.21956 21.6587 -7.03272
646 2 5.41467 9.02445 21.6587 -7.07585
549 2 7.21956 7.21956 18.0489 -7.03981
550 3 9.02445 9.02445 18.0489 -6.54891
551 3 9.02445 7.21956 19.8538 -6.53934
552 2 7.21956 9.02445 19.8538 -7.08721
649 2 7.21956 7.21956 21.6587 -7.07746
650 2 9.02445 9.02445 21.6587 -7.00056
553 3 10.8293 7.21956 18.0489 -6.31848
554 1 12.6342 9.02445 18.0489 -8.2538
555 3 12.6342 7.21956 19.8538 -6.2506
556 1 10.8293 9.02445 19.8538 -8.45955
653 2 10.8293 7.21956 21.6587 -7.02186
654 1 12.6342 9.02445 21.6587 -8.05102
557 1 14.4391 7.21956 18.0489 -8.02827
558 2 16.244 9.02445 18.0489 -7.08467
559 2 16.244 7.21956 19.8538 -7.05183
560 1 14.4391 9.02445 19.8538 -8.11816
657 1 14.4391 7.21956 21.6587 -8.09191
658 1 16.244 9.02445 21.6587 -8.03091
561 3 0 10.8293 18.0489 -6.45267
562 1 1.80489 12.6342 18.0489 -8.23044
563 1 1.80489 10.8293 19.8538 -8.25106
564 3 0 12.6342 19.8538 -6.16737
661 3 0 10.8293 21.6587 -6.26133
662 1 1.80489 12.6342 21.6587 -8.14755
565 2 3.60978 10.8293 18.0489 -6.98142
566 1 5.41467 12.6342 18.0489 -8.32521
567 3 5.41467 10.8293 19.8538 -6.50769
568 2 3.60978 12.6342 19.8538 -7.05153
665 1 3.60978 10.8293 21.6587 -8.06129
666 1 5.41467 12.6342 21.6587 -8.13968
569 3 7.21956 10.8293 18.0489 -6.53718
570 1 9.02445 12.6342 18.0489 -8.35974
571 3 9.02445 10.8293 19.8538 -6.40656
572 2 7.21956 12.6342 19.8538 -6.90694
669 1 7.21956 10.8293 21.6587 -8.21578
670 3 9.02445 12.6342 21.6587 -6.33862
573 3 10.8293 10.8293 18.0489 -6.36565
574 1 12.6342 12.6342 18.0489 -8.45266
575 3 12.6342 10.8293 19.8538 -6.15608
576 1 10.8293 12.6342 19.8538 -8.25768
673 3 10.8293 10.8293 21.6587 -6.26761
674 1 12.6342 12.6342 21.6587 -8.2501
577 3 14.4391 10.8293 18.0489 -6.45852
578 3 16.244 12.6342 18.0489 -6.58525
579 2 16.244 10.8293 19.8538 -7.01692
580 3 14.4391 12.6342 19.8538 -6.46788
677 3 14.4391 10.8293 21.6587 -6.34088
678 2 16.244 12.6342 21.6587 -7.05844
581 3 0 14.4391 18.0489 -6.29136
582 2 1.80489 16.244 18.0489 -7.06685
583 1 1.80489 14.4391 19.8538 -8.34399
584 3 0 16.244 19.8538 -6.28941
681 3 0 14.4391 21.6587 -6.30829
682 2 1.80489 16.244 21.6587 -6.79281
585 1 3.60978 14.4391 18.0489 -8.01663
586 2 5.41467 16.244 18.0489 -7.10259
587 2 5.41467 14.4391 19.8538 -7.00969
588 3 3.60978 16.244 19.8538 -6.3106
685 3 3.60978 14.4391 21.6587 -6.33955
686 1 5.41467 16.244 21.6587 -8.3266
589 3 7.21956 14.4391 18.0489 -6.48336
590 2 9.02445 16.244 18.0489 -7.01185
591 3 9.02445 14.4391 19.8538 -6.35004
592 2 7.21956 16.244 19.8538 -7.06858
689 1 7.21956 14.4391 21.6587 -8.33177
690 3 9.02445 16.244 21.6587 -6.46296
593 1 10.8293 14.4391 18.0489 -8.11884
594 1 12.6342 16.244 18.0489 -8.23934
595 3 12.6342 14.4391 19.8538 -6.29872
596 1 10.8293 16.244 19.8538 -8.30776
693 1 10.8293 14.4391 21.6587 -8.32611
694 2 12.6342 16.244 21.6587 -6.91906
597 3 14.4391 14.4391 18.0489 -6.48
598 1 16.244 16.244 18.0489 -8.45904
599 2 16.244 14.4391 19.8538 -7.00023
600 2 14.4391 16.244 19.8538 -6.89764
697 1 14.4391 14.4391 21.6587 -8.32886
698 1 16.244 16.244 21.6587 -8.38225
603 1 1.80489 0 23.4636 -8.09226
604 1 0 1.80489 23.4636 -8.03211
701 2 0 0 25.2684 -7.032
702 1 1.80489 1.80489 25.2684 -8.0443
607 2 5.41467 0 23.4636 -7.09978
608 1 3.60978 1.80489 23.4636 -8.26828
703 2 3.60978 0 25.2684 -7.04334
704 2 5.41467 1.80489 25.2684 -7.18206
611 3 9.02445 0 23.4636 -6.58364
612 2 7.21956 1.80489 23.4636 -7.08632
705 2 7.21956 0 25.2684 -7.13992
706 3 9.02445 1.80489 25.2684 -6.5617
615 1 12.6342 0 23.4636 -8.31953
616 2 10.8293 1.80489 23.4636 -6.91427
707 2 10.8293 0 25.2684 -6.95469
708 1 12.6342 1.80489 25.2684 -8.25158
619 3 16.244 0 23.4636 -6.33981
620 3 14.4391 1.80489 23.4636 -6.28367
709 3 14.4391 0 25.2684 -6.3605
710 1 16.244 1.80489 25.2684 -8.41587
623 3 1.80489 3.60978 23.4636 -6.49363
624 2 0 5.41467 23.4636 -7.04561
711 1 0 3.60978 25.2684 -8.21816
712 2 1.80489 5.41467 25.2684 -7.15802
627 2 5.41467 3.60978 23.4636 -7.06674
628 3 3.60978 5.41467 23.4636 -6.70704
713 2 3.60978 3.60978 25.2684 -7.08999
714 3 5.41467 5.41467 25.2684 -6.72302
631 1 9.02445 3.60978 23.4636 -8.22767
632 3 7.21956 5.41467 23.4636 -6.46665
715 2 7.21956 3.60978 25.2684 -7.09937
716 1 9.02445 5.41467 25.2684 -8.27601
635 1 12.6342 3.60978 23.4636 -8.12791
636 1 10.8293 5.41467 23.4636 -8.04549
717 3 10.8293 3.60978 25.2684 -6.32199
718 1 12.6342 5.41467 25.2684 -8.13832
639 3 16.244 3.60978 23.4636 -6.27767
640 1 14.4391 5.41467 23.4636 -8.09862
719 2 14.4391 3.60978 25.2684 -7.02553
720 1 16.244 5.41467 25.2684 -8.10925
643 3 1.80489 7.21956 23.4636 -6.68987
644 1 0 9.02445 23.4636 -8.27891
721 2 0 7.21956 25.2684 -7.15434
722 2 1.80489 9.02445 25.2684 -7.05151
647 2 5.41467 7.21956 23.4636 -7.06726
648 3 3.60978 9.02445 23.4636 -6.53545
723 2 3.60978 7.21956 25.2684 -7.05442
724 3 5.41467 9.02445 25.2684 -6.53233
651 1 9.02445 7.21956 23.4636 -8.08458
652 2 7.21956 9.02445 23.4636 -7.02021
725 3 7.21956 7.21956 25.2684 -6.44229
726 1 9.02445 9.02445 25.2684 -8.05176
655 2 12.6342 7.21956 23.4636 -7.04679
656 1 10.8293 9.02445 23.4636 -8.02952
727 2 10.8293 7.21956 25.2684 -7.07956
728 1 12.6342 9.02445 25.2684 -8.18096
659 1 16.244 7.21956 23.4636 -7.9151
660 1 14.4391 9.02445 23.4636 -7.98399
729 2 14.4391 7.21956 25.2684 -7.07781
730 2 16.244 9.02445 25.2684 -7.00153
663 1 1.80489 10.8293 23.4636 -8.01681
664 3 0 12.6342 23.4636 -6.25945
731 2 0 10.8293 25.2684 -7.04148
732 1 1.80489 12.6342 25.2684 -8.07718
667 1 5.41467 10.8293 23.4636 -8.14481
668 1 3.60978 12.6342 23.4636 -7.93693
733 1 3.60978 10.8293 25.2684 -8.23145
734 2 5.41467 12.6342 25.2684 -7.07032
671 1 9.02445 10.8293 23.4636 -8.22916
672 3 7.21956 12.6342 23.4636 -6.4404
735 3 7.21956 10.8293 25.2684 -6.44013
736 2 9.02445 12.6342 25.2684 -6.97662
675 1 12.6342 10.8293 23.4636 -8.04506
676 2 10.8293 12.6342 23.4636 -6.93289
737 3 10.8293 10.8293 25.2684 -6.21231
738 1 12.6342 12.6342 25.2684 -8.20783
679 2 16.244 10.8293 23.4636 -7.07019
680 3 14.4391 12.6342 23.4636 -6.37754
739 2 14.4391 10.8293 25.2684 -6.98229
740 1 16.244 12.6342 25.2684 -8.16467
683 1 1.80489 14.4391 23.4636 -8.3848
684 3 0 16.244 23.4636 -6.51382
741 3 0 14.4391 25.2684 -6.38255
742 3 1.80489 16.244 25.2684 -6.32278
687 2 5.41467 14.4391 23.4636 -6.97809
688 3 3.60978 16.244 23.4636 -6.46243
743 2 3.60978 14.4391 25.2684 -7.06085
744 2 5.41467 16.244 25.2684 -7.04321
691 3 9.02445 14.4391 23.4636 -6.47485
692 3 7.21956 16.244 23.4636 -6.56459
745 3 7.21956 14.4391 25.2684 -6.7374
746 2 9.02445 16.244 25.2684 -7.09965
695 3 12.6342 14.4391 23.4636 -6.3193
696 3 10.8293 16.244 23.4636 -6.5595
747 1 10.8293 14.4391 25.2684 -8.34806
748 2 12.6342 16.244 25.2684 -6.98609
699 2 16.244 14.4391 23.4636 -7.08344
700 3 14.4391 16.244 23.4636 -6.41574
749 1 14.4391 14.4391 25.2684 -8.22885
750 1 16.244 16.244 25.2684 -8.23249
751 3 1.80489 0 27.0733 -6.45896
752 2 0 1.80489 27.0733 -7.07209
801 1 0 0 28.8782 -8.26216
802 2 1.80489 1.80489 28.8782 -7.04674
803 1 1.80489 0 30.6831 -8.25754
804 2 0 1.80489 30.6831 -7.06521
753 2 5.41467 0 27.0733 -7.09198
754 1 3.60978 1.80489 27.0733 -8.32678
805 3 3.60978 0 28.8782 -6.43816
806 3 5.41467 1.80489 28.8782 -6.56839
807 3 5.41467 0 30.6831 -6.39928
808 3 3.60978 1.80489 30.6831 -6.51473
755 1 9.02445 0 27.0733 -8.02934
756 2 7.21956 1.80489 27.0733 -7.08322
809 2 7.21956 0 28.8782 -7.11525
810 1 9.02445 1.80489 28.8782 -8.0773
811 2 9.02445 0 30.6831 -7.15403
812 1 7.21956 1.80489 30.6831 -8.15533
757 3 12.6342 0 27.0733 -6.46261
758 1 10.8293 1.80489 27.0733 -8.22478
813 2 10.8293 0 28.8782 -7.12707
814 3 12.6342 1.80489 28.8782 -6.69757
815 2 12.6342 0 30.6831 -7.27147
816 2 10.8293 1.80489 30.6831 -7.10847
759 3 16.244 0 27.0733 -6.49666
760 3 14.4391 1.80489 27.0733 -6.52736
817 2 14.4391 0 28.8782 -7.10606
818 2 16.244 1.80489 28.8782 -7.06624
819 2 16.244 0 30.6831 -7.09864
820 2 14.4391 1.80489 30.6831 -7.21247
761 2 1.80489 3.60978 27.0733 -7.13452
762 2 0 5.41467 27.0733 -7.17262
821 1 0 3.60978 28.8782 -8.41573
822 3 1.80489 5.41467 28.8782 -6.59508
823 2 1.80489 3.60978 30.6831 -6.99154
824 3 0 5.41467 30.6831 -6.41534
763 2 5.41467 3.60978 27.0733 -7.11304
764 3 3.60978 5.41467 27.0733 -6.71964
825 2 3.60978 3.60978 28.8782 -7.04181
826 3 5.41467 5.41467 28.8782 -6.56155
827 3 5.41467 3.60978 30.6831 -6.39767
828 2 3.60978 5.41467 30.6831 -6.95382
765 2 9.02445 3.60978 27.0733 -6.97499
766 3 7.21956 5.41467 27.0733 -6.6179
829 3 7.21956 3.60978 28.8782 -6.51357
830 2 9.02445 5.41467 28.8782 -6.94655
831 1 9.02445 3.60978 30.6831 -8.10046
832 1 7.21956 5.41467 30.6831 -8.23881
767 2 12.6342 3.60978 27.0733 -6.94998
768 3 10.8293 5.41467 27.0733 -6.49553
833 2 10.8293 3.60978 28.8782 -7.02961
834 3 12.6342 5.41467 28.8782 -6.44773
835 3 12.6342 3.60978 30.6831 -6.62732
836 3 10.8293 5.41467 30.6831 -6.34041
769 1 16.244 3.60978 27.0733 -8.19505
770 1 14.4391 5.41467 27.0733 -8.05163