ITEM: TIMESTEP
0
ITEM: NUMBER OF ATOMS
4000
ITEM: BOX BOUNDS pp pp pp
0.0000000000000000e+00 3.6097780000000000e+01
0.0000000000000000e+00 3.6097780000000000e+01
0.0000000000000000e+00 3.6097780000000000e+01
ITEM: ATOMS id type x y z c_peratom
1 3 0 0 0 -6.51139
2 2 1.80489 1.80489 0 -7.02045
3 3 1.80489 0 1.80489 -6.44053
4 1 0 1.80489 1.80489 -8.1391
101 1 0 0 3.60978 -8.13101
102 1 1.80489 1.80489 3.60978 -8.13241
5 1 3.60978 0 0 -8.45001
6 3 5.41467 1.80489 0 -6.50324
7 2 5.41467 0 1.80489 -7.03176
8 3 3.60978 1.80489 1.80489 -6.39929
105 2 3.60978 0 3.60978 -6.87423
106 1 5.41467 1.80489 3.60978 -8.20121
9 2 7.21956 0 0 -7.06042
10 2 9.02445 1.80489 0 -7.0771
11 1 9.02445 0 1.80489 -7.94119
12 1 7.21956 1.80489 1.80489 -8.23371
109 1 7.21956 0 3.60978 -8.11954
110 1 9.02445 1.80489 3.60978 -8.14789
13 2 10.8293 0 0 -6.94074
14 2 12.6342 1.80489 0 -6.97945
15 1 12.6342 0 1.80489 -8.36739
16 1 10.8293 1.80489 1.80489 -8.12858
113 1 10.8293 0 3.60978 -8.04928
114 2 12.6342 1.80489 3.60978 -7.02719
17 3 14.4391 0 0 -6.4648
18 3 16.244 1.80489 0 -6.51079
19 1 16.244 0 1.80489 -8.34312
20 3 14.4391 1.80489 1.80489 -6.46718
117 3 14.4391 0 3.60978 -6.33591
118 2 16.244 1.80489 3.60978 -7.04269
21 1 0 3.60978 0 -8.13402
22 1 1.80489 5.41467 0 -7.98242
23 1 1.80489 3.60978 1.80489 -8.06279
24 3 0 5.41467 1.80489 -6.26253
121 1 0 3.60978 3.60978 -8.14771
122 3 1.80489 5.41467 3.60978 -6.34416
25 2 3.60978 3.60978 0 -6.97268
26 3 5.41467 5.41467 0 -6.34794
27 3 5.41467 3.60978 1.80489 -6.38818
28 2 3.60978 5.41467 1.80489 -6.96524
125 1 3.60978 3.60978 3.60978 -8.23465
126 3 5.41467 5.41467 3.60978 -6.3118
29 3 7.21956 3.60978 0 -6.44312
30 1 9.02445 5.41467 0 -8.18192
31 2 9.02445 3.60978 1.80489 -6.96251
32 1 7.21956 5.41467 1.80489 -8.27725
129 3 7.21956 3.60978 3.60978 -6.29614
130 1 9.02445 5.41467 3.60978 -8.30448
33 2 10.8293 3.60978 0 -7.07832
34 1 12.6342 5.41467 0 -8.14637
35 2 12.6342 3.60978 1.80489 -6.98852
36 1 10.8293 5.41467 1.80489 -8.11517
133 3 10.8293 3.60978 3.60978 -6.30202
134 3 12.6342 5.41467 3.60978 -6.38603
37 1 14.4391 3.60978 0 -8.38578
38 3 16.244 5.41467 0 -6.44587
39 2 16.244 3.60978 1.80489 -6.91971
40 3 14.4391 5.41467 1.80489 -6.4654
137 1 14.4391 3.60978 3.60978 -8.27478
138 3 16.244 5.41467 3.60978 -6.42687
41 1 0 7.21956 0 -8.30489
42 1 1.80489 9.02445 0 -8.28732
43 1 1.80489 7.21956 1.80489 -8.12483
44 3 0 9.02445 1.80489 -6.31395
141 2 0 7.21956 3.60978 -6.9464
142 2 1.80489 9.02445 3.60978 -6.97285
45 1 3.60978 7.21956 0 -8.18745
46 1 5.41467 9.02445 0 -8.09315
47 3 5.41467 7.21956 1.80489 -6.2396
48 3 3.60978 9.02445 1.80489 -6.25327
145 1 3.60978 7.21956 3.60978 -8.39957
146 2 5.41467 9.02445 3.60978 -6.96923
49 1 7.21956 7.21956 0 -8.19502
50 2 9.02445 9.02445 0 -7.01068
51 1 9.02445 7.21956 1.80489 -7.83912
52 1 7.21956 9.02445 1.80489 -7.99325
149 1 7.21956 7.21956 3.60978 -8.14414
150 1 9.02445 9.02445 3.60978 -8.06017
53 1 10.8293 7.21956 0 -8.15516
54 2 12.6342 9.02445 0 -7.06666
55 2 12.6342 7.21956 1.80489 -6.97649
56 1 10.8293 9.02445 1.80489 -7.99063
153 3 10.8293 7.21956 3.60978 -6.20412
154 1 12.6342 9.02445 3.60978 -8.1451
57 2 14.4391 7.21956 0 -7.04193
58 1 16.244 9.02445 0 -8.31335
59 1 16.244 7.21956 1.80489 -8.25541
60 2 14.4391 9.02445 1.80489 -7.01449
157 3 14.4391 7.21956 3.60978 -6.40772
158 1 16.244 9.02445 3.60978 -8.40317
61 1 0 10.8293 0 -8.17851
62 1 1.80489 12.6342 0 -8.15355
63 3 1.80489 10.8293 1.80489 -6.33206
64 1 0 12.6342 1.80489 -8.0447
161 2 0 10.8293 3.60978 -6.98542
162 2 1.80489 12.6342 3.60978 -6.90647
65 3 3.60978 10.8293 0 -6.23973
66 1 5.41467 12.6342 0 -8.01827
67 1 5.41467 10.8293 1.80489 -8.05253
68 3 3.60978 12.6342 1.80489 -6.28789
165 1 3.60978 10.8293 3.60978 -8.41366
166 3 5.41467 12.6342 3.60978 -6.45262
69 2 7.21956 10.8293 0 -7.04794
70 1 9.02445 12.6342 0 -8.2487
71 2 9.02445 10.8293 1.80489 -7.05146
72 1 7.21956 12.6342 1.80489 -8.05601
169 2 7.21956 10.8293 3.60978 -7.0099
170 1 9.02445 12.6342 3.60978 -8.32999
73 2 10.8293 10.8293 0 -7.02671
74 3 12.6342 12.6342 0 -6.47521
75 1 12.6342 10.8293 1.80489 -8.22631
76 3 10.8293 12.6342 1.80489 -6.45416
173 2 10.8293 10.8293 3.60978 -7.0706
174 1 12.6342 12.6342 3.60978 -8.20373
77 2 14.4391 10.8293 0 -7.02476
78 2 16.244 12.6342 0 -7.00273
79 3 16.244 10.8293 1.80489 -6.51392
80 3 14.4391 12.6342 1.80489 -6.45694
177 2 14.4391 10.8293 3.60978 -7.03086
178 2 16.244 12.6342 3.60978 -6.96871
81 2 0 14.4391 0 -7.04109
82 3 1.80489 16.244 0 -6.37618
83 1 1.80489 14.4391 1.80489 -8.1795
84 1 0 16.244 1.80489 -8.07249
181 3 0 14.4391 3.60978 -6.33578
182 3 1.80489 16.244 3.60978 -6.3989
85 1 3.60978 14.4391 0 -8.05684
86 1 5.41467 16.244 0 -8.24237
87 3 5.41467 14.4391 1.80489 -6.33721
88 3 3.60978 16.244 1.80489 -6.38868
185 2 3.60978 14.4391 3.60978 -6.94965
186 1 5.41467 16.244 3.60978 -8.52816
89 1 7.21956 14.4391 0 -7.97091
90 3 9.02445 16.244 0 -6.26855
91 2 9.02445 14.4391 1.80489 -6.96272
92 2 7.21956 16.244 1.80489 -6.91635
189 3 7.21956 14.4391 3.60978 -6.44573
190 2 9.02445 16.244 3.60978 -6.98423
93 3 10.8293 14.4391 0 -6.363
94 3 12.6342 16.244 0 -6.40153
95 2 12.6342 14.4391 1.80489 -6.91481
96 1 10.8293 16.244 1.80489 -8.37111
193 3 10.8293 14.4391 3.60978 -6.41691
194 1 12.6342 16.244 3.60978 -8.12483
97 1 14.4391 14.4391 0 -8.28031
98 3 16.244 16.244 0 -6.45334
99 1 16.244 14.4391 1.80489 -8.26423
100 2 14.4391 16.244 1.80489 -7.0025
197 1 14.4391 14.4391 3.60978 -8.11762
198 2 16.244 16.244 3.60978 -6.98836
103 3 1.80489 0 5.41467 -6.44229
104 1 0 1.80489 5.41467 -8.24397
201 3 0 0 7.21956 -6.52158
202 2 1.80489 1.80489 7.21956 -7.09941
107 3 5.41467 0 5.41467 -6.60833
108 3 3.60978 1.80489 5.41467 -6.5231
203 3 3.60978 0 7.21956 -6.63386
204 2 5.41467 1.80489 7.21956 -7.06732
111 3 9.02445 0 5.41467 -6.41991
112 2 7.21956 1.80489 5.41467 -6.93646
205 3 7.21956 0 7.21956 -6.64053
206 3 9.02445 1.80489 7.21956 -6.43957
115 1 12.6342 0 5.41467 -8.15862
116 1 10.8293 1.80489 5.41467 -8.13215
207 1 10.8293 0 7.21956 -8.34187
208 3 12.6342 1.80489 7.21956 -6.25215
119 1 16.244 0 5.41467 -8.09386
120 1 14.4391 1.80489 5.41467 -8.04753
209 2 14.4391 0 7.21956 -7.04032
210 1 16.244 1.80489 7.21956 -8.12762
123 2 1.80489 3.60978 5.41467 -7.05117
124 2 0 5.41467 5.41467 -7.04829
211 1 0 3.60978 7.21956 -8.30484
212 2 1.80489 5.41467 7.21956 -7.0948
127 1 5.41467 3.60978 5.41467 -8.35783
128 2 3.60978 5.41467 5.41467 -6.98968
213 2 3.60978 3.60978 7.21956 -7.08337
214 3 5.41467 5.41467 7.21956 -6.39104
131 3 9.02445 3.60978 5.41467 -6.3579
132 3 7.21956 5.41467 5.41467 -6.31375
215 3 7.21956 3.60978 7.21956 -6.44928
216 1 9.02445 5.41467 7.21956 -8.32036
135 1 12.6342 3.60978 5.41467 -8.36084
136 3 10.8293 5.41467 5.41467 -6.39035
217 2 10.8293 3.60978 7.21956 -6.90984
218 3 12.6342 5.41467 7.21956 -6.43013
139 1 16.244 3.60978 5.41467 -8.22608
140 3 14.4391 5.41467 5.41467 -6.38795
219 3 14.4391 3.60978 7.21956 -6.23662
220 3 16.244 5.41467 7.21956 -6.53776
143 1 1.80489 7.21956 5.41467 -8.24914
144 2 0 9.02445 5.41467 -7.07418
221 2 0 7.21956 7.21956 -7.06047
222 2 1.80489 9.02445 7.21956 -6.99217
147 3 5.41467 7.21956 5.41467 -6.27142
148 3 3.60978 9.02445 5.41467 -6.38613
223 1 3.60978 7.21956 7.21956 -8.15188
224 1 5.41467 9.02445 7.21956 -8.08056
151 3 9.02445 7.21956 5.41467 -6.26526
152 1 7.21956 9.02445 5.41467 -8.0752
225 1 7.21956 7.21956 7.21956 -8.23341
226 2 9.02445 9.02445 7.21956 -6.93336
155 1 12.6342 7.21956 5.41467 -8.3776
156 1 10.8293 9.02445 5.41467 -8.1182
227 2 10.8293 7.21956 7.21956 -7.06576
228 1 12.6342 9.02445 7.21956 -8.18807
159 2 16.244 7.21956 5.41467 -6.93491
160 3 14.4391 9.02445 5.41467 -6.54072
229 2 14.4391 7.21956 7.21956 -7.01323
230 2 16.244 9.02445 7.21956 -7.05995
163 1 1.80489 10.8293 5.41467 -8.19271
164 1 0 12.6342 5.41467 -8.29696
231 3 0 10.8293 7.21956 -6.45333
232 1 1.80489 12.6342 7.21956 -8.19579
167 2 5.41467 10.8293 5.41467 -7.05445
168 3 3.60978 12.6342 5.41467 -6.50857
233 2 3.60978 10.8293 7.21956 -6.98563
234 1 5.41467 12.6342 7.21956 -8.28507
171 3 9.02445 10.8293 5.41467 -6.37097
172 1 7.21956 12.6342 5.41467 -8.20486
235 1 7.21956 10.8293 7.21956 -8.15686
236 2 9.02445 12.6342 7.21956 -6.96172
175 2 12.6342 10.8293 5.41467 -7.02701
176 3 10.8293 12.6342 5.41467 -6.55152
237 2 10.8293 10.8293 7.21956 -7.03924
238 3 12.6342 12.6342 7.21956 -6.58835
179 3 16.244 10.8293 5.41467 -6.59528
180 2 14.4391 12.6342 5.41467 -7.05621
239 2 14.4391 10.8293 7.21956 -7.0696
240 3 16.244 12.6342 7.21956 -6.50543
183 3 1.80489 14.4391 5.41467 -6.48999
184 3 0 16.244 5.41467 -6.4265
241 3 0 14.4391 7.21956 -6.47885
242 1 1.80489 16.244 7.21956 -8.34271
187 3 5.41467 14.4391 5.41467 -6.52177
188 2 3.60978 16.244 5.41467 -7.01033
243 2 3.60978 14.4391 7.21956 -7.02472
244 3 5.41467 16.244 7.21956 -6.59729
191 2 9.02445 14.4391 5.41467 -6.98865
192 3 7.21956 16.244 5.41467 -6.5025
245 2 7.21956 14.4391 7.21956 -6.97912
246 1 9.02445 16.244 7.21956 -8.33942
195 1 12.6342 14.4391 5.41467 -8.25315
196 2 10.8293 16.244 5.41467 -6.97785
247 3 10.8293 14.4391 7.21956 -6.54854
248 3 12.6342 16.244 7.21956 -6.56209
199 3 16.244 14.4391 5.41467 -6.33676
200 1 14.4391 16.244 5.41467 -8.1353
249 2 14.4391 14.4391 7.21956 -6.95225
250 1 16.244 16.244 7.21956 -8.18761
251 2 1.80489 0 9.02445 -6.98233
252 2 0 1.80489 9.02445 -6.94726
301 1 0 0 10.8293 -8.12415
302 3 1.80489 1.80489 10.8293 -6.58045
303 1 1.80489 0 12.6342 -8.21285
304 2 0 1.80489 12.6342 -7.00981
253 2 5.41467 0 9.02445 -6.99379
254 2 3.60978 1.80489 9.02445 -7.12276
305 3 3.60978 0 10.8293 -6.45801
306 2 5.41467 1.80489 10.8293 -7.05971
307 1 5.41467 0 12.6342 -8.1835
308 2 3.60978 1.80489 12.6342 -6.98908
255 1 9.02445 0 9.02445 -8.22066
256 2 7.21956 1.80489 9.02445 -7.02932
309 1 7.21956 0 10.8293 -8.13985
310 3 9.02445 1.80489 10.8293 -6.43156
311 3 9.02445 0 12.6342 -6.25391
312 2 7.21956 1.80489 12.6342 -7.05722
257 3 12.6342 0 9.02445 -6.38271
258 3 10.8293 1.80489 9.02445 -6.31001
313 1 10.8293 0 10.8293 -8.46548
314 3 12.6342 1.80489 10.8293 -6.34431
315 2 12.6342 0 12.6342 -6.99159
316 3 10.8293 1.80489 12.6342 -6.35043
259 1 16.244 0 9.02445 -8.04116
260 1 14.4391 1.80489 9.02445 -8.20579
317 2 14.4391 0 10.8293 -6.97736
318 1 16.244 1.80489 10.8293 -7.87655
319 1 16.244 0 12.6342 -7.98018
320 1 14.4391 1.80489 12.6342 -8.16716
261 2 1.80489 3.60978 9.02445 -7.06525
262 3 0 5.41467 9.02445 -6.50396
321 3 0 3.60978 10.8293 -6.51618
322 1 1.80489 5.41467 10.8293 -8.44756
323 3 1.80489 3.60978 12.6342 -6.50658
324 3 0 5.41467 12.6342 -6.49472
263 1 5.41467 3.60978 9.02445 -8.27782
264 1 3.60978 5.41467 9.02445 -8.1022
325 3 3.60978 3.60978 10.8293 -6.56391
326 1 5.41467 5.41467 10.8293 -8.1413
327 3 5.41467 3.60978 12.6342 -6.55243
328 3 3.60978 5.41467 12.6342 -6.38922
265 1 9.02445 3.60978 9.02445 -8.33649
266 2 7.21956 5.41467 9.02445 -7.01631
329 2 7.21956 3.60978 10.8293 -7.05057
330 1 9.02445 5.41467 10.8293 -8.14008
331 3 9.02445 3.60978 12.6342 -6.46975
332 2 7.21956 5.41467 12.6342 -7.01681
267 1 12.6342 3.60978 9.02445 -8.31657
268 2 10.8293 5.41467 9.02445 -7.03038
333 3 10.8293 3.60978 10.8293 -6.3275
334 1 12.6342 5.41467 10.8293 -7.99267
335 1 12.6342 3.60978 12.6342 -8.08601
336 1 10.8293 5.41467 12.6342 -8.05668
269 3 16.244 3.60978 9.02445 -6.37414
270 1 14.4391 5.41467 9.02445 -8.42804
337 2 14.4391 3.60978 10.8293 -7.00856
338 3 16.244 5.41467 10.8293 -6.36104
339 1 16.244 3.60978 12.6342 -8.01822
340 1 14.4391 5.41467 12.6342 -7.97452
271 2 1.80489 7.21956 9.02445 -7.05882
272 3 0 9.02445 9.02445 -6.54882
341 3 0 7.21956 10.8293 -6.50663
342 1 1.80489 9.02445 10.8293 -8.22872
343 2 1.80489 7.21956 12.6342 -6.9415
344 3 0 9.02445 12.6342 -6.4861
273 3 5.41467 7.21956 9.02445 -6.19244
274 1 3.60978 9.02445 9.02445 -7.98713
345 2 3.60978 7.21956 10.8293 -7.00098
346 1 5.41467 9.02445 10.8293 -7.97169
347 1 5.41467 7.21956 12.6342 -7.96373
348 1 3.60978 9.02445 12.6342 -8.01476
275 2 9.02445 7.21956 9.02445 -7.15683
276 1 7.21956 9.02445 9.02445 -8.02132
349 1 7.21956 7.21956 10.8293 -7.96037
350 1 9.02445 9.02445 10.8293 -7.92445
351 2 9.02445 7.21956 12.6342 -7.0582
352 1 7.21956 9.02445 12.6342 -8.05234
277 2 12.6342 7.21956 9.02445 -6.97049
278 1 10.8293 9.02445 9.02445 -8.15158
353 2 10.8293 7.21956 10.8293 -7.09156
354 3 12.6342 9.02445 10.8293 -6.41885
355 1 12.6342 7.21956 12.6342 -8.1961
356 1 10.8293 9.02445 12.6342 -8.1346
279 3 16.244 7.21956 9.02445 -6.64745
280 3 14.4391 9.02445 9.02445 -6.61526
357 3 14.4391 7.21956 10.8293 -6.40463
358 2 16.244 9.02445 10.8293 -7.0505
359 1 16.244 7.21956 12.6342 -8.29877
360 3 14.4391 9.02445 12.6342 -6.45105
281 1 1.80489 10.8293 9.02445 -8.09383
282 1 0 12.6342 9.02445 -8.27992
361 3 0 10.8293 10.8293 -6.37623
362 2 1.80489 12.6342 10.8293 -7.00791
363 1 1.80489 10.8293 12.6342 -8.06063
364 1 0 12.6342 12.6342 -8.1813
283 3 5.41467 10.8293 9.02445 -6.24732
284 2 3.60978 12.6342 9.02445 -7.07806
365 1 3.60978 10.8293 10.8293 -7.97848
366 1 5.41467 12.6342 10.8293 -8.24436
367 3 5.41467 10.8293 12.6342 -6.27713
368 2 3.60978 12.6342 12.6342 -7.05137
285 3 9.02445 10.8293 9.02445 -6.29832
286 2 7.21956 12.6342 9.02445 -6.98292
369 2 7.21956 10.8293 10.8293 -6.93347
370 1 9.02445 12.6342 10.8293 -8.10512
371 1 9.02445 10.8293 12.6342 -8.09245
372 3 7.21956 12.6342 12.6342 -6.31595
287 2 12.6342 10.8293 9.02445 -7.04415
288 1 10.8293 12.6342 9.02445 -8.32402
373 1 10.8293 10.8293 10.8293 -7.99771
374 2 12.6342 12.6342 10.8293 -7.01947
375 2 12.6342 10.8293 12.6342 -7.00605
376 1 10.8293 12.6342 12.6342 -8.11013
289 3 16.244 10.8293 9.02445 -6.60903
290 1 14.4391 12.6342 9.02445 -8.31543
377 1 14.4391 10.8293 10.8293 -8.25343
378 1 16.244 12.6342 10.8293 -8.20789
379 2 16.244 10.8293 12.6342 -7.06148
380 1 14.4391 12.6342 12.6342 -8.08076
291 2 1.80489 14.4391 9.02445 -7.04625
292 3 0 16.244 9.02445 -6.53314
381 1 0 14.4391 10.8293 -8.275
382 3 1.80489 16.244 10.8293 -6.47937
383 3 1.80489 14.4391 12.6342 -6.49875
384 2 0 16.244 12.6342 -6.98002
293 2 5.41467 14.4391 9.02445 -7.13682
294 2 3.60978 16.244 9.02445 -7.07218
385 1 3.60978 14.4391 10.8293 -8.41196
386 2 5.41467 16.244 10.8293 -7.03502
387 3 5.41467 14.4391 12.6342 -6.40826
388 3 3.60978 16.244 12.6342 -6.48764
295 3 9.02445 14.4391 9.02445 -6.43654
296 3 7.21956 16.244 9.02445 -6.49264
389 1 7.21956 14.4391 10.8293 -8.21566
390 1 9.02445 16.244 10.8293 -8.36109
391 2 9.02445 14.4391 12.6342 -7.05499
392 2 7.21956 16.244 12.6342 -7.07356
297 2 12.6342 14.4391 9.02445 -7.02422
298 2 10.8293 16.244 9.02445 -7.06399
393 3 10.8293 14.4391 10.8293 -6.47
394 1 12.6342 16.244 10.8293 -8.33866
395 2 12.6342 14.4391 12.6342 -7.1321
396 2 10.8293 16.244 12.6342 -7.12047
299 2 16.244 14.4391 9.02445 -6.98935
300 3 14.4391 16.244 9.02445 -6.5123
397 3 14.4391 14.4391 10.8293 -6.54125
398 3 16.244 16.244 10.8293 -6.5528
399 2 16.244 14.4391 12.6342 -7.04218
400 2 14.4391 16.244 12.6342 -7.00248
401 1 0 0 14.4391 -8.12796
402 3 1.80489 1.80489 14.4391 -6.40253
403 3 1.80489 0 16.244 -6.41552
404 2 0 1.80489 16.244 -6.92563
405 3 3.60978 0 14.4391 -6.38511
406 2 5.41467 1.80489 14.4391 -6.95348
407 2 5.41467 0 16.244 -7.01756
408 1 3.60978 1.80489 16.244 -8.38319
409 1 7.21956 0 14.4391 -8.25648
410 2 9.02445 1.80489 14.4391 -6.91803
411 3 9.02445 0 16.244 -6.3009
412 3 7.21956 1.80489 16.244 -6.40675
413 1 10.8293 0 14.4391 -8.27872
414 3 12.6342 1.80489 14.4391 -6.29443
415 3 12.6342 0 16.244 -6.30805
416 1 10.8293 1.80489 16.244 -8.15446
417 2 14.4391 0 14.4391 -6.97464
418 3 16.244 1.80489 14.4391 -6.27936
419 2 16.244 0 16.244 -7.00865
420 1 14.4391 1.80489 16.244 -8.22763
421 1 0 3.60978 14.4391 -8.35022
422 3 1.80489 5.41467 14.4391 -6.46849
423 1 1.80489 3.60978 16.244 -8.2664
424 1 0 5.41467 16.244 -8.21918
425 3 3.60978 3.60978 14.4391 -6.51243
426 1 5.41467 5.41467 14.4391 -8.3358
427 3 5.41467 3.60978 16.244 -6.52692
428 2 3.60978 5.41467 16.244 -6.93653
429 1 7.21956 3.60978 14.4391 -8.36039
430 2 9.02445 5.41467 14.4391 -7.05187
431 2 9.02445 3.60978 16.244 -7.12552
432 2 7.21956 5.41467 16.244 -7.12796
433 1 10.8293 3.60978 14.4391 -8.11516
434 1 12.6342 5.41467 14.4391 -8.08557
435 3 12.6342 3.60978 16.244 -6.23131
436 1 10.8293 5.41467 16.244 -8.03729
437 2 14.4391 3.60978 14.4391 -7.00819
438 1 16.244 5.41467 14.4391 -8.08456
439 1 16.244 3.60978 16.244 -8.097
440 3 14.4391 5.41467 16.244 -6.4096
441 1 0 7.21956 14.4391 -8.43712
442 2 1.80489 9.02445 14.4391 -7.00336
443 3 1.80489 7.21956 16.244 -6.40986
444 3 0 9.02445 16.244 -6.4529
445 3 3.60978 7.21956 14.4391 -6.44425
446 1 5.41467 9.02445 14.4391 -8.1584
447 2 5.41467 7.21956 16.244 -6.99812
448 1 3.60978 9.02445 16.244 -8.32933
449 3 7.21956 7.21956 14.4391 -6.43236
450 2 9.02445 9.02445 14.4391 -6.99286
451 1 9.02445 7.21956 16.244 -8.26502
452 2 7.21956 9.02445 16.244 -6.98476
453 3 10.8293 7.21956 14.4391 -6.30416
454 3 12.6342 9.02445 14.4391 -6.48325
455 2 12.6342 7.21956 16.244 -7.00892
456 1 10.8293 9.02445 16.244 -8.23975
457 2 14.4391 7.21956 14.4391 -7.00174
458 3 16.244 9.02445 14.4391 -6.47577
459 3 16.244 7.21956 16.244 -6.49513
460 2 14.4391 9.02445 16.244 -7.09606
461 1 0 10.8293 14.4391 -8.15509
462 2 1.80489 12.6342 14.4391 -7.02741
463 2 1.80489 10.8293 16.244 -7.0203
464 3 0 12.6342 16.244 -6.29687
465 2 3.60978 10.8293 14.4391 -7.1082
466 1 5.41467 12.6342 14.4391 -8.34611
467 2 5.41467 10.8293 16.244 -7.04391
468 2 3.60978 12.6342 16.244 -7.13261
469 3 7.21956 10.8293 14.4391 -6.39888
470 3 9.02445 12.6342 14.4391 -6.48013
471 1 9.02445 10.8293 16.244 -8.44205
472 2 7.21956 12.6342 16.244 -7.08119
473 2 10.8293 10.8293 14.4391 -7.03226
474 2 12.6342 12.6342 14.4391 -7.14873
475 2 12.6342 10.8293 16.244 -7.16383
476 2 10.8293 12.6342 16.244 -7.11427
477 1 14.4391 10.8293 14.4391 -8.32011
478 1 16.244 12.6342 14.4391 -8.16154
479 3 16.244 10.8293 16.244 -6.46285
480 3 14.4391 12.6342 16.244 -6.58848
481 3 0 14.4391 14.4391 -6.42018
482 1 1.80489 16.244 14.4391 -8.22351
483 1 1.80489 14.4391 16.244 -8.26194
484 3 0 16.244 16.244 -6.28512
485 2 3.60978 14.4391 14.4391 -7.02056
486 1 5.41467 16.244 14.4391 -8.25636
487 2 5.41467 14.4391 16.244 -7.09388
488 2 3.60978 16.244 16.244 -7.04483
489 1 7.21956 14.4391 14.4391 -8.22314
490 2 9.02445 16.244 14.4391 -7.09219
491 2 9.02445 14.4391 16.244 -7.14286
492 2 7.21956 16.244 16.244 -7.10948
493 1 10.8293 14.4391 14.4391 -8.19583
494 2 12.6342 16.244 14.4391 -7.10429
495 2 12.6342 14.4391 16.244 -7.20228
496 2 10.8293 16.244 16.244 -7.1978
497 2 14.4391 14.4391 14.4391 -7.12806
498 1 16.244 16.244 14.4391 -8.17757
499 1 16.244 14.4391 16.244 -8.09276
500 1 14.4391 16.244 16.244 -8.24548
501 3 0 0 18.0489 -6.38391
502 3 1.80489 1.80489 18.0489 -6.41032
503 3 1.80489 0 19.8538 -6.52343
504 1 0 1.80489 19.8538 -8.34041
601 2 0 0 21.6587 -7.05639
602 3 1.80489 1.80489 21.6587 -6.42525
505 2 3.60978 0 18.0489 -6.93971
506 1 5.41467 1.80489 18.0489 -8.25055
507 3 5.41467 0 19.8538 -6.51361
508 3 3.60978 1.80489 19.8538 -6.44948
605 3 3.60978 0 21.6587 -6.54292
606 1 5.41467 1.80489 21.6587 -8.1249
509 1 7.21956 0 18.0489 -8.26684
510 1 9.02445 1.80489 18.0489 -8.14861
511 1 9.02445 0 19.8538 -8.18263
512 1 7.21956 1.80489 19.8538 -7.97043
609 2 7.21956 0 21.6587 -6.99152
610 2 9.02445 1.80489 21.6587 -6.94245
513 2 10.8293 0 18.0489 -6.85926
514 2 12.6342 1.80489 18.0489 -6.99432
515 3 12.6342 0 19.8538 -6.37639
516 3 10.8293 1.80489 19.8538 -6.3738
613 1 10.8293 0 21.6587 -8.50761
614 3 12.6342 1.80489 21.6587 -6.37982
517 1 14.4391 0 18.0489 -8.3027
518 2 16.244 1.80489 18.0489 -7.12472
519 3 16.244 0 19.8538 -6.54259
520 1 14.4391 1.80489 19.8538 -8.05868
617 1 14.4391 0 21.6587 -8.18183
618 2 16.244 1.80489 21.6587 -7.02677
521 3 0 3.60978 18.0489 -6.31897
522 3 1.80489 5.41467 18.0489 -6.30759
523 1 1.80489 3.60978 19.8538 -8.21059
524 1 0 5.41467 19.8538 -8.19128
621 3 0 3.60978 21.6587 -6.29187
622 3 1.80489 5.41467 21.6587 -6.3674
525 2 3.60978 3.60978 18.0489 -6.99706
526 2 5.41467 5.41467 18.0489 -7.10677
527 2 5.41467 3.60978 19.8538 -7.078
528 1 3.60978 5.41467 19.8538 -8.20849
625 1 3.60978 3.60978 21.6587 -8.10544
626 2 5.41467 5.41467 21.6587 -7.02382
529 2 7.21956 3.60978 18.0489 -7.04623
530 2 9.02445 5.41467 18.0489 -7.12886
531 3 9.02445 3.60978 19.8538 -6.35095
532 1 7.21956 5.41467 19.8538 -8.16969
629 1 7.21956 3.60978 21.6587 -8.17952
630 2 9.02445 5.41467 21.6587 -6.99292
533 1 10.8293 3.60978 18.0489 -8.10101
534 3 12.6342 5.41467 18.0489 -6.24068
535 1 12.6342 3.60978 19.8538 -8.144
536 1 10.8293 5.41467 19.8538 -8.20447
633 3 10.8293 3.60978 21.6587 -6.51817
634 3 12.6342 5.41467 21.6587 -6.38713
537 1 14.4391 3.60978 18.0489 -8.09491
538 2 16.244 5.41467 18.0489 -6.9721
539 1 16.244 3.60978 19.8538 -8.04653
540 1 14.4391 5.41467 19.8538 -8.28403
637 3 14.4391 3.60978 21.6587 -6.44099
638 2 16.244 5.41467 21.6587 -7.06186
541 1 0 7.21956 18.0489 -8.33656
542 3 1.80489 9.02445 18.0489 -6.49157
543 3 1.80489 7.21956 19.8538 -6.37683
544 3 0 9.02445 19.8538 -6.44119
641 2 0 7.21956 21.6587 -6.93515
642 3 1.80489 9.02445 21.6587 -6.4842
545 3 3.60978 7.21956 18.0489 -6.44924
546 1 5.41467 9.02445 18.0489 -8.3039
547 1 5.41467 7.21956 19.8538 -8.13552
548 3 3.60978 9.02445 19.8538 -6.43449
645 1 3.60978 7.21956 21.6587 -8.41719
646 3 5.41467 9.02445 21.6587 -6.48369
549 2 7.21956 7.21956 18.0489 -7.06968
550 3 9.02445 9.02445 18.0489 -6.3935
551 1 9.02445 7.21956 19.8538 -8.19059
552 3 7.21956 9.02445 19.8538 -6.48595
649 3 7.21956 7.21956 21.6587 -6.53314
650 3 9.02445 9.02445 21.6587 -6.55523
553 1 10.8293 7.21956 18.0489 -8.01142
554 2 12.6342 9.02445 18.0489 -7.04679
555 3 12.6342 7.21956 19.8538 -6.30058
556 1 10.8293 9.02445 19.8538 -8.23751
653 3 10.8293 7.21956 21.6587 -6.40979
654 1 12.6342 9.02445 21.6587 -8.20497
557 3 14.4391 7.21956 18.0489 -6.55416
558 2 16.244 9.02445 18.0489 -6.99735
559 3 16.244 7.21956 19.8538 -6.50278
560 1 14.4391 9.02445 19.8538 -8.4196
657 2 14.4391 7.21956 21.6587 -6.97658
658 2 16.244 9.02445 21.6587 -7.036
561 3 0 10.8293 18.0489 -6.35918
562 1 1.80489 12.6342 18.0489 -8.15172
563 2 1.80489 10.8293 19.8538 -6.99664
564 1 0 12.6342 19.8538 -8.07121
661 3 0 10.8293 21.6587 -6.34999
662 1 1.80489 12.6342 21.6587 -8.07826
565 2 3.60978 10.8293 18.0489 -6.99865
566 1 5.41467 12.6342 18.0489 -8.174
567 3 5.41467 10.8293 19.8538 -6.37037
568 1 3.60978 12.6342 19.8538 -8.00452
665 1 3.60978 10.8293 21.6587 -8.33486
666 1 5.41467 12.6342 21.6587 -8.16745
569 3 7.21956 10.8293 18.0489 -6.49402
570 2 9.02445 12.6342 18.0489 -7.02413
571 3 9.02445 10.8293 19.8538 -6.49645
572 3 7.21956 12.6342 19.8538 -6.41702
669 2 7.21956 10.8293 21.6587 -6.98001
670 1 9.02445 12.6342 21.6587 -8.24538
573 3 10.8293 10.8293 18.0489 -6.52499
574 2 12.6342 12.6342 18.0489 -7.17957
575 2 12.6342 10.8293 19.8538 -7.06401
576 1 10.8293 12.6342 19.8538 -8.2458
673 2 10.8293 10.8293 21.6587 -6.99435
674 2 12.6342 12.6342 21.6587 -6.9914
577 2 14.4391 10.8293 18.0489 -7.07921
578 1 16.244 12.6342 18.0489 -8.13445
579 3 16.244 10.8293 19.8538 -6.41701
580 1 14.4391 12.6342 19.8538 -8.28413
677 3 14.4391 10.8293 21.6587 -6.37196
678 3 16.244 12.6342 21.6587 -6.3145
581 3 0 14.4391 18.0489 -6.26351
582 2 1.80489 16.244 18.0489 -6.94913
583 2 1.80489 14.4391 19.8538 -7.02203
584 1 0 16.244 19.8538 -8.41717
681 2 0 14.4391 21.6587 -7.0719
682 2 1.80489 16.244 21.6587 -7.07125
585 1 3.60978 14.4391 18.0489 -8.00347
586 3 5.41467 16.244 18.0489 -6.48364
587 2 5.41467 14.4391 19.8538 -7.04052
588 1 3.60978 16.244 19.8538 -8.44468
685 3 3.60978 14.4391 21.6587 -6.33975
686 3 5.41467 16.244 21.6587 -6.33749
589 1 7.21956 14.4391 18.0489 -8.19187
590 2 9.02445 16.244 18.0489 -7.15197
591 2 9.02445 14.4391 19.8538 -7.0918
592 1 7.21956 16.244 19.8538 -8.21156
689 1 7.21956 14.4391 21.6587 -8.14323
690 2 9.02445 16.244 21.6587 -6.93699
593 3 10.8293 14.4391 18.0489 -6.71459
594 2 12.6342 16.244 18.0489 -7.09068
595 2 12.6342 14.4391 19.8538 -7.1286
596 1 10.8293 16.244 19.8538 -8.2377
693 1 10.8293 14.4391 21.6587 -8.03281
694 1 12.6342 16.244 21.6587 -8.05178
597 2 14.4391 14.4391 18.0489 -7.05418
598 3 16.244 16.244 18.0489 -6.54693
599 3 16.244 14.4391 19.8538 -6.37285
600 1 14.4391 16.244 19.8538 -8.35426
697 1 14.4391 14.4391 21.6587 -8.10897
698 3 16.244 16.244 21.6587 -6.3472
603 2 1.80489 0 23.4636 -7.07774
604 2 0 1.80489 23.4636 -6.9923
701 2 0 0 25.2684 -7.09394
702 3 1.80489 1.80489 25.2684 -6.55376
607 3 5.41467 0 23.4636 -6.40228
608 1 3.60978 1.80489 23.4636 -8.37669
703 3 3.60978 0 25.2684 -6.5773
704 3 5.41467 1.80489 25.2684 -6.40874
611 2 9.02445 0 23.4636 -7.06419
612 1 7.21956 1.80489 23.4636 -8.23209
705 2 7.21956 0 25.2684 -7.0021
706 1 9.02445 1.80489 25.2684 -8.19648
615 3 12.6342 0 23.4636 -6.46938
616 3 10.8293 1.80489 23.4636 -6.62379
707 2 10.8293 0 25.2684 -7.10913
708 2 12.6342 1.80489 25.2684 -7.09881
619 1 16.244 0 23.4636 -8.17561
620 3 14.4391 1.80489 23.4636 -6.48769
709 1 14.4391 0 25.2684 -8.09551
710 2 16.244 1.80489 25.2684 -7.01521
623 1 1.80489 3.60978 23.4636 -8.47589
624 3 0 5.41467 23.4636 -6.35742
711 3 0 3.60978 25.2684 -6.37916
712 3 1.80489 5.41467 25.2684 -6.43542
627 3 5.41467 3.60978 23.4636 -6.35896
628 2 3.60978 5.41467 23.4636 -6.92004
713 3 3.60978 3.60978 25.2684 -6.33952
714 1 5.41467 5.41467 25.2684 -8.2504
631 3 9.02445 3.60978 23.4636 -6.50028
632 2 7.21956 5.41467 23.4636 -7.00837
715 2 7.21956 3.60978 25.2684 -7.03334
716 1 9.02445 5.41467 25.2684 -8.27827
635 2 12.6342 3.60978 23.4636 -7.03797
636 3 10.8293 5.41467 23.4636 -6.65612
717 2 10.8293 3.60978 25.2684 -7.09424
718 2 12.6342 5.41467 25.2684 -7.05842
639 2 16.244 3.60978 23.4636 -6.97163
640 1 14.4391 5.41467 23.4636 -8.24149
719 1 14.4391 3.60978 25.2684 -8.17536
720 3 16.244 5.41467 25.2684 -6.29587
643 2 1.80489 7.21956 23.4636 -6.91175
644 3 0 9.02445 23.4636 -6.43937
721 1 0 7.21956 25.2684 -8.3424
722 1 1.80489 9.02445 25.2684 -8.2967
647 3 5.41467 7.21956 23.4636 -6.51017
648 3 3.60978 9.02445 23.4636 -6.39354
723 3 3.60978 7.21956 25.2684 -6.45771
724 1 5.41467 9.02445 25.2684 -8.25858
651 2 9.02445 7.21956 23.4636 -7.05609
652 2 7.21956 9.02445 23.4636 -7.0757
725 2 7.21956 7.21956 25.2684 -7.09551
726 3 9.02445 9.02445 25.2684 -6.60492
655 2 12.6342 7.21956 23.4636 -7.04835
656 1 10.8293 9.02445 23.4636 -8.38651
727 3 10.8293 7.21956 25.2684 -6.5647
728 2 12.6342 9.02445 25.2684 -7.01235
659 2 16.244 7.21956 23.4636 -7.07942
660 1 14.4391 9.02445 23.4636 -8.31415
729 1 14.4391 7.21956 25.2684 -8.15322
730 2 16.244 9.02445 25.2684 -7.10085
663 2 1.80489 10.8293 23.4636 -6.9955
664 1 0 12.6342 23.4636 -8.37432
731 2 0 10.8293 25.2684 -7.03838
732 3 1.80489 12.6342 25.2684 -6.51021
667 3 5.41467 10.8293 23.4636 -6.40582
668 1 3.60978 12.6342 23.4636 -8.20484
733 1 3.60978 10.8293 25.2684 -8.26479
734 3 5.41467 12.6342 25.2684 -6.46896
671 2 9.02445 10.8293 23.4636 -7.09319
672 2 7.21956 12.6342 23.4636 -6.96385
735 2 7.21956 10.8293 25.2684 -7.01686
736 1 9.02445 12.6342 25.2684 -8.32238
675 3 12.6342 10.8293 23.4636 -6.38222
676 3 10.8293 12.6342 23.4636 -6.44942
737 2 10.8293 10.8293 25.2684 -7.07072
738 1 12.6342 12.6342 25.2684 -8.29245
679 3 16.244 10.8293 23.4636 -6.49257
680 1 14.4391 12.6342 23.4636 -8.21884
739 3 14.4391 10.8293 25.2684 -6.5375
740 1 16.244 12.6342 25.2684 -8.24766
683 2 1.80489 14.4391 23.4636 -7.00336
684 3 0 16.244 23.4636 -6.75824
741 3 0 14.4391 25.2684 -6.67368
742 2 1.80489 16.244 25.2684 -7.0959
687 3 5.41467 14.4391 23.4636 -6.37913
688 1 3.60978 16.244 23.4636 -8.43217
743 3 3.60978 14.4391 25.2684 -6.55617
744 2 5.41467 16.244 25.2684 -7.10678
691 3 9.02445 14.4391 23.4636 -6.36493
692 1 7.21956 16.244 23.4636 -8.28203
745 2 7.21956 14.4391 25.2684 -6.95699
746 3 9.02445 16.244 25.2684 -6.40048
695 2 12.6342 14.4391 23.4636 -7.03449
696 1 10.8293 16.244 23.4636 -8.41162
747 3 10.8293 14.4391 25.2684 -6.34576
748 3 12.6342 16.244 25.2684 -6.27459
699 3 16.244 14.4391 23.4636 -6.31562
700 1 14.4391 16.244 23.4636 -8.15676
749 1 14.4391 14.4391 25.2684 -7.99179
750 1 16.244 16.244 25.2684 -8.13546
751 3 1.80489 0 27.0733 -6.60142
752 3 0 1.80489 27.0733 -6.45776
801 2 0 0 28.8782 -7.00164
802 1 1.80489 1.80489 28.8782 -8.2546
803 2 1.80489 0 30.6831 -6.97462
804 3 0 1.80489 30.6831 -6.43633
753 2 5.41467 0 27.0733 -7.08398
754 3 3.60978 1.80489 27.0733 -6.53095
805 2 3.60978 0 28.8782 -7.11053
806 2 5.41467 1.80489 28.8782 -7.06975
807 2 5.41467 0 30.6831 -7.05835
808 1 3.60978 1.80489 30.6831 -8.27369
755 3 9.02445 0 27.0733 -6.5061
756 1 7.21956 1.80489 27.0733 -8.12922
809 3 7.21956 0 28.8782 -6.41675
810 1 9.02445 1.80489 28.8782 -8.08005
811 2 9.02445 0 30.6831 -6.99993
812 1 7.21956 1.80489 30.6831 -8.26671
757 2 12.6342 0 27.0733 -7.17262
758 1 10.8293 1.80489 27.0733 -8.14119
813 2 10.8293 0 28.8782 -7.12161
814 2 12.6342 1.80489 28.8782 -7.06489
815 3 12.6342 0 30.6831 -6.50371
816 1 10.8293 1.80489 30.6831 -8.167
759 2 16.244 0 27.0733 -7.02903
760 1 14.4391 1.80489 27.0733 -8.12347
817 3 14.4391 0 28.8782 -6.6624
818 3 16.244 1.80489 28.8782 -6.5859
819 2 16.244 0 30.6831 -7.04343
820 1 14.4391 1.80489 30.6831 -8.19507
761 3 1.80489 3.60978 27.0733 -6.38047
762 3 0 5.41467 27.0733 -6.29582
821 1 0 3.60978 28.8782 -8.45524
822 3 1.80489 5.41467 28.8782 -6.35053
823 2 1.80489 3.60978 30.6831 -6.99287
824 3 0 5.41467 30.6831 -6.36696
763 1 5.41467 3.60978 27.0733 -8.10701
764 1 3.60978 5.41467 27.0733 -8.34874
825 1 3.60978 3.60978 28.8782 -8.13668
826 3 5.41467 5.41467 28.8782 -6.47855
827 2 5.41467 3.60978 30.6831 -7.04241
828 1 3.60978 5.41467 30.6831 -8.22695
765 2 9.02445 3.60978 27.0733 -7.11155
766 1 7.21956 5.41467 27.0733 -8.16624
829 2 7.21956 3.60978 28.8782 -7.14887
830 2 9.02445 5.41467 28.8782 -7.06422
831 2 9.02445 3.60978 30.6831 -7.04624
832 2 7.21956 5.41467 30.6831 -7.04683
767 2 12.6342 3.60978 27.0733 -7.15478
768 1 10.8293 5.41467 27.0733 -8.30073
833 2 10.8293 3.60978 28.8782 -7.1493
834 2 12.6342 5.41467 28.8782 -6.99891
835 2 12.6342 3.60978 30.6831 -7.13118
836 1 10.8293 5.41467 30.6831 -8.19794
769 2 16.244 3.60978 27.0733 -7.01636
770 1 14.4391 5.41467 27.0733 -8.13904
837 1 14.4391 3.60978 28.8782 -8.03479