ITEM: TIMESTEP
0
ITEM: NUMBER OF ATOMS
4000
ITEM: BOX BOUNDS pp pp pp
0.0000000000000000e+00 3.6097780000000000e+01
0.0000000000000000e+00 3.6097780000000000e+01
0.0000000000000000e+00 3.6097780000000000e+01
ITEM: ATOMS id type x y z c_peratom
1 3 0 0 0 -6.36652
2 1 1.80489 1.80489 0 -8.4816
3 2 1.80489 0 1.80489 -7.06266
4 2 0 1.80489 1.80489 -7.03051
101 1 0 0 3.60978 -8.25569
102 2 1.80489 1.80489 3.60978 -7.01197
5 3 3.60978 0 0 -6.48677
6 2 5.41467 1.80489 0 -7.00569
7 3 5.41467 0 1.80489 -6.54291
8 3 3.60978 1.80489 1.80489 -6.53814
105 2 3.60978 0 3.60978 -6.99143
106 1 5.41467 1.80489 3.60978 -8.2554
9 3 7.21956 0 0 -6.44553
10 3 9.02445 1.80489 0 -6.49611
11 1 9.02445 0 1.80489 -8.34046
12 2 7.21956 1.80489 1.80489 -7.07059
109 3 7.21956 0 3.60978 -6.47495
110 2 9.02445 1.80489 3.60978 -7.05188
13 2 10.8293 0 0 -6.98597
14 1 12.6342 1.80489 0 -8.26041
15 1 12.6342 0 1.80489 -8.29272
16 3 10.8293 1.80489 1.80489 -6.6042
113 3 10.8293 0 3.60978 -6.53321
114 2 12.6342 1.80489 3.60978 -7.07962
17 3 14.4391 0 0 -6.54398
18 2 16.244 1.80489 0 -6.95028
19 1 16.244 0 1.80489 -8.28442
20 2 14.4391 1.80489 1.80489 -7.01183
117 2 14.4391 0 3.60978 -7.00527
118 3 16.244 1.80489 3.60978 -6.33212
21 3 0 3.60978 0 -6.42328
22 2 1.80489 5.41467 0 -6.87049
23 2 1.80489 3.60978 1.80489 -7.04766
24 1 0 5.41467 1.80489 -8.50703
121 2 0 3.60978 3.60978 -7.04581
122 3 1.80489 5.41467 3.60978 -6.28009
25 1 3.60978 3.60978 0 -8.19474
26 2 5.41467 5.41467 0 -7.01503
27 2 5.41467 3.60978 1.80489 -7.13737
28 1 3.60978 5.41467 1.80489 -8.26966
125 1 3.60978 3.60978 3.60978 -8.20129
126 1 5.41467 5.41467 3.60978 -8.23835
29 2 7.21956 3.60978 0 -7.14959
30 2 9.02445 5.41467 0 -7.10038
31 2 9.02445 3.60978 1.80489 -7.17789
32 1 7.21956 5.41467 1.80489 -8.20964
129 2 7.21956 3.60978 3.60978 -7.09684
130 2 9.02445 5.41467 3.60978 -7.06723
33 2 10.8293 3.60978 0 -7.04879
34 1 12.6342 5.41467 0 -8.21409
35 3 12.6342 3.60978 1.80489 -6.57404
36 2 10.8293 5.41467 1.80489 -7.16119
133 2 10.8293 3.60978 3.60978 -7.16696
134 2 12.6342 5.41467 3.60978 -7.10987
37 1 14.4391 3.60978 0 -8.1617
38 3 16.244 5.41467 0 -6.39824
39 3 16.244 3.60978 1.80489 -6.37676
40 2 14.4391 5.41467 1.80489 -7.00673
137 1 14.4391 3.60978 3.60978 -8.37185
138 3 16.244 5.41467 3.60978 -6.49393
41 3 0 7.21956 0 -6.45914
42 3 1.80489 9.02445 0 -6.45371
43 3 1.80489 7.21956 1.80489 -6.40347
44 3 0 9.02445 1.80489 -6.44737
141 3 0 7.21956 3.60978 -6.35235
142 2 1.80489 9.02445 3.60978 -6.88604
45 3 3.60978 7.21956 0 -6.45481
46 2 5.41467 9.02445 0 -7.01298
47 3 5.41467 7.21956 1.80489 -6.41404
48 1 3.60978 9.02445 1.80489 -8.47132
145 3 3.60978 7.21956 3.60978 -6.22007
146 3 5.41467 9.02445 3.60978 -6.286
49 2 7.21956 7.21956 0 -7.09089
50 1 9.02445 9.02445 0 -8.10984
51 1 9.02445 7.21956 1.80489 -8.18376
52 2 7.21956 9.02445 1.80489 -6.90619
149 3 7.21956 7.21956 3.60978 -6.38276
150 3 9.02445 9.02445 3.60978 -6.56662
53 2 10.8293 7.21956 0 -7.08502
54 3 12.6342 9.02445 0 -6.66379
55 1 12.6342 7.21956 1.80489 -8.31963
56 2 10.8293 9.02445 1.80489 -7.07796
153 2 10.8293 7.21956 3.60978 -7.10403
154 2 12.6342 9.02445 3.60978 -7.11182
57 3 14.4391 7.21956 0 -6.61746
58 2 16.244 9.02445 0 -7.10531
59 2 16.244 7.21956 1.80489 -7.04608
60 2 14.4391 9.02445 1.80489 -7.09678
157 3 14.4391 7.21956 3.60978 -6.62755
158 3 16.244 9.02445 3.60978 -6.67863
61 1 0 10.8293 0 -8.31678
62 3 1.80489 12.6342 0 -6.53192
63 3 1.80489 10.8293 1.80489 -6.46052
64 2 0 12.6342 1.80489 -6.99127
161 3 0 10.8293 3.60978 -6.32961
162 1 1.80489 12.6342 3.60978 -8.39586
65 1 3.60978 10.8293 0 -8.36268
66 3 5.41467 12.6342 0 -6.51737
67 1 5.41467 10.8293 1.80489 -8.26316
68 2 3.60978 12.6342 1.80489 -7.01356
165 3 3.60978 10.8293 3.60978 -6.37249
166 2 5.41467 12.6342 3.60978 -6.96632
69 2 7.21956 10.8293 0 -7.01827
70 2 9.02445 12.6342 0 -7.05748
71 3 9.02445 10.8293 1.80489 -6.60418
72 1 7.21956 12.6342 1.80489 -8.37786
169 3 7.21956 10.8293 3.60978 -6.44799
170 3 9.02445 12.6342 3.60978 -6.59766
73 1 10.8293 10.8293 0 -8.40625
74 3 12.6342 12.6342 0 -6.72146
75 3 12.6342 10.8293 1.80489 -6.71232
76 2 10.8293 12.6342 1.80489 -6.98973
173 2 10.8293 10.8293 3.60978 -7.14382
174 1 12.6342 12.6342 3.60978 -8.37896
77 2 14.4391 10.8293 0 -7.10177
78 3 16.244 12.6342 0 -6.61656
79 2 16.244 10.8293 1.80489 -7.14563
80 2 14.4391 12.6342 1.80489 -7.11657
177 3 14.4391 10.8293 3.60978 -6.67769
178 3 16.244 12.6342 3.60978 -6.76722
81 3 0 14.4391 0 -6.40533
82 1 1.80489 16.244 0 -8.20287
83 2 1.80489 14.4391 1.80489 -7.03211
84 2 0 16.244 1.80489 -7.05031
181 2 0 14.4391 3.60978 -7.09013
182 1 1.80489 16.244 3.60978 -8.38603
85 3 3.60978 14.4391 0 -6.49437
86 1 5.41467 16.244 0 -8.12235
87 2 5.41467 14.4391 1.80489 -6.97129
88 3 3.60978 16.244 1.80489 -6.29602
185 2 3.60978 14.4391 3.60978 -7.08988
186 1 5.41467 16.244 3.60978 -8.2463
89 3 7.21956 14.4391 0 -6.43573
90 2 9.02445 16.244 0 -7.04089
91 1 9.02445 14.4391 1.80489 -8.39265
92 2 7.21956 16.244 1.80489 -6.99517
189 3 7.21956 14.4391 3.60978 -6.44519
190 3 9.02445 16.244 3.60978 -6.48274
93 2 10.8293 14.4391 0 -7.07953
94 1 12.6342 16.244 0 -8.36615
95 3 12.6342 14.4391 1.80489 -6.62286
96 2 10.8293 16.244 1.80489 -7.06155
193 3 10.8293 14.4391 3.60978 -6.60416
194 1 12.6342 16.244 3.60978 -8.31906
97 2 14.4391 14.4391 0 -7.10603
98 2 16.244 16.244 0 -7.11359
99 2 16.244 14.4391 1.80489 -7.13673
100 2 14.4391 16.244 1.80489 -7.0893
197 2 14.4391 14.4391 3.60978 -7.07421
198 1 16.244 16.244 3.60978 -8.46552
103 3 1.80489 0 5.41467 -6.3142
104 3 0 1.80489 5.41467 -6.43179
201 1 0 0 7.21956 -8.02895
202 1 1.80489 1.80489 7.21956 -8.33338
107 1 5.41467 0 5.41467 -8.07869
108 3 3.60978 1.80489 5.41467 -6.29752
203 1 3.60978 0 7.21956 -8.16727
204 1 5.41467 1.80489 7.21956 -8.00067
111 2 9.02445 0 5.41467 -7.03364
112 1 7.21956 1.80489 5.41467 -8.14044
205 2 7.21956 0 7.21956 -7.08316
206 1 9.02445 1.80489 7.21956 -8.28386
115 2 12.6342 0 5.41467 -7.04298
116 1 10.8293 1.80489 5.41467 -8.32845
207 3 10.8293 0 7.21956 -6.55508
208 2 12.6342 1.80489 7.21956 -6.96242
119 1 16.244 0 5.41467 -8.01394
120 1 14.4391 1.80489 5.41467 -8.23987
209 1 14.4391 0 7.21956 -8.26243
210 3 16.244 1.80489 7.21956 -6.38126
123 3 1.80489 3.60978 5.41467 -6.34801
124 1 0 5.41467 5.41467 -8.38562
211 3 0 3.60978 7.21956 -6.42357
212 1 1.80489 5.41467 7.21956 -8.04775
127 2 5.41467 3.60978 5.41467 -6.99871
128 1 3.60978 5.41467 5.41467 -7.98372
213 1 3.60978 3.60978 7.21956 -8.0183
214 1 5.41467 5.41467 7.21956 -8.16241
131 3 9.02445 3.60978 5.41467 -6.4675
132 3 7.21956 5.41467 5.41467 -6.42774
215 3 7.21956 3.60978 7.21956 -6.28967
216 3 9.02445 5.41467 7.21956 -6.3726
135 2 12.6342 3.60978 5.41467 -7.03427
136 1 10.8293 5.41467 5.41467 -8.32689
217 3 10.8293 3.60978 7.21956 -6.43672
218 3 12.6342 5.41467 7.21956 -6.42026
139 2 16.244 3.60978 5.41467 -6.98535
140 2 14.4391 5.41467 5.41467 -6.96714
219 3 14.4391 3.60978 7.21956 -6.49506
220 3 16.244 5.41467 7.21956 -6.5345
143 1 1.80489 7.21956 5.41467 -8.07076
144 1 0 9.02445 5.41467 -8.31015
221 2 0 7.21956 7.21956 -7.04588
222 3 1.80489 9.02445 7.21956 -6.34384
147 3 5.41467 7.21956 5.41467 -6.2016
148 1 3.60978 9.02445 5.41467 -8.16172
223 1 3.60978 7.21956 7.21956 -7.98311
224 1 5.41467 9.02445 7.21956 -8.19295
151 1 9.02445 7.21956 5.41467 -8.32955
152 1 7.21956 9.02445 5.41467 -8.32712
225 3 7.21956 7.21956 7.21956 -6.3172
226 2 9.02445 9.02445 7.21956 -6.98274
155 1 12.6342 7.21956 5.41467 -8.31521
156 2 10.8293 9.02445 5.41467 -7.0572
227 2 10.8293 7.21956 7.21956 -6.95992
228 3 12.6342 9.02445 7.21956 -6.54176
159 2 16.244 7.21956 5.41467 -7.01696
160 1 14.4391 9.02445 5.41467 -8.32037
229 3 14.4391 7.21956 7.21956 -6.42302
230 1 16.244 9.02445 7.21956 -7.98986
163 1 1.80489 10.8293 5.41467 -8.20437
164 3 0 12.6342 5.41467 -6.32088
231 3 0 10.8293 7.21956 -6.44297
232 3 1.80489 12.6342 7.21956 -6.48464
167 1 5.41467 10.8293 5.41467 -8.32683
168 2 3.60978 12.6342 5.41467 -6.97887
233 1 3.60978 10.8293 7.21956 -8.23044
234 3 5.41467 12.6342 7.21956 -6.5048
171 2 9.02445 10.8293 5.41467 -7.00253
172 3 7.21956 12.6342 5.41467 -6.47014
235 3 7.21956 10.8293 7.21956 -6.47368
236 1 9.02445 12.6342 7.21956 -8.34459
175 2 12.6342 10.8293 5.41467 -7.0631
176 2 10.8293 12.6342 5.41467 -7.08612
237 1 10.8293 10.8293 7.21956 -8.33284
238 1 12.6342 12.6342 7.21956 -8.23226
179 2 16.244 10.8293 5.41467 -7.0633
180 3 14.4391 12.6342 5.41467 -6.57834
239 2 14.4391 10.8293 7.21956 -6.95609
240 1 16.244 12.6342 7.21956 -8.14609
183 2 1.80489 14.4391 5.41467 -6.94613
184 2 0 16.244 5.41467 -7.02405
241 3 0 14.4391 7.21956 -6.40687
242 1 1.80489 16.244 7.21956 -8.43275
187 1 5.41467 14.4391 5.41467 -8.42453
188 3 3.60978 16.244 5.41467 -6.4247
243 3 3.60978 14.4391 7.21956 -6.51974
244 2 5.41467 16.244 7.21956 -6.94782
191 2 9.02445 14.4391 5.41467 -6.99959
192 1 7.21956 16.244 5.41467 -8.20472
245 3 7.21956 14.4391 7.21956 -6.51655
246 2 9.02445 16.244 7.21956 -6.92572
195 2 12.6342 14.4391 5.41467 -7.05382
196 2 10.8293 16.244 5.41467 -6.99264
247 1 10.8293 14.4391 7.21956 -8.17743
248 3 12.6342 16.244 7.21956 -6.56935
199 2 16.244 14.4391 5.41467 -7.0738
200 3 14.4391 16.244 5.41467 -6.49988
249 2 14.4391 14.4391 7.21956 -7.03395
250 1 16.244 16.244 7.21956 -8.20646
251 3 1.80489 0 9.02445 -6.12458
252 3 0 1.80489 9.02445 -6.30663
301 1 0 0 10.8293 -8.03534
302 1 1.80489 1.80489 10.8293 -8.23124
303 3 1.80489 0 12.6342 -6.43314
304 2 0 1.80489 12.6342 -6.98247
253 3 5.41467 0 9.02445 -6.31974
254 2 3.60978 1.80489 9.02445 -6.9697
305 1 3.60978 0 10.8293 -8.19103
306 3 5.41467 1.80489 10.8293 -6.35257
307 2 5.41467 0 12.6342 -6.98301
308 1 3.60978 1.80489 12.6342 -8.34721
255 2 9.02445 0 9.02445 -6.98116
256 1 7.21956 1.80489 9.02445 -8.28674
309 3 7.21956 0 10.8293 -6.49074
310 2 9.02445 1.80489 10.8293 -7.00337
311 1 9.02445 0 12.6342 -8.20313
312 1 7.21956 1.80489 12.6342 -8.32249
257 3 12.6342 0 9.02445 -6.5286
258 3 10.8293 1.80489 9.02445 -6.58596
313 3 10.8293 0 10.8293 -6.53205
314 3 12.6342 1.80489 10.8293 -6.47178
315 1 12.6342 0 12.6342 -8.20674
316 2 10.8293 1.80489 12.6342 -7.0709
259 3 16.244 0 9.02445 -6.5181
260 1 14.4391 1.80489 9.02445 -8.34845
317 2 14.4391 0 10.8293 -7.01123
318 2 16.244 1.80489 10.8293 -6.99252
319 1 16.244 0 12.6342 -8.21016
320 3 14.4391 1.80489 12.6342 -6.47343
261 2 1.80489 3.60978 9.02445 -6.98337
262 2 0 5.41467 9.02445 -7.07004
321 2 0 3.60978 10.8293 -7.08368
322 2 1.80489 5.41467 10.8293 -7.08553
323 2 1.80489 3.60978 12.6342 -7.05538
324 2 0 5.41467 12.6342 -7.07775
263 1 5.41467 3.60978 9.02445 -8.09661
264 3 3.60978 5.41467 9.02445 -6.34464
325 3 3.60978 3.60978 10.8293 -6.41978
326 1 5.41467 5.41467 10.8293 -8.40328
327 3 5.41467 3.60978 12.6342 -6.31876
328 3 3.60978 5.41467 12.6342 -6.47625
265 2 9.02445 3.60978 9.02445 -6.93371
266 1 7.21956 5.41467 9.02445 -8.16032
329 3 7.21956 3.60978 10.8293 -6.40909
330 2 9.02445 5.41467 10.8293 -7.07242
331 2 9.02445 3.60978 12.6342 -7.06184
332 2 7.21956 5.41467 12.6342 -6.95976
267 3 12.6342 3.60978 9.02445 -6.41832
268 1 10.8293 5.41467 9.02445 -8.31314
333 1 10.8293 3.60978 10.8293 -8.37248
334 2 12.6342 5.41467 10.8293 -7.05137
335 2 12.6342 3.60978 12.6342 -7.02544
336 3 10.8293 5.41467 12.6342 -6.54908
269 2 16.244 3.60978 9.02445 -6.95414
270 1 14.4391 5.41467 9.02445 -8.38729
337 1 14.4391 3.60978 10.8293 -8.32999
338 3 16.244 5.41467 10.8293 -6.5162
339 2 16.244 3.60978 12.6342 -7.00679
340 2 14.4391 5.41467 12.6342 -7.01774
271 1 1.80489 7.21956 9.02445 -8.32258
272 2 0 9.02445 9.02445 -7.09062
341 2 0 7.21956 10.8293 -7.10381
342 3 1.80489 9.02445 10.8293 -6.51663
343 3 1.80489 7.21956 12.6342 -6.53789
344 1 0 9.02445 12.6342 -8.24177
273 2 5.41467 7.21956 9.02445 -6.92143
274 3 3.60978 9.02445 9.02445 -6.35795
345 2 3.60978 7.21956 10.8293 -6.96889
346 1 5.41467 9.02445 10.8293 -8.24217
347 3 5.41467 7.21956 12.6342 -6.39868
348 1 3.60978 9.02445 12.6342 -8.16263
275 1 9.02445 7.21956 9.02445 -8.33385
276 3 7.21956 9.02445 9.02445 -6.45449
349 2 7.21956 7.21956 10.8293 -7.00523
350 2 9.02445 9.02445 10.8293 -6.9419
351 3 9.02445 7.21956 12.6342 -6.54364
352 3 7.21956 9.02445 12.6342 -6.4352
277 3 12.6342 7.21956 9.02445 -6.54065
278 3 10.8293 9.02445 9.02445 -6.53311
353 2 10.8293 7.21956 10.8293 -6.92861
354 3 12.6342 9.02445 10.8293 -6.42264
355 1 12.6342 7.21956 12.6342 -8.29034
356 3 10.8293 9.02445 12.6342 -6.48331
279 1 16.244 7.21956 9.02445 -8.26017
280 3 14.4391 9.02445 9.02445 -6.45248
357 2 14.4391 7.21956 10.8293 -6.95234
358 2 16.244 9.02445 10.8293 -6.97626
359 1 16.244 7.21956 12.6342 -8.23911
360 1 14.4391 9.02445 12.6342 -8.07178
281 2 1.80489 10.8293 9.02445 -6.9778
282 2 0 12.6342 9.02445 -7.0079
361 2 0 10.8293 10.8293 -7.087
362 3 1.80489 12.6342 10.8293 -6.43174
363 2 1.80489 10.8293 12.6342 -6.99645
364 1 0 12.6342 12.6342 -8.09213
283 2 5.41467 10.8293 9.02445 -6.91176
284 3 3.60978 12.6342 9.02445 -6.48927
365 1 3.60978 10.8293 10.8293 -8.2644
366 3 5.41467 12.6342 10.8293 -6.51317
367 1 5.41467 10.8293 12.6342 -8.1678
368 1 3.60978 12.6342 12.6342 -8.27289
285 3 9.02445 10.8293 9.02445 -6.47602
286 2 7.21956 12.6342 9.02445 -7.05371
369 1 7.21956 10.8293 10.8293 -8.37363
370 2 9.02445 12.6342 10.8293 -7.03756
371 3 9.02445 10.8293 12.6342 -6.63216
372 2 7.21956 12.6342 12.6342 -7.01739
287 2 12.6342 10.8293 9.02445 -6.87955
288 3 10.8293 12.6342 9.02445 -6.47104
373 1 10.8293 10.8293 10.8293 -8.51405
374 3 12.6342 12.6342 10.8293 -6.56244
375 1 12.6342 10.8293 12.6342 -8.17481
376 3 10.8293 12.6342 12.6342 -6.68047
289 1 16.244 10.8293 9.02445 -8.22869
290 3 14.4391 12.6342 9.02445 -6.52926
377 1 14.4391 10.8293 10.8293 -8.29028
378 3 16.244 12.6342 10.8293 -6.58561
379 3 16.244 10.8293 12.6342 -6.37945
380 2 14.4391 12.6342 12.6342 -7.03109
291 1 1.80489 14.4391 9.02445 -8.34806
292 1 0 16.244 9.02445 -8.39804
381 1 0 14.4391 10.8293 -8.11745
382 2 1.80489 16.244 10.8293 -6.96587
383 2 1.80489 14.4391 12.6342 -6.97385
384 1 0 16.244 12.6342 -8.13548
293 2 5.41467 14.4391 9.02445 -7.05485
294 2 3.60978 16.244 9.02445 -6.96663
385 3 3.60978 14.4391 10.8293 -6.51248
386 2 5.41467 16.244 10.8293 -7.02173
387 3 5.41467 14.4391 12.6342 -6.44395
388 1 3.60978 16.244 12.6342 -8.38655
295 3 9.02445 14.4391 9.02445 -6.44036
296 1 7.21956 16.244 9.02445 -8.19654
389 2 7.21956 14.4391 10.8293 -7.05912
390 1 9.02445 16.244 10.8293 -8.12511
391 2 9.02445 14.4391 12.6342 -7.09968
392 1 7.21956 16.244 12.6342 -8.16434
297 2 12.6342 14.4391 9.02445 -7.06479
298 1 10.8293 16.244 9.02445 -8.1376
393 2 10.8293 14.4391 10.8293 -7.07599
394 2 12.6342 16.244 10.8293 -7.05816
395 2 12.6342 14.4391 12.6342 -7.10057
396 1 10.8293 16.244 12.6342 -8.26369
299 2 16.244 14.4391 9.02445 -7.04046
300 2 14.4391 16.244 9.02445 -7.04543
397 3 14.4391 14.4391 10.8293 -6.7397
398 3 16.244 16.244 10.8293 -6.63126
399 2 16.244 14.4391 12.6342 -7.12861
400 2 14.4391 16.244 12.6342 -7.05013
401 3 0 0 14.4391 -6.48128
402 3 1.80489 1.80489 14.4391 -6.46595
403 3 1.80489 0 16.244 -6.41465
404 1 0 1.80489 16.244 -8.5091
405 2 3.60978 0 14.4391 -6.96301
406 1 5.41467 1.80489 14.4391 -8.22963
407 1 5.41467 0 16.244 -8.09169
408 1 3.60978 1.80489 16.244 -8.42572
409 3 7.21956 0 14.4391 -6.25269
410 1 9.02445 1.80489 14.4391 -8.10381
411 1 9.02445 0 16.244 -8.14365
412 3 7.21956 1.80489 16.244 -6.326
413 1 10.8293 0 14.4391 -8.0028
414 2 12.6342 1.80489 14.4391 -7.03334
415 3 12.6342 0 16.244 -6.45478
416 2 10.8293 1.80489 16.244 -7.08484
417 2 14.4391 0 14.4391 -6.95639
418 1 16.244 1.80489 14.4391 -8.09331
419 1 16.244 0 16.244 -7.95977
420 1 14.4391 1.80489 16.244 -8.10884
421 2 0 3.60978 14.4391 -6.99934
422 1 1.80489 5.41467 14.4391 -8.42415
423 3 1.80489 3.60978 16.244 -6.40404
424 1 0 5.41467 16.244 -8.24302
425 3 3.60978 3.60978 14.4391 -6.33311
426 1 5.41467 5.41467 14.4391 -8.385
427 3 5.41467 3.60978 16.244 -6.32684
428 3 3.60978 5.41467 16.244 -6.41906
429 3 7.21956 3.60978 14.4391 -6.30029
430 3 9.02445 5.41467 14.4391 -6.41383
431 1 9.02445 3.60978 16.244 -8.10847
432 1 7.21956 5.41467 16.244 -8.11745
433 2 10.8293 3.60978 14.4391 -7.01484
434 3 12.6342 5.41467 14.4391 -6.42651
435 3 12.6342 3.60978 16.244 -6.46252
436 1 10.8293 5.41467 16.244 -8.29215
437 1 14.4391 3.60978 14.4391 -8.41771
438 3 16.244 5.41467 14.4391 -6.43697
439 3 16.244 3.60978 16.244 -6.42734
440 3 14.4391 5.41467 16.244 -6.4085
441 2 0 7.21956 14.4391 -6.98762
442 1 1.80489 9.02445 14.4391 -8.21061
443 2 1.80489 7.21956 16.244 -7.00772
444 3 0 9.02445 16.244 -6.56896
445 2 3.60978 7.21956 14.4391 -6.92759
446 3 5.41467 9.02445 14.4391 -6.37842
447 1 5.41467 7.21956 16.244 -8.28949
448 3 3.60978 9.02445 16.244 -6.56241
449 1 7.21956 7.21956 14.4391 -8.41254
450 3 9.02445 9.02445 14.4391 -6.55008
451 3 9.02445 7.21956 16.244 -6.39587
452 2 7.21956 9.02445 16.244 -6.90625
453 1 10.8293 7.21956 14.4391 -8.33625
454 2 12.6342 9.02445 14.4391 -7.08725
455 1 12.6342 7.21956 16.244 -8.25345
456 2 10.8293 9.02445 16.244 -7.04349
457 2 14.4391 7.21956 14.4391 -6.89919
458 3 16.244 9.02445 14.4391 -6.24175
459 1 16.244 7.21956 16.244 -8.2455
460 1 14.4391 9.02445 16.244 -8.01667
461 1 0 10.8293 14.4391 -7.88413
462 1 1.80489 12.6342 14.4391 -8.05408
463 2 1.80489 10.8293 16.244 -7.01723
464 1 0 12.6342 16.244 -8.11301
465 3 3.60978 10.8293 14.4391 -6.39172
466 2 5.41467 12.6342 14.4391 -6.99835
467 1 5.41467 10.8293 16.244 -8.52613
468 2 3.60978 12.6342 16.244 -7.03545
469 3 7.21956 10.8293 14.4391 -6.61941
470 2 9.02445 12.6342 14.4391 -7.17267
471 2 9.02445 10.8293 16.244 -7.16477
472 2 7.21956 12.6342 16.244 -7.09094
473 2 10.8293 10.8293 14.4391 -7.06702
474 2 12.6342 12.6342 14.4391 -7.09298
475 3 12.6342 10.8293 16.244 -6.55491
476 2 10.8293 12.6342 16.244 -7.09956
477 1 14.4391 10.8293 14.4391 -8.12538
478 2 16.244 12.6342 14.4391 -7.04667
479 2 16.244 10.8293 16.244 -7.08049
480 1 14.4391 12.6342 16.244 -8.26779
481 2 0 14.4391 14.4391 -7.10174
482 1 1.80489 16.244 14.4391 -7.98247
483 1 1.80489 14.4391 16.244 -8.18227
484 2 0 16.244 16.244 -7.08086
485 3 3.60978 14.4391 14.4391 -6.40518
486 3 5.41467 16.244 14.4391 -6.41145
487 1 5.41467 14.4391 16.244 -8.39748
488 2 3.60978 16.244 16.244 -6.99267
489 1 7.21956 14.4391 14.4391 -8.25496
490 3 9.02445 16.244 14.4391 -6.49847
491 2 9.02445 14.4391 16.244 -7.05152
492 3 7.21956 16.244 16.244 -6.47911
493 3 10.8293 14.4391 14.4391 -6.70861
494 2 12.6342 16.244 14.4391 -6.99558
495 3 12.6342 14.4391 16.244 -6.52884
496 3 10.8293 16.244 16.244 -6.62039
497 3 14.4391 14.4391 14.4391 -6.65291
498 3 16.244 16.244 14.4391 -6.54416
499 2 16.244 14.4391 16.244 -7.0216
500 1 14.4391 16.244 16.244 -8.52608
501 1 0 0 18.0489 -8.32055
502 3 1.80489 1.80489 18.0489 -6.45522
503 2 1.80489 0 19.8538 -6.96946
504 3 0 1.80489 19.8538 -6.39062
601 1 0 0 21.6587 -8.24685
602 3 1.80489 1.80489 21.6587 -6.38527
505 2 3.60978 0 18.0489 -6.99596
506 2 5.41467 1.80489 18.0489 -6.94385
507 3 5.41467 0 19.8538 -6.53459
508 3 3.60978 1.80489 19.8538 -6.47087
605 3 3.60978 0 21.6587 -6.3072
606 1 5.41467 1.80489 21.6587 -8.09915
509 2 7.21956 0 18.0489 -7.12699
510 2 9.02445 1.80489 18.0489 -7.07387
511 2 9.02445 0 19.8538 -7.18056
512 2 7.21956 1.80489 19.8538 -7.09731
609 2 7.21956 0 21.6587 -7.09912
610 3 9.02445 1.80489 21.6587 -6.50384
513 2 10.8293 0 18.0489 -7.09648
514 2 12.6342 1.80489 18.0489 -7.07583
515 2 12.6342 0 19.8538 -7.12954
516 1 10.8293 1.80489 19.8538 -8.3378
613 3 10.8293 0 21.6587 -6.67268
614 2 12.6342 1.80489 21.6587 -7.15157
517 1 14.4391 0 18.0489 -8.05195
518 3 16.244 1.80489 18.0489 -6.33871
519 1 16.244 0 19.8538 -8.12193
520 2 14.4391 1.80489 19.8538 -7.07792
617 2 14.4391 0 21.6587 -7.18446
618 2 16.244 1.80489 21.6587 -7.06077
521 2 0 3.60978 18.0489 -6.9914
522 1 1.80489 5.41467 18.0489 -8.30587
523 1 1.80489 3.60978 19.8538 -8.37015
524 2 0 5.41467 19.8538 -7.01913
621 3 0 3.60978 21.6587 -6.28812
622 1 1.80489 5.41467 21.6587 -8.12751
525 3 3.60978 3.60978 18.0489 -6.40486
526 3 5.41467 5.41467 18.0489 -6.41092
527 1 5.41467 3.60978 19.8538 -8.14561
528 2 3.60978 5.41467 19.8538 -7.06487
625 2 3.60978 3.60978 21.6587 -6.97215
626 1 5.41467 5.41467 21.6587 -8.14139
529 1 7.21956 3.60978 18.0489 -8.13889
530 2 9.02445 5.41467 18.0489 -7.02017
531 1 9.02445 3.60978 19.8538 -8.22217
532 2 7.21956 5.41467 19.8538 -7.00372
629 1 7.21956 3.60978 21.6587 -8.1507
630 3 9.02445 5.41467 21.6587 -6.468
533 3 10.8293 3.60978 18.0489 -6.50272
534 3 12.6342 5.41467 18.0489 -6.44569
535 2 12.6342 3.60978 19.8538 -7.03795
536 3 10.8293 5.41467 19.8538 -6.62143
633 2 10.8293 3.60978 21.6587 -7.026
634 2 12.6342 5.41467 21.6587 -7.04578
537 1 14.4391 3.60978 18.0489 -8.33518
538 3 16.244 5.41467 18.0489 -6.45451
539 2 16.244 3.60978 19.8538 -6.96306
540 1 14.4391 5.41467 19.8538 -8.3721
637 3 14.4391 3.60978 21.6587 -6.60277
638 2 16.244 5.41467 21.6587 -7.01993
541 3 0 7.21956 18.0489 -6.59782
542 2 1.80489 9.02445 18.0489 -7.08089
543 2 1.80489 7.21956 19.8538 -7.03432
544 3 0 9.02445 19.8538 -6.53054
641 1 0 7.21956 21.6587 -8.09997
642 1 1.80489 9.02445 21.6587 -8.31382
545 2 3.60978 7.21956 18.0489 -7.06073
546 3 5.41467 9.02445 18.0489 -6.54346
547 2 5.41467 7.21956 19.8538 -7.0362
548 3 3.60978 9.02445 19.8538 -6.64073
645 1 3.60978 7.21956 21.6587 -8.20311
646 2 5.41467 9.02445 21.6587 -7.01864
549 1 7.21956 7.21956 18.0489 -8.28915
550 3 9.02445 9.02445 18.0489 -6.60174
551 3 9.02445 7.21956 19.8538 -6.55169
552 1 7.21956 9.02445 19.8538 -8.32353
649 2 7.21956 7.21956 21.6587 -6.92448
650 3 9.02445 9.02445 21.6587 -6.46148
553 3 10.8293 7.21956 18.0489 -6.57532
554 2 12.6342 9.02445 18.0489 -7.06779
555 2 12.6342 7.21956 19.8538 -7.03205
556 3 10.8293 9.02445 19.8538 -6.64655
653 3 10.8293 7.21956 21.6587 -6.55666
654 1 12.6342 9.02445 21.6587 -8.48217
557 2 14.4391 7.21956 18.0489 -6.9819
558 1 16.244 9.02445 18.0489 -8.00498
559 3 16.244 7.21956 19.8538 -6.4787
560 1 14.4391 9.02445 19.8538 -8.15712
657 2 14.4391 7.21956 21.6587 -7.02772
658 2 16.244 9.02445 21.6587 -7.00044
561 3 0 10.8293 18.0489 -6.62257
562 2 1.80489 12.6342 18.0489 -7.11605
563 3 1.80489 10.8293 19.8538 -6.62172
564 2 0 12.6342 19.8538 -7.07604
661 2 0 10.8293 21.6587 -6.95691
662 3 1.80489 12.6342 21.6587 -6.52224
565 2 3.60978 10.8293 18.0489 -7.14632
566 2 5.41467 12.6342 18.0489 -7.10299
567 2 5.41467 10.8293 19.8538 -7.01663
568 1 3.60978 12.6342 19.8538 -8.36071
665 3 3.60978 10.8293 21.6587 -6.54756
666 2 5.41467 12.6342 21.6587 -7.0861
569 3 7.21956 10.8293 18.0489 -6.58749
570 3 9.02445 12.6342 18.0489 -6.665
571 2 9.02445 10.8293 19.8538 -6.99462
572 1 7.21956 12.6342 19.8538 -8.25969
669 1 7.21956 10.8293 21.6587 -8.06906
670 2 9.02445 12.6342 21.6587 -7.00488
573 2 10.8293 10.8293 18.0489 -7.12507
574 3 12.6342 12.6342 18.0489 -6.53328
575 2 12.6342 10.8293 19.8538 -7.07238
576 3 10.8293 12.6342 19.8538 -6.614
673 3 10.8293 10.8293 21.6587 -6.50247
674 1 12.6342 12.6342 21.6587 -8.37902
577 1 14.4391 10.8293 18.0489 -8.06033
578 1 16.244 12.6342 18.0489 -8.03157
579 2 16.244 10.8293 19.8538 -7.12457
580 2 14.4391 12.6342 19.8538 -7.04279
677 2 14.4391 10.8293 21.6587 -7.06971
678 2 16.244 12.6342 21.6587 -7.0083
581 2 0 14.4391 18.0489 -7.19599
582 3 1.80489 16.244 18.0489 -6.60654
583 2 1.80489 14.4391 19.8538 -7.02668
584 2 0 16.244 19.8538 -7.07392
681 1 0 14.4391 21.6587 -8.45685
682 1 1.80489 16.244 21.6587 -8.335
585 2 3.60978 14.4391 18.0489 -7.06084
586 3 5.41467 16.244 18.0489 -6.37668
587 1 5.41467 14.4391 19.8538 -8.24627
588 3 3.60978 16.244 19.8538 -6.41511
685 3 3.60978 14.4391 21.6587 -6.445
686 3 5.41467 16.244 21.6587 -6.37885
589 2 7.21956 14.4391 18.0489 -7.01548
590 2 9.02445 16.244 18.0489 -7.05267
591 3 9.02445 14.4391 19.8538 -6.52549
592 1 7.21956 16.244 19.8538 -8.03924
689 2 7.21956 14.4391 21.6587 -7.07372
690 1 9.02445 16.244 21.6587 -8.22123
593 1 10.8293 14.4391 18.0489 -8.55042
594 3 12.6342 16.244 18.0489 -6.44324
595 3 12.6342 14.4391 19.8538 -6.48103
596 2 10.8293 16.244 19.8538 -6.96252
693 2 10.8293 14.4391 21.6587 -7.00219
694 1 12.6342 16.244 21.6587 -8.1391
597 3 14.4391 14.4391 18.0489 -6.41298
598 1 16.244 16.244 18.0489 -8.23153
599 1 16.244 14.4391 19.8538 -8.08514
600 3 14.4391 16.244 19.8538 -6.26564
697 2 14.4391 14.4391 21.6587 -7.03772
698 1 16.244 16.244 21.6587 -7.91957
603 3 1.80489 0 23.4636 -6.31848
604 1 0 1.80489 23.4636 -8.2783
701 2 0 0 25.2684 -6.93873
702 3 1.80489 1.80489 25.2684 -6.36761
607 1 5.41467 0 23.4636 -7.96684
608 1 3.60978 1.80489 23.4636 -8.34252
703 2 3.60978 0 25.2684 -7.01565
704 1 5.41467 1.80489 25.2684 -8.12634
611 3 9.02445 0 23.4636 -6.49846
612 1 7.21956 1.80489 23.4636 -8.14858
705 3 7.21956 0 25.2684 -6.47449
706 3 9.02445 1.80489 25.2684 -6.41796
615 1 12.6342 0 23.4636 -8.31075
616 3 10.8293 1.80489 23.4636 -6.54357
707 1 10.8293 0 25.2684 -8.30819
708 2 12.6342 1.80489 25.2684 -7.00059
619 1 16.244 0 23.4636 -8.2414
620 2 14.4391 1.80489 23.4636 -7.09828
709 2 14.4391 0 25.2684 -7.05818
710 1 16.244 1.80489 25.2684 -8.2694
623 3 1.80489 3.60978 23.4636 -6.28833
624 2 0 5.41467 23.4636 -6.96365
711 1 0 3.60978 25.2684 -8.18731
712 1 1.80489 5.41467 25.2684 -8.17076
627 3 5.41467 3.60978 23.4636 -6.20886
628 1 3.60978 5.41467 23.4636 -8.08359
713 2 3.60978 3.60978 25.2684 -6.88935
714 1 5.41467 5.41467 25.2684 -8.22967
631 2 9.02445 3.60978 23.4636 -6.89604
632 3 7.21956 5.41467 23.4636 -6.27673
715 1 7.21956 3.60978 25.2684 -8.11065
716 1 9.02445 5.41467 25.2684 -8.05827
635 3 12.6342 3.60978 23.4636 -6.57255
636 3 10.8293 5.41467 23.4636 -6.49853
717 1 10.8293 3.60978 25.2684 -8.27328
718 2 12.6342 5.41467 25.2684 -6.9733
639 1 16.244 3.60978 23.4636 -8.20884
640 1 14.4391 5.41467 23.4636 -8.19896
719 1 14.4391 3.60978 25.2684 -8.06683
720 2 16.244 5.41467 25.2684 -6.93176
643 3 1.80489 7.21956 23.4636 -6.15706
644 1 0 9.02445 23.4636 -7.93493
721 1 0 7.21956 25.2684 -8.14988
722 1 1.80489 9.02445 25.2684 -8.22503
647 3 5.41467 7.21956 23.4636 -6.33814
648 3 3.60978 9.02445 23.4636 -6.40698
723 1 3.60978 7.21956 25.2684 -8.11868
724 2 5.41467 9.02445 25.2684 -7.01413
651 1 9.02445 7.21956 23.4636 -8.25167
652 1 7.21956 9.02445 23.4636 -8.1576
725 3 7.21956 7.21956 25.2684 -6.35298
726 2 9.02445 9.02445 25.2684 -7.02085
655 3 12.6342 7.21956 23.4636 -6.53521
656 2 10.8293 9.02445 23.4636 -6.94114
727 1 10.8293 7.21956 25.2684 -8.23401
728 2 12.6342 9.02445 25.2684 -6.94441
659 1 16.244 7.21956 23.4636 -8.21279
660 3 14.4391 9.02445 23.4636 -6.56139
729 3 14.4391 7.21956 25.2684 -6.40946
730 3 16.244 9.02445 25.2684 -6.34475
663 3 1.80489 10.8293 23.4636 -6.39094
664 2 0 12.6342 23.4636 -6.9453
731 1 0 10.8293 25.2684 -8.10117
732 2 1.80489 12.6342 25.2684 -7.01965
667 2 5.41467 10.8293 23.4636 -7.08371
668 1 3.60978 12.6342 23.4636 -8.50877
733 3 3.60978 10.8293 25.2684 -6.63778
734 2 5.41467 12.6342 25.2684 -7.17568
671 1 9.02445 10.8293 23.4636 -8.08089
672 2 7.21956 12.6342 23.4636 -7.06491
735 1 7.21956 10.8293 25.2684 -8.05293
736 1 9.02445 12.6342 25.2684 -8.16804
675 3 12.6342 10.8293 23.4636 -6.54483
676 1 10.8293 12.6342 23.4636 -8.2684
737 3 10.8293 10.8293 25.2684 -6.49186
738 3 12.6342 12.6342 25.2684 -6.52715
679 3 16.244 10.8293 23.4636 -6.44779
680 2 14.4391 12.6342 23.4636 -7.02082
739 3 14.4391 10.8293 25.2684 -6.48583
740 1 16.244 12.6342 25.2684 -8.24631
683 3 1.80489 14.4391 23.4636 -6.44858
684 3 0 16.244 23.4636 -6.41414
741 1 0 14.4391 25.2684 -8.44763
742 3 1.80489 16.244 25.2684 -6.44
687 2 5.41467 14.4391 23.4636 -7.10517
688 1 3.60978 16.244 23.4636 -8.34594
743 2 3.60978 14.4391 25.2684 -7.05562
744 3 5.41467 16.244 25.2684 -6.48311
691 3 9.02445 14.4391 23.4636 -6.49457
692 2 7.21956 16.244 23.4636 -6.93734
745 3 7.21956 14.4391 25.2684 -6.64548
746 3 9.02445 16.244 25.2684 -6.50863
695 2 12.6342 14.4391 23.4636 -7.05513
696 1 10.8293 16.244 23.4636 -8.26896
747 2 10.8293 14.4391 25.2684 -7.03875
748 2 12.6342 16.244 25.2684 -7.0111
699 1 16.244 14.4391 23.4636 -7.93248
700 1 14.4391 16.244 23.4636 -7.89783
749 1 14.4391 14.4391 25.2684 -8.27958
750 1 16.244 16.244 25.2684 -8.13449
751 2 1.80489 0 27.0733 -7.08856
752 1 0 1.80489 27.0733 -8.45796
801 2 0 0 28.8782 -7.13551
802 2 1.80489 1.80489 28.8782 -6.95141
803 3 1.80489 0 30.6831 -6.61663
804 3 0 1.80489 30.6831 -6.71872
753 3 5.41467 0 27.0733 -6.58516
754 1 3.60978 1.80489 27.0733 -8.45879
805 3 3.60978 0 28.8782 -6.54149
806 2 5.41467 1.80489 28.8782 -6.92224
807 1 5.41467 0 30.6831 -8.33281
808 3 3.60978 1.80489 30.6831 -6.42669
755 2 9.02445 0 27.0733 -7.03921
756 2 7.21956 1.80489 27.0733 -6.96537
809 3 7.21956 0 28.8782 -6.58512
810 3 9.02445 1.80489 28.8782 -6.51147
811 2 9.02445 0 30.6831 -6.99771
812 1 7.21956 1.80489 30.6831 -8.07109
757 2 12.6342 0 27.0733 -7.03244
758 2 10.8293 1.80489 27.0733 -7.06094
813 2 10.8293 0 28.8782 -7.02578
814 1 12.6342 1.80489 28.8782 -8.18012
815 2 12.6342 0 30.6831 -6.97069
816 1 10.8293 1.80489 30.6831 -8.09856
759 3 16.244 0 27.0733 -6.5015
760 3 14.4391 1.80489 27.0733 -6.39439
817 2 14.4391 0 28.8782 -7.00854
818 1 16.244 1.80489 28.8782 -8.48463
819 1 16.244 0 30.6831 -8.30369
820 3 14.4391 1.80489 30.6831 -6.32906
761 3 1.80489 3.60978 27.0733 -6.41513
762 2 0 5.41467 27.0733 -6.99582
821 3 0 3.60978 28.8782 -6.56852
822 1 1.80489 5.41467 28.8782 -8.28167
823 1 1.80489 3.60978 30.6831 -8.30569
824 3 0 5.41467 30.6831 -6.41418
763 3 5.41467 3.60978 27.0733 -6.39401
764 2 3.60978 5.41467 27.0733 -6.94735
825 3 3.60978 3.60978 28.8782 -6.35736
826 3 5.41467 5.41467 28.8782 -6.33333
827 1 5.41467 3.60978 30.6831 -8.19305
828 1 3.60978 5.41467 30.6831 -8.01049
765 1 9.02445 3.60978 27.0733 -8.17237
766 3 7.21956 5.41467 27.0733 -6.31307
829 1 7.21956 3.60978 28.8782 -8.23712
830 2 9.02445 5.41467 28.8782 -7.11124
831 2 9.02445 3.60978 30.6831 -7.04095
832 2 7.21956 5.41467 30.6831 -7.0124
767 1 12.6342 3.60978 27.0733 -8.08444
768 2 10.8293 5.41467 27.0733 -7.089
833 2 10.8293 3.60978 28.8782 -7.057
834 3 12.6342 5.41467 28.8782 -6.30457
835 1 12.6342 3.60978 30.6831 -8.13915
836 1 10.8293 5.41467 30.6831 -8.12456
769 3 16.244 3.60978 27.0733 -6.38685
770 1 14.4391 5.41467 27.0733 -8.20949
837 3 14.4391 3.60978 28.8782 -6.25426