ITEM: TIMESTEP
0
ITEM: NUMBER OF ATOMS
4000
ITEM: BOX BOUNDS pp pp pp
0.0000000000000000e+00 3.6097780000000000e+01
0.0000000000000000e+00 3.6097780000000000e+01
0.0000000000000000e+00 3.6097780000000000e+01
ITEM: ATOMS id type x y z c_peratom
1 3 0 0 0 -6.38984
2 2 1.80489 1.80489 0 -6.98783
3 1 1.80489 0 1.80489 -8.42869
4 2 0 1.80489 1.80489 -6.99212
101 3 0 0 3.60978 -6.41973
102 3 1.80489 1.80489 3.60978 -6.55839
5 3 3.60978 0 0 -6.3547
6 1 5.41467 1.80489 0 -7.97764
7 1 5.41467 0 1.80489 -8.00937
8 2 3.60978 1.80489 1.80489 -7.02845
105 2 3.60978 0 3.60978 -7.0694
106 3 5.41467 1.80489 3.60978 -6.35624
9 1 7.21956 0 0 -8.21849
10 3 9.02445 1.80489 0 -6.47313
11 3 9.02445 0 1.80489 -6.54006
12 2 7.21956 1.80489 1.80489 -7.00664
109 1 7.21956 0 3.60978 -8.34948
110 2 9.02445 1.80489 3.60978 -6.99158
13 2 10.8293 0 0 -7.02388
14 3 12.6342 1.80489 0 -6.55403
15 2 12.6342 0 1.80489 -6.9997
16 1 10.8293 1.80489 1.80489 -8.54517
113 2 10.8293 0 3.60978 -6.94062
114 3 12.6342 1.80489 3.60978 -6.52608
17 3 14.4391 0 0 -6.61854
18 2 16.244 1.80489 0 -6.99214
19 2 16.244 0 1.80489 -7.0223
20 2 14.4391 1.80489 1.80489 -7.06196
117 3 14.4391 0 3.60978 -6.55746
118 2 16.244 1.80489 3.60978 -6.99244
21 1 0 3.60978 0 -8.17709
22 1 1.80489 5.41467 0 -8.19175
23 1 1.80489 3.60978 1.80489 -8.1554
24 2 0 5.41467 1.80489 -7.0925
121 1 0 3.60978 3.60978 -8.21684
122 1 1.80489 5.41467 3.60978 -8.07306
25 3 3.60978 3.60978 0 -6.34548
26 1 5.41467 5.41467 0 -8.26113
27 1 5.41467 3.60978 1.80489 -8.06732
28 3 3.60978 5.41467 1.80489 -6.30684
125 2 3.60978 3.60978 3.60978 -7.03733
126 1 5.41467 5.41467 3.60978 -8.21716
29 1 7.21956 3.60978 0 -8.02064
30 1 9.02445 5.41467 0 -7.98685
31 3 9.02445 3.60978 1.80489 -6.39712
32 2 7.21956 5.41467 1.80489 -7.04089
129 1 7.21956 3.60978 3.60978 -8.33467
130 3 9.02445 5.41467 3.60978 -6.45012
33 2 10.8293 3.60978 0 -6.96438
34 1 12.6342 5.41467 0 -8.11864
35 3 12.6342 3.60978 1.80489 -6.49314
36 1 10.8293 5.41467 1.80489 -8.12911
133 2 10.8293 3.60978 3.60978 -6.93969
134 1 12.6342 5.41467 3.60978 -8.15046
37 2 14.4391 3.60978 0 -7.00654
38 3 16.244 5.41467 0 -6.43854
39 3 16.244 3.60978 1.80489 -6.52745
40 3 14.4391 5.41467 1.80489 -6.49101
137 3 14.4391 3.60978 3.60978 -6.44893
138 1 16.244 5.41467 3.60978 -8.46323
41 2 0 7.21956 0 -7.0807
42 3 1.80489 9.02445 0 -6.47141
43 2 1.80489 7.21956 1.80489 -7.00873
44 2 0 9.02445 1.80489 -7.07807
141 1 0 7.21956 3.60978 -8.1974
142 3 1.80489 9.02445 3.60978 -6.41552
45 3 3.60978 7.21956 0 -6.38649
46 1 5.41467 9.02445 0 -8.32425
47 2 5.41467 7.21956 1.80489 -6.99338
48 1 3.60978 9.02445 1.80489 -8.24359
145 2 3.60978 7.21956 3.60978 -7.03113
146 1 5.41467 9.02445 3.60978 -8.21327
49 3 7.21956 7.21956 0 -6.36926
50 1 9.02445 9.02445 0 -8.1681
51 1 9.02445 7.21956 1.80489 -8.20204
52 2 7.21956 9.02445 1.80489 -7.0415
149 2 7.21956 7.21956 3.60978 -7.05106
150 2 9.02445 9.02445 3.60978 -6.9586
53 1 10.8293 7.21956 0 -7.91248
54 2 12.6342 9.02445 0 -7.14299
55 2 12.6342 7.21956 1.80489 -7.04573
56 3 10.8293 9.02445 1.80489 -6.46877
153 3 10.8293 7.21956 3.60978 -6.40359
154 3 12.6342 9.02445 3.60978 -6.53628
57 2 14.4391 7.21956 0 -7.09697
58 2 16.244 9.02445 0 -7.05615
59 3 16.244 7.21956 1.80489 -6.51954
60 2 14.4391 9.02445 1.80489 -7.16188
157 2 14.4391 7.21956 3.60978 -7.01069
158 1 16.244 9.02445 3.60978 -8.37777
61 2 0 10.8293 0 -7.02813
62 2 1.80489 12.6342 0 -7.03837
63 1 1.80489 10.8293 1.80489 -8.29586
64 3 0 12.6342 1.80489 -6.41465
161 1 0 10.8293 3.60978 -8.28048
162 3 1.80489 12.6342 3.60978 -6.32839
65 3 3.60978 10.8293 0 -6.42414
66 1 5.41467 12.6342 0 -8.05768
67 2 5.41467 10.8293 1.80489 -7.01243
68 1 3.60978 12.6342 1.80489 -8.05732
165 3 3.60978 10.8293 3.60978 -6.27589
166 1 5.41467 12.6342 3.60978 -8.05039
69 1 7.21956 10.8293 0 -8.21786
70 3 9.02445 12.6342 0 -6.47191
71 3 9.02445 10.8293 1.80489 -6.41692
72 2 7.21956 12.6342 1.80489 -7.02692
169 1 7.21956 10.8293 3.60978 -8.22596
170 3 9.02445 12.6342 3.60978 -6.39191
73 3 10.8293 10.8293 0 -6.58165
74 2 12.6342 12.6342 0 -6.96079
75 2 12.6342 10.8293 1.80489 -7.05087
76 3 10.8293 12.6342 1.80489 -6.4987
173 1 10.8293 10.8293 3.60978 -8.32481
174 2 12.6342 12.6342 3.60978 -6.99274
77 3 14.4391 10.8293 0 -6.64703
78 1 16.244 12.6342 0 -8.12832
79 2 16.244 10.8293 1.80489 -7.03725
80 1 14.4391 12.6342 1.80489 -8.43288
177 3 14.4391 10.8293 3.60978 -6.53063
178 3 16.244 12.6342 3.60978 -6.37072
81 3 0 14.4391 0 -6.43189
82 2 1.80489 16.244 0 -7.00035
83 2 1.80489 14.4391 1.80489 -6.95424
84 1 0 16.244 1.80489 -8.24573
181 1 0 14.4391 3.60978 -8.25902
182 3 1.80489 16.244 3.60978 -6.28672
85 1 3.60978 14.4391 0 -8.08455
86 3 5.41467 16.244 0 -6.34978
87 1 5.41467 14.4391 1.80489 -8.12951
88 1 3.60978 16.244 1.80489 -8.06426
185 1 3.60978 14.4391 3.60978 -8.11163
186 2 5.41467 16.244 3.60978 -7.00979
89 2 7.21956 14.4391 0 -6.95876
90 2 9.02445 16.244 0 -6.96395
91 1 9.02445 14.4391 1.80489 -8.47792
92 2 7.21956 16.244 1.80489 -7.07515
189 3 7.21956 14.4391 3.60978 -6.42515
190 3 9.02445 16.244 3.60978 -6.41286
93 3 10.8293 14.4391 0 -6.47469
94 1 12.6342 16.244 0 -8.23372
95 3 12.6342 14.4391 1.80489 -6.44142
96 3 10.8293 16.244 1.80489 -6.4243
193 1 10.8293 14.4391 3.60978 -8.39117
194 3 12.6342 16.244 3.60978 -6.33682
97 2 14.4391 14.4391 0 -6.87007
98 3 16.244 16.244 0 -6.37824
99 3 16.244 14.4391 1.80489 -6.29151
100 1 14.4391 16.244 1.80489 -8.17954
197 2 14.4391 14.4391 3.60978 -6.85632
198 1 16.244 16.244 3.60978 -8.14724
103 2 1.80489 0 5.41467 -7.17399
104 3 0 1.80489 5.41467 -6.43161
201 2 0 0 7.21956 -7.07709
202 3 1.80489 1.80489 7.21956 -6.5434
107 1 5.41467 0 5.41467 -8.22534
108 2 3.60978 1.80489 5.41467 -7.11724
203 2 3.60978 0 7.21956 -7.10316
204 1 5.41467 1.80489 7.21956 -7.99732
111 3 9.02445 0 5.41467 -6.53588
112 3 7.21956 1.80489 5.41467 -6.39183
205 3 7.21956 0 7.21956 -6.38349
206 2 9.02445 1.80489 7.21956 -6.89438
115 3 12.6342 0 5.41467 -6.4294
116 3 10.8293 1.80489 5.41467 -6.55155
207 3 10.8293 0 7.21956 -6.3756
208 1 12.6342 1.80489 7.21956 -8.36737
119 3 16.244 0 5.41467 -6.53869
120 1 14.4391 1.80489 5.41467 -8.33418
209 3 14.4391 0 7.21956 -6.31906
210 1 16.244 1.80489 7.21956 -8.32784
123 2 1.80489 3.60978 5.41467 -7.03533
124 2 0 5.41467 5.41467 -7.05601
211 1 0 3.60978 7.21956 -8.19099
212 1 1.80489 5.41467 7.21956 -7.90819
127 1 5.41467 3.60978 5.41467 -8.05099
128 2 3.60978 5.41467 5.41467 -7.07361
213 1 3.60978 3.60978 7.21956 -8.00225
214 1 5.41467 5.41467 7.21956 -8.13018
131 3 9.02445 3.60978 5.41467 -6.49497
132 2 7.21956 5.41467 5.41467 -6.93058
215 3 7.21956 3.60978 7.21956 -6.28138
216 1 9.02445 5.41467 7.21956 -8.24982
135 1 12.6342 3.60978 5.41467 -8.05604
136 1 10.8293 5.41467 5.41467 -8.16775
217 2 10.8293 3.60978 7.21956 -7.02774
218 1 12.6342 5.41467 7.21956 -7.93239
139 3 16.244 3.60978 5.41467 -6.36631
140 2 14.4391 5.41467 5.41467 -7.05075
219 2 14.4391 3.60978 7.21956 -7.01317
220 1 16.244 5.41467 7.21956 -8.11617
143 1 1.80489 7.21956 5.41467 -8.02098
144 2 0 9.02445 5.41467 -7.0244
221 2 0 7.21956 7.21956 -6.94282
222 3 1.80489 9.02445 7.21956 -6.47149
147 3 5.41467 7.21956 5.41467 -6.38856
148 1 3.60978 9.02445 5.41467 -8.34267
223 1 3.60978 7.21956 7.21956 -8.14266
224 3 5.41467 9.02445 7.21956 -6.4582
151 3 9.02445 7.21956 5.41467 -6.56195
152 3 7.21956 9.02445 5.41467 -6.49773
225 3 7.21956 7.21956 7.21956 -6.41894
226 2 9.02445 9.02445 7.21956 -6.97558
155 1 12.6342 7.21956 5.41467 -8.19604
156 2 10.8293 9.02445 5.41467 -7.02332
227 2 10.8293 7.21956 7.21956 -7.08274
228 3 12.6342 9.02445 7.21956 -6.51618
159 2 16.244 7.21956 5.41467 -7.00442
160 3 14.4391 9.02445 5.41467 -6.44038
229 1 14.4391 7.21956 7.21956 -8.17535
230 2 16.244 9.02445 7.21956 -6.933
163 2 1.80489 10.8293 5.41467 -6.92955
164 3 0 12.6342 5.41467 -6.47684
231 2 0 10.8293 7.21956 -6.98635
232 3 1.80489 12.6342 7.21956 -6.40196
167 3 5.41467 10.8293 5.41467 -6.37273
168 1 3.60978 12.6342 5.41467 -8.33369
233 3 3.60978 10.8293 7.21956 -6.39309
234 3 5.41467 12.6342 7.21956 -6.45928
171 1 9.02445 10.8293 5.41467 -8.29416
172 3 7.21956 12.6342 5.41467 -6.42802
235 3 7.21956 10.8293 7.21956 -6.52116
236 2 9.02445 12.6342 7.21956 -7.06142
175 1 12.6342 10.8293 5.41467 -8.45187
176 2 10.8293 12.6342 5.41467 -7.02859
237 2 10.8293 10.8293 7.21956 -7.04169
238 3 12.6342 12.6342 7.21956 -6.38324
179 3 16.244 10.8293 5.41467 -6.40636
180 3 14.4391 12.6342 5.41467 -6.43754
239 3 14.4391 10.8293 7.21956 -6.41615
240 3 16.244 12.6342 7.21956 -6.30786
183 2 1.80489 14.4391 5.41467 -6.93187
184 1 0 16.244 5.41467 -8.1696
241 2 0 14.4391 7.21956 -6.91292
242 1 1.80489 16.244 7.21956 -8.05437
187 1 5.41467 14.4391 5.41467 -8.26192
188 3 3.60978 16.244 5.41467 -6.29384
243 2 3.60978 14.4391 7.21956 -6.98536
244 1 5.41467 16.244 7.21956 -8.02362
191 2 9.02445 14.4391 5.41467 -6.94767
192 3 7.21956 16.244 5.41467 -6.36062
245 2 7.21956 14.4391 7.21956 -6.98869
246 2 9.02445 16.244 7.21956 -6.94553
195 1 12.6342 14.4391 5.41467 -8.31555
196 3 10.8293 16.244 5.41467 -6.28023
247 1 10.8293 14.4391 7.21956 -8.39952
248 3 12.6342 16.244 7.21956 -6.13441
199 3 16.244 14.4391 5.41467 -6.36012
200 3 14.4391 16.244 5.41467 -6.23033
249 1 14.4391 14.4391 7.21956 -8.36414
250 2 16.244 16.244 7.21956 -6.96717
251 2 1.80489 0 9.02445 -7.14529
252 1 0 1.80489 9.02445 -8.20495
301 2 0 0 10.8293 -7.00433
302 3 1.80489 1.80489 10.8293 -6.47512
303 1 1.80489 0 12.6342 -8.4185
304 3 0 1.80489 12.6342 -6.42511
253 1 5.41467 0 9.02445 -8.23357
254 1 3.60978 1.80489 9.02445 -8.10566
305 2 3.60978 0 10.8293 -7.07891
306 2 5.41467 1.80489 10.8293 -7.07273
307 1 5.41467 0 12.6342 -8.376
308 3 3.60978 1.80489 12.6342 -6.42943
255 3 9.02445 0 9.02445 -6.45802
256 1 7.21956 1.80489 9.02445 -8.26279
309 2 7.21956 0 10.8293 -7.00332
310 3 9.02445 1.80489 10.8293 -6.45491
311 2 9.02445 0 12.6342 -7.03527
312 2 7.21956 1.80489 12.6342 -6.99885
257 3 12.6342 0 9.02445 -6.3346
258 3 10.8293 1.80489 9.02445 -6.45143
313 2 10.8293 0 10.8293 -6.96755
314 3 12.6342 1.80489 10.8293 -6.39829
315 2 12.6342 0 12.6342 -6.90964
316 3 10.8293 1.80489 12.6342 -6.42529
259 3 16.244 0 9.02445 -6.41926
260 3 14.4391 1.80489 9.02445 -6.3542
317 1 14.4391 0 10.8293 -8.34505
318 2 16.244 1.80489 10.8293 -6.91533
319 1 16.244 0 12.6342 -8.12803
320 3 14.4391 1.80489 12.6342 -6.33795
261 2 1.80489 3.60978 9.02445 -7.10836
262 1 0 5.41467 9.02445 -8.22898
321 2 0 3.60978 10.8293 -6.9652
322 1 1.80489 5.41467 10.8293 -8.05585
323 3 1.80489 3.60978 12.6342 -6.38032
324 2 0 5.41467 12.6342 -6.90495
263 3 5.41467 3.60978 9.02445 -6.18111
264 1 3.60978 5.41467 9.02445 -8.03165
325 1 3.60978 3.60978 10.8293 -8.12608
326 2 5.41467 5.41467 10.8293 -7.0036
327 1 5.41467 3.60978 12.6342 -8.13313
328 1 3.60978 5.41467 12.6342 -8.04235
265 3 9.02445 3.60978 9.02445 -6.29759
266 1 7.21956 5.41467 9.02445 -8.17239
329 1 7.21956 3.60978 10.8293 -8.03593
330 1 9.02445 5.41467 10.8293 -7.85844
331 1 9.02445 3.60978 12.6342 -8.21738
332 1 7.21956 5.41467 12.6342 -8.0498
267 1 12.6342 3.60978 9.02445 -8.17726
268 1 10.8293 5.41467 9.02445 -7.97013
333 1 10.8293 3.60978 10.8293 -8.15271
334 3 12.6342 5.41467 10.8293 -6.37197
335 1 12.6342 3.60978 12.6342 -8.2666
336 2 10.8293 5.41467 12.6342 -7.01695
269 1 16.244 3.60978 9.02445 -8.27417
270 2 14.4391 5.41467 9.02445 -7.09774
337 3 14.4391 3.60978 10.8293 -6.45034
338 2 16.244 5.41467 10.8293 -7.0214
339 2 16.244 3.60978 12.6342 -6.98907
340 2 14.4391 5.41467 12.6342 -7.08177
271 3 1.80489 7.21956 9.02445 -6.34856
272 2 0 9.02445 9.02445 -6.97007
341 1 0 7.21956 10.8293 -8.25137
342 2 1.80489 9.02445 10.8293 -7.05202
343 3 1.80489 7.21956 12.6342 -6.32224
344 1 0 9.02445 12.6342 -8.08588
273 3 5.41467 7.21956 9.02445 -6.36642
274 2 3.60978 9.02445 9.02445 -6.89953
345 1 3.60978 7.21956 10.8293 -8.22075
346 3 5.41467 9.02445 10.8293 -6.45771
347 1 5.41467 7.21956 12.6342 -8.28899
348 2 3.60978 9.02445 12.6342 -6.89559
275 1 9.02445 7.21956 9.02445 -8.07297
276 3 7.21956 9.02445 9.02445 -6.43081
349 3 7.21956 7.21956 10.8293 -6.25193
350 1 9.02445 9.02445 10.8293 -8.20109
351 1 9.02445 7.21956 12.6342 -8.08249
352 3 7.21956 9.02445 12.6342 -6.41128
277 2 12.6342 7.21956 9.02445 -6.9865
278 2 10.8293 9.02445 9.02445 -7.07472
353 1 10.8293 7.21956 10.8293 -8.06437
354 2 12.6342 9.02445 10.8293 -7.04744
355 3 12.6342 7.21956 12.6342 -6.53115
356 1 10.8293 9.02445 12.6342 -8.27941
279 1 16.244 7.21956 9.02445 -8.13136
280 3 14.4391 9.02445 9.02445 -6.45277
357 1 14.4391 7.21956 10.8293 -8.26196
358 2 16.244 9.02445 10.8293 -6.94167
359 1 16.244 7.21956 12.6342 -8.20727
360 2 14.4391 9.02445 12.6342 -7.07589
281 1 1.80489 10.8293 9.02445 -8.2259
282 1 0 12.6342 9.02445 -8.24237
361 1 0 10.8293 10.8293 -8.14815
362 3 1.80489 12.6342 10.8293 -6.27473
363 1 1.80489 10.8293 12.6342 -8.23303
364 2 0 12.6342 12.6342 -6.95399
283 3 5.41467 10.8293 9.02445 -6.54474
284 1 3.60978 12.6342 9.02445 -8.29597
365 2 3.60978 10.8293 10.8293 -6.92009
366 3 5.41467 12.6342 10.8293 -6.39527
367 1 5.41467 10.8293 12.6342 -8.47345
368 1 3.60978 12.6342 12.6342 -8.17264
285 1 9.02445 10.8293 9.02445 -8.42479
286 3 7.21956 12.6342 9.02445 -6.52657
369 3 7.21956 10.8293 10.8293 -6.4274
370 3 9.02445 12.6342 10.8293 -6.44523
371 3 9.02445 10.8293 12.6342 -6.41848
372 2 7.21956 12.6342 12.6342 -6.85054
287 3 12.6342 10.8293 9.02445 -6.54672
288 2 10.8293 12.6342 9.02445 -6.91674
373 3 10.8293 10.8293 10.8293 -6.42019
374 1 12.6342 12.6342 10.8293 -8.2131
375 2 12.6342 10.8293 12.6342 -7.00435
376 1 10.8293 12.6342 12.6342 -8.35173
289 1 16.244 10.8293 9.02445 -8.32548
290 1 14.4391 12.6342 9.02445 -8.11017
377 3 14.4391 10.8293 10.8293 -6.44361
378 1 16.244 12.6342 10.8293 -8.25362
379 1 16.244 10.8293 12.6342 -8.43949
380 3 14.4391 12.6342 12.6342 -6.49653
291 1 1.80489 14.4391 9.02445 -7.96838
292 1 0 16.244 9.02445 -8.22783
381 1 0 14.4391 10.8293 -8.31556
382 2 1.80489 16.244 10.8293 -7.06659
383 2 1.80489 14.4391 12.6342 -6.97591
384 3 0 16.244 12.6342 -6.55797
293 2 5.41467 14.4391 9.02445 -7.03135
294 1 3.60978 16.244 9.02445 -7.86843
385 1 3.60978 14.4391 10.8293 -8.11636
386 1 5.41467 16.244 10.8293 -7.98462
387 3 5.41467 14.4391 12.6342 -6.2246
388 2 3.60978 16.244 12.6342 -6.93194
295 3 9.02445 14.4391 9.02445 -6.47569
296 1 7.21956 16.244 9.02445 -8.10304
389 1 7.21956 14.4391 10.8293 -8.37992
390 3 9.02445 16.244 10.8293 -6.42958
391 3 9.02445 14.4391 12.6342 -6.34421
392 1 7.21956 16.244 12.6342 -8.07206
297 1 12.6342 14.4391 9.02445 -8.23288
298 3 10.8293 16.244 9.02445 -6.37889
393 3 10.8293 14.4391 10.8293 -6.41722
394 3 12.6342 16.244 10.8293 -6.39965
395 1 12.6342 14.4391 12.6342 -8.36353
396 3 10.8293 16.244 12.6342 -6.49285
299 2 16.244 14.4391 9.02445 -6.93145
300 3 14.4391 16.244 9.02445 -6.34419
397 2 14.4391 14.4391 10.8293 -7.03398
398 2 16.244 16.244 10.8293 -7.0638
399 3 16.244 14.4391 12.6342 -6.58763
400 2 14.4391 16.244 12.6342 -7.11528
401 3 0 0 14.4391 -6.48325
402 1 1.80489 1.80489 14.4391 -8.47124
403 3 1.80489 0 16.244 -6.40623
404 3 0 1.80489 16.244 -6.552
405 2 3.60978 0 14.4391 -6.94671
406 2 5.41467 1.80489 14.4391 -6.97652
407 1 5.41467 0 16.244 -8.37989
408 3 3.60978 1.80489 16.244 -6.41446
409 3 7.21956 0 14.4391 -6.40409
410 3 9.02445 1.80489 14.4391 -6.40552
411 1 9.02445 0 16.244 -8.32
412 1 7.21956 1.80489 16.244 -8.18266
413 3 10.8293 0 14.4391 -6.47714
414 1 12.6342 1.80489 14.4391 -8.16356
415 1 12.6342 0 16.244 -8.16844
416 3 10.8293 1.80489 16.244 -6.35013
417 1 14.4391 0 14.4391 -8.07926
418 1 16.244 1.80489 14.4391 -8.12272
419 1 16.244 0 16.244 -8.2676
420 2 14.4391 1.80489 16.244 -7.0642
421 2 0 3.60978 14.4391 -7.01272
422 1 1.80489 5.41467 14.4391 -8.32505
423 2 1.80489 3.60978 16.244 -6.93872
424 2 0 5.41467 16.244 -7.01694
425 3 3.60978 3.60978 14.4391 -6.37171
426 3 5.41467 5.41467 14.4391 -6.41545
427 1 5.41467 3.60978 16.244 -8.38495
428 3 3.60978 5.41467 16.244 -6.49341
429 2 7.21956 3.60978 14.4391 -7.01932
430 2 9.02445 5.41467 14.4391 -7.10602
431 1 9.02445 3.60978 16.244 -8.42333
432 2 7.21956 5.41467 16.244 -7.06968
433 3 10.8293 3.60978 14.4391 -6.32985
434 1 12.6342 5.41467 14.4391 -8.20914
435 1 12.6342 3.60978 16.244 -8.21678
436 2 10.8293 5.41467 16.244 -7.0636
437 2 14.4391 3.60978 14.4391 -7.02128
438 1 16.244 5.41467 14.4391 -8.31036
439 1 16.244 3.60978 16.244 -8.29095
440 3 14.4391 5.41467 16.244 -6.34475
441 1 0 7.21956 14.4391 -8.34074
442 3 1.80489 9.02445 14.4391 -6.42876
443 3 1.80489 7.21956 16.244 -6.47217
444 3 0 9.02445 16.244 -6.41154
445 3 3.60978 7.21956 14.4391 -6.45353
446 3 5.41467 9.02445 14.4391 -6.47145
447 2 5.41467 7.21956 16.244 -7.04646
448 3 3.60978 9.02445 16.244 -6.49369
449 2 7.21956 7.21956 14.4391 -7.12176
450 2 9.02445 9.02445 14.4391 -6.99744
451 2 9.02445 7.21956 16.244 -7.09574
452 3 7.21956 9.02445 16.244 -6.56225
453 2 10.8293 7.21956 14.4391 -7.10421
454 2 12.6342 9.02445 14.4391 -7.06722
455 1 12.6342 7.21956 16.244 -8.10732
456 3 10.8293 9.02445 16.244 -6.49055
457 2 14.4391 7.21956 14.4391 -7.0193
458 3 16.244 9.02445 14.4391 -6.52763
459 3 16.244 7.21956 16.244 -6.47085
460 1 14.4391 9.02445 16.244 -8.22301
461 2 0 10.8293 14.4391 -6.97554
462 2 1.80489 12.6342 14.4391 -7.01855
463 1 1.80489 10.8293 16.244 -8.49094
464 3 0 12.6342 16.244 -6.32418
465 3 3.60978 10.8293 14.4391 -6.35166
466 3 5.41467 12.6342 14.4391 -6.32583
467 1 5.41467 10.8293 16.244 -8.42613
468 3 3.60978 12.6342 16.244 -6.36621
469 2 7.21956 10.8293 14.4391 -6.95878
470 1 9.02445 12.6342 14.4391 -8.16099
471 1 9.02445 10.8293 16.244 -8.1974
472 1 7.21956 12.6342 16.244 -8.12469
473 3 10.8293 10.8293 14.4391 -6.49607
474 3 12.6342 12.6342 14.4391 -6.54621
475 2 12.6342 10.8293 16.244 -7.0378
476 2 10.8293 12.6342 16.244 -7.02151
477 2 14.4391 10.8293 14.4391 -7.06451
478 3 16.244 12.6342 14.4391 -6.56087
479 2 16.244 10.8293 16.244 -6.96996
480 3 14.4391 12.6342 16.244 -6.57234
481 1 0 14.4391 14.4391 -8.20973
482 3 1.80489 16.244 14.4391 -6.36784
483 1 1.80489 14.4391 16.244 -8.10714
484 1 0 16.244 16.244 -8.12465
485 1 3.60978 14.4391 14.4391 -8.22104
486 1 5.41467 16.244 14.4391 -8.1193
487 2 5.41467 14.4391 16.244 -7.0003
488 3 3.60978 16.244 16.244 -6.46794
489 1 7.21956 14.4391 14.4391 -8.09761
490 1 9.02445 16.244 14.4391 -8.26315
491 2 9.02445 14.4391 16.244 -6.97438
492 2 7.21956 16.244 16.244 -7.08825
493 3 10.8293 14.4391 14.4391 -6.43863
494 2 12.6342 16.244 14.4391 -7.02457
495 1 12.6342 14.4391 16.244 -8.3688
496 2 10.8293 16.244 16.244 -7.11718
497 2 14.4391 14.4391 14.4391 -7.02777
498 2 16.244 16.244 14.4391 -7.06645
499 2 16.244 14.4391 16.244 -6.99496
500 3 14.4391 16.244 16.244 -6.47461
501 1 0 0 18.0489 -8.21148
502 1 1.80489 1.80489 18.0489 -8.19926
503 1 1.80489 0 19.8538 -7.93343
504 2 0 1.80489 19.8538 -7.03961
601 1 0 0 21.6587 -8.02839
602 1 1.80489 1.80489 21.6587 -8.04634
505 3 3.60978 0 18.0489 -6.25904
506 3 5.41467 1.80489 18.0489 -6.2494
507 3 5.41467 0 19.8538 -6.29319
508 1 3.60978 1.80489 19.8538 -8.15309
605 3 3.60978 0 21.6587 -6.28906
606 2 5.41467 1.80489 21.6587 -6.98842
509 3 7.21956 0 18.0489 -6.40499
510 2 9.02445 1.80489 18.0489 -7.035
511 2 9.02445 0 19.8538 -7.00427
512 1 7.21956 1.80489 19.8538 -8.18482
609 1 7.21956 0 21.6587 -8.04442
610 1 9.02445 1.80489 21.6587 -7.98574
513 1 10.8293 0 18.0489 -8.09605
514 2 12.6342 1.80489 18.0489 -7.07087
515 2 12.6342 0 19.8538 -7.00193
516 1 10.8293 1.80489 19.8538 -8.18527
613 3 10.8293 0 21.6587 -6.42473
614 2 12.6342 1.80489 21.6587 -7.03433
517 3 14.4391 0 18.0489 -6.48666
518 3 16.244 1.80489 18.0489 -6.4187
519 3 16.244 0 19.8538 -6.4088
520 1 14.4391 1.80489 19.8538 -8.26044
617 1 14.4391 0 21.6587 -8.2191
618 2 16.244 1.80489 21.6587 -6.9944
521 3 0 3.60978 18.0489 -6.52915
522 3 1.80489 5.41467 18.0489 -6.54723
523 1 1.80489 3.60978 19.8538 -8.02643
524 2 0 5.41467 19.8538 -7.05862
621 1 0 3.60978 21.6587 -8.17922
622 1 1.80489 5.41467 21.6587 -7.9156
525 2 3.60978 3.60978 18.0489 -7.02817
526 1 5.41467 5.41467 18.0489 -8.16326
527 1 5.41467 3.60978 19.8538 -8.01146
528 1 3.60978 5.41467 19.8538 -7.93974
625 2 3.60978 3.60978 21.6587 -7.09653
626 1 5.41467 5.41467 21.6587 -7.99644
529 3 7.21956 3.60978 18.0489 -6.36117
530 3 9.02445 5.41467 18.0489 -6.5991
531 2 9.02445 3.60978 19.8538 -7.02675
532 3 7.21956 5.41467 19.8538 -6.49203
629 1 7.21956 3.60978 21.6587 -7.98763
630 2 9.02445 5.41467 21.6587 -7.07448
533 2 10.8293 3.60978 18.0489 -7.09208
534 1 12.6342 5.41467 18.0489 -8.14246
535 2 12.6342 3.60978 19.8538 -7.07912
536 1 10.8293 5.41467 19.8538 -8.33283
633 2 10.8293 3.60978 21.6587 -7.04952
634 3 12.6342 5.41467 21.6587 -6.50608
537 2 14.4391 3.60978 18.0489 -7.06912
538 1 16.244 5.41467 18.0489 -8.3973
539 2 16.244 3.60978 19.8538 -7.02985
540 3 14.4391 5.41467 19.8538 -6.46841
637 1 14.4391 3.60978 21.6587 -8.22221
638 1 16.244 5.41467 21.6587 -8.09052
541 2 0 7.21956 18.0489 -7.00819
542 1 1.80489 9.02445 18.0489 -8.14308
543 1 1.80489 7.21956 19.8538 -8.02687
544 2 0 9.02445 19.8538 -7.06679
641 1 0 7.21956 21.6587 -8.23047
642 3 1.80489 9.02445 21.6587 -6.47952
545 2 3.60978 7.21956 18.0489 -7.06236
546 2 5.41467 9.02445 18.0489 -7.02818
547 2 5.41467 7.21956 19.8538 -7.05405
548 1 3.60978 9.02445 19.8538 -8.10292
645 2 3.60978 7.21956 21.6587 -7.12279
646 1 5.41467 9.02445 21.6587 -7.96378
549 2 7.21956 7.21956 18.0489 -7.06344
550 1 9.02445 9.02445 18.0489 -8.09669
551 3 9.02445 7.21956 19.8538 -6.42291
552 1 7.21956 9.02445 19.8538 -8.0704
649 2 7.21956 7.21956 21.6587 -7.0731
650 3 9.02445 9.02445 21.6587 -6.32066
553 3 10.8293 7.21956 18.0489 -6.37994
554 1 12.6342 9.02445 18.0489 -8.0772
555 2 12.6342 7.21956 19.8538 -7.02367
556 1 10.8293 9.02445 19.8538 -8.11953
653 2 10.8293 7.21956 21.6587 -6.9842
654 1 12.6342 9.02445 21.6587 -8.24127
557 2 14.4391 7.21956 18.0489 -7.01303
558 3 16.244 9.02445 18.0489 -6.56423
559 2 16.244 7.21956 19.8538 -7.08824
560 2 14.4391 9.02445 19.8538 -7.07142
657 1 14.4391 7.21956 21.6587 -8.22019
658 2 16.244 9.02445 21.6587 -7.11275
561 2 0 10.8293 18.0489 -6.99279
562 3 1.80489 12.6342 18.0489 -6.34976
563 1 1.80489 10.8293 19.8538 -8.18635
564 1 0 12.6342 19.8538 -8.14498
661 2 0 10.8293 21.6587 -7.04628
662 2 1.80489 12.6342 21.6587 -7.07187
565 3 3.60978 10.8293 18.0489 -6.42683
566 2 5.41467 12.6342 18.0489 -7.0836
567 2 5.41467 10.8293 19.8538 -7.06057
568 2 3.60978 12.6342 19.8538 -7.05153
665 2 3.60978 10.8293 21.6587 -7.08966
666 3 5.41467 12.6342 21.6587 -6.66198
569 1 7.21956 10.8293 18.0489 -8.02599
570 3 9.02445 12.6342 18.0489 -6.33578
571 1 9.02445 10.8293 19.8538 -8.19886
572 2 7.21956 12.6342 19.8538 -6.99693
669 1 7.21956 10.8293 21.6587 -8.20952
670 3 9.02445 12.6342 21.6587 -6.30316
573 2 10.8293 10.8293 18.0489 -7.01121
574 2 12.6342 12.6342 18.0489 -6.99751
575 1 12.6342 10.8293 19.8538 -8.23139
576 3 10.8293 12.6342 19.8538 -6.23381
673 3 10.8293 10.8293 21.6587 -6.3929
674 3 12.6342 12.6342 21.6587 -6.36491
577 1 14.4391 10.8293 18.0489 -8.29195
578 2 16.244 12.6342 18.0489 -6.92484
579 3 16.244 10.8293 19.8538 -6.50227
580 3 14.4391 12.6342 19.8538 -6.39426
677 2 14.4391 10.8293 21.6587 -6.96011
678 1 16.244 12.6342 21.6587 -8.20082
581 1 0 14.4391 18.0489 -8.05692
582 2 1.80489 16.244 18.0489 -7.0621
583 3 1.80489 14.4391 19.8538 -6.57295
584 2 0 16.244 19.8538 -7.03731
681 3 0 14.4391 21.6587 -6.67006
682 3 1.80489 16.244 21.6587 -6.62808
585 1 3.60978 14.4391 18.0489 -8.33468
586 2 5.41467 16.244 18.0489 -7.127
587 2 5.41467 14.4391 19.8538 -7.05419
588 2 3.60978 16.244 19.8538 -7.11135
685 3 3.60978 14.4391 21.6587 -6.71982
686 1 5.41467 16.244 21.6587 -8.47597
589 3 7.21956 14.4391 18.0489 -6.55827
590 1 9.02445 16.244 18.0489 -8.17841
591 1 9.02445 14.4391 19.8538 -8.25921
592 3 7.21956 16.244 19.8538 -6.41824
689 3 7.21956 14.4391 21.6587 -6.45764
690 1 9.02445 16.244 21.6587 -8.09185
593 1 10.8293 14.4391 18.0489 -8.12751
594 3 12.6342 16.244 18.0489 -6.42577
595 1 12.6342 14.4391 19.8538 -8.22206
596 2 10.8293 16.244 19.8538 -7.05851
693 1 10.8293 14.4391 21.6587 -8.17268
694 1 12.6342 16.244 21.6587 -8.19633
597 1 14.4391 14.4391 18.0489 -8.23263
598 1 16.244 16.244 18.0489 -8.30512
599 2 16.244 14.4391 19.8538 -6.93445
600 3 14.4391 16.244 19.8538 -6.3336
697 3 14.4391 14.4391 21.6587 -6.26333
698 1 16.244 16.244 21.6587 -8.40449
603 2 1.80489 0 23.4636 -7.02048
604 1 0 1.80489 23.4636 -8.06839
701 1 0 0 25.2684 -7.97754
702 3 1.80489 1.80489 25.2684 -6.28401
607 1 5.41467 0 23.4636 -8.23486
608 3 3.60978 1.80489 23.4636 -6.34266
703 1 3.60978 0 25.2684 -8.19782
704 3 5.41467 1.80489 25.2684 -6.36198
611 1 9.02445 0 23.4636 -8.38094
612 3 7.21956 1.80489 23.4636 -6.28569
705 2 7.21956 0 25.2684 -6.98532
706 3 9.02445 1.80489 25.2684 -6.36867
615 1 12.6342 0 23.4636 -8.23161
616 3 10.8293 1.80489 23.4636 -6.35672
707 2 10.8293 0 25.2684 -7.02707
708 1 12.6342 1.80489 25.2684 -8.21117
619 3 16.244 0 23.4636 -6.51778
620 3 14.4391 1.80489 23.4636 -6.46721
709 3 14.4391 0 25.2684 -6.53173
710 2 16.244 1.80489 25.2684 -7.10031
623 2 1.80489 3.60978 23.4636 -6.96813
624 3 0 5.41467 23.4636 -6.28417
711 1 0 3.60978 25.2684 -8.45331
712 3 1.80489 5.41467 25.2684 -6.39523
627 1 5.41467 3.60978 23.4636 -8.21714
628 2 3.60978 5.41467 23.4636 -7.10401
713 1 3.60978 3.60978 25.2684 -8.44526
714 2 5.41467 5.41467 25.2684 -7.08275
631 1 9.02445 3.60978 23.4636 -8.10918
632 1 7.21956 5.41467 23.4636 -7.93449
715 3 7.21956 3.60978 25.2684 -6.34763
716 3 9.02445 5.41467 25.2684 -6.35583
635 2 12.6342 3.60978 23.4636 -7.00566
636 1 10.8293 5.41467 23.4636 -8.22473
717 1 10.8293 3.60978 25.2684 -8.13107
718 2 12.6342 5.41467 25.2684 -7.07856
639 1 16.244 3.60978 23.4636 -8.21806
640 2 14.4391 5.41467 23.4636 -7.09313
719 2 14.4391 3.60978 25.2684 -7.0129
720 3 16.244 5.41467 25.2684 -6.61871
643 1 1.80489 7.21956 23.4636 -8.21199
644 3 0 9.02445 23.4636 -6.4568
721 1 0 7.21956 25.2684 -8.1783
722 3 1.80489 9.02445 25.2684 -6.45275
647 1 5.41467 7.21956 23.4636 -8.00874
648 2 3.60978 9.02445 23.4636 -7.08615
723 2 3.60978 7.21956 25.2684 -7.01285
724 2 5.41467 9.02445 25.2684 -7.08813
651 1 9.02445 7.21956 23.4636 -8.12642
652 1 7.21956 9.02445 23.4636 -8.04658
725 1 7.21956 7.21956 25.2684 -8.06181
726 2 9.02445 9.02445 25.2684 -7.01354
655 3 12.6342 7.21956 23.4636 -6.57624
656 2 10.8293 9.02445 23.4636 -6.91979
727 3 10.8293 7.21956 25.2684 -6.47108
728 2 12.6342 9.02445 25.2684 -7.04302
659 1 16.244 7.21956 23.4636 -8.21796
660 3 14.4391 9.02445 23.4636 -6.61281
729 2 14.4391 7.21956 25.2684 -7.07575
730 2 16.244 9.02445 25.2684 -7.17025
663 3 1.80489 10.8293 23.4636 -6.73203
664 2 0 12.6342 23.4636 -7.06788
731 3 0 10.8293 25.2684 -6.49935
732 2 1.80489 12.6342 25.2684 -7.10261
667 2 5.41467 10.8293 23.4636 -7.06108
668 3 3.60978 12.6342 23.4636 -6.77864
733 2 3.60978 10.8293 25.2684 -7.09063
734 3 5.41467 12.6342 25.2684 -6.64393
671 3 9.02445 10.8293 23.4636 -6.41561
672 3 7.21956 12.6342 23.4636 -6.50861
735 2 7.21956 10.8293 25.2684 -6.99241
736 1 9.02445 12.6342 25.2684 -8.25343
675 3 12.6342 10.8293 23.4636 -6.49306
676 3 10.8293 12.6342 23.4636 -6.38098
737 1 10.8293 10.8293 25.2684 -8.26822
738 3 12.6342 12.6342 25.2684 -6.41118
679 2 16.244 10.8293 23.4636 -7.11055
680 1 14.4391 12.6342 23.4636 -8.30396
739 3 14.4391 10.8293 25.2684 -6.59314
740 1 16.244 12.6342 25.2684 -8.13589
683 2 1.80489 14.4391 23.4636 -7.10047
684 2 0 16.244 23.4636 -7.10249
741 2 0 14.4391 25.2684 -7.13139
742 3 1.80489 16.244 25.2684 -6.55846
687 2 5.41467 14.4391 23.4636 -6.93704
688 3 3.60978 16.244 23.4636 -6.58615
743 3 3.60978 14.4391 25.2684 -6.66643
744 2 5.41467 16.244 25.2684 -6.99579
691 1 9.02445 14.4391 23.4636 -8.21935
692 1 7.21956 16.244 23.4636 -8.20659
745 3 7.21956 14.4391 25.2684 -6.55451
746 2 9.02445 16.244 25.2684 -7.019
695 3 12.6342 14.4391 23.4636 -6.38741
696 2 10.8293 16.244 23.4636 -7.02802
747 2 10.8293 14.4391 25.2684 -7.0193
748 2 12.6342 16.244 25.2684 -6.97435
699 1 16.244 14.4391 23.4636 -7.98216
700 1 14.4391 16.244 23.4636 -8.14852
749 3 14.4391 14.4391 25.2684 -6.26583
750 1 16.244 16.244 25.2684 -8.05802
751 1 1.80489 0 27.0733 -8.25721
752 3 0 1.80489 27.0733 -6.41918
801 2 0 0 28.8782 -7.07711
802 2 1.80489 1.80489 28.8782 -6.99522
803 1 1.80489 0 30.6831 -8.34217
804 2 0 1.80489 30.6831 -7.0783
753 3 5.41467 0 27.0733 -6.4116
754 3 3.60978 1.80489 27.0733 -6.35055
805 2 3.60978 0 28.8782 -6.95362
806 1 5.41467 1.80489 28.8782 -8.26837
807 3 5.41467 0 30.6831 -6.41972
808 3 3.60978 1.80489 30.6831 -6.26347
755 2 9.02445 0 27.0733 -6.98543
756 1 7.21956 1.80489 27.0733 -8.32238
809 3 7.21956 0 28.8782 -6.3523
810 1 9.02445 1.80489 28.8782 -8.23216
811 3 9.02445 0 30.6831 -6.45402
812 3 7.21956 1.80489 30.6831 -6.3637
757 2 12.6342 0 27.0733 -6.97143
758 1 10.8293 1.80489 27.0733 -8.213
813 3 10.8293 0 28.8782 -6.52636
814 3 12.6342 1.80489 28.8782 -6.5821
815 2 12.6342 0 30.6831 -7.08114
816 2 10.8293 1.80489 30.6831 -7.05737
759 2 16.244 0 27.0733 -7.07761
760 3 14.4391 1.80489 27.0733 -6.61122
817 1 14.4391 0 28.8782 -8.35687
818 2 16.244 1.80489 28.8782 -7.13619
819 2 16.244 0 30.6831 -7.02691
820 3 14.4391 1.80489 30.6831 -6.52359
761 3 1.80489 3.60978 27.0733 -6.42713
762 2 0 5.41467 27.0733 -7.01066
821 1 0 3.60978 28.8782 -8.42819
822 2 1.80489 5.41467 28.8782 -6.97982
823 3 1.80489 3.60978 30.6831 -6.35176
824 3 0 5.41467 30.6831 -6.50265
763 2 5.41467 3.60978 27.0733 -6.9888
764 2 3.60978 5.41467 27.0733 -7.05766
825 1 3.60978 3.60978 28.8782 -8.33048
826 1 5.41467 5.41467 28.8782 -8.13744
827 1 5.41467 3.60978 30.6831 -7.90701
828 3 3.60978 5.41467 30.6831 -6.30771
765 3 9.02445 3.60978 27.0733 -6.33775
766 2 7.21956 5.41467 27.0733 -6.99547
829 1 7.21956 3.60978 28.8782 -7.95903
830 1 9.02445 5.41467 28.8782 -8.30184
831 2 9.02445 3.60978 30.6831 -7.00265
832 1 7.21956 5.41467 30.6831 -8.1001
767 1 12.6342 3.60978 27.0733 -8.34396
768 2 10.8293 5.41467 27.0733 -6.96066
833 3 10.8293 3.60978 28.8782 -6.50097
834 3 12.6342 5.41467 28.8782 -6.59704
835 2 12.6342 3.60978 30.6831 -7.02427
836 3 10.8293 5.41467 30.6831 -6.48971
769 2 16.244 3.60978 27.0733 -7.10931
770 3 14.4391 5.41467 27.0733 -6.67962
837 2 14.4391 3.60978 28.8782 -7.06036