ITEM: TIMESTEP
0
ITEM: NUMBER OF ATOMS
4000
ITEM: BOX BOUNDS pp pp pp
0.0000000000000000e+00 3.5477780000000003e+01
0.0000000000000000e+00 3.5477780000000003e+01
0.0000000000000000e+00 3.5477780000000003e+01
ITEM: ATOMS id type x y z c_peratom
1 2 0 0 0 -6.99685
2 3 1.77389 1.77389 0 -6.29659
3 1 1.77389 0 1.77389 -8.51942
4 1 0 1.77389 1.77389 -8.27207
5 2 3.54778 0 0 -6.94579
8 3 3.54778 1.77389 1.77389 -6.35203
21 2 0 3.54778 0 -6.91644
23 3 1.77389 3.54778 1.77389 -6.2056
25 1 3.54778 3.54778 0 -8.62363
101 2 0 0 3.54778 -7.03196
102 2 1.77389 1.77389 3.54778 -6.93647
105 2 3.54778 0 3.54778 -6.81763
121 1 0 3.54778 3.54778 -8.48119
125 1 3.54778 3.54778 3.54778 -9.09612
6 3 5.32167 1.77389 0 -6.33371
7 1 5.32167 0 1.77389 -8.82943
9 2 7.09556 0 0 -6.94374
12 3 7.09556 1.77389 1.77389 -6.37256
27 3 5.32167 3.54778 1.77389 -6.45327
29 3 7.09556 3.54778 0 -6.30082
106 3 5.32167 1.77389 3.54778 -6.29997
109 3 7.09556 0 3.54778 -6.25065
129 3 7.09556 3.54778 3.54778 -6.38346
10 2 8.86945 1.77389 0 -6.92944
11 1 8.86945 0 1.77389 -8.36702
13 1 10.6433 0 0 -8.44604
16 1 10.6433 1.77389 1.77389 -8.35105
31 1 8.86945 3.54778 1.77389 -8.70217
33 2 10.6433 3.54778 0 -6.96508
110 3 8.86945 1.77389 3.54778 -6.2916
113 1 10.6433 0 3.54778 -8.43134
133 2 10.6433 3.54778 3.54778 -6.88011
14 2 12.4172 1.77389 0 -6.98258
15 3 12.4172 0 1.77389 -6.38818
17 3 14.1911 0 0 -6.30772
20 1 14.1911 1.77389 1.77389 -8.77485
35 3 12.4172 3.54778 1.77389 -6.50477
37 2 14.1911 3.54778 0 -6.91796
114 2 12.4172 1.77389 3.54778 -7.00028
117 2 14.1911 0 3.54778 -7.02987
137 3 14.1911 3.54778 3.54778 -6.40443
18 3 15.965 1.77389 0 -6.25071
19 3 15.965 0 1.77389 -6.38073
39 1 15.965 3.54778 1.77389 -8.64175
118 2 15.965 1.77389 3.54778 -7.00717
22 1 1.77389 5.32167 0 -8.34093
24 1 0 5.32167 1.77389 -8.46638
28 3 3.54778 5.32167 1.77389 -6.38597
41 3 0 7.09556 0 -6.16178
43 3 1.77389 7.09556 1.77389 -6.38778
45 3 3.54778 7.09556 0 -6.40732
122 3 1.77389 5.32167 3.54778 -6.33167
141 2 0 7.09556 3.54778 -6.90706
145 3 3.54778 7.09556 3.54778 -6.475
26 3 5.32167 5.32167 0 -6.35481
32 3 7.09556 5.32167 1.77389 -6.40438
47 3 5.32167 7.09556 1.77389 -6.44612
49 3 7.09556 7.09556 0 -6.23525
126 3 5.32167 5.32167 3.54778 -6.45292
149 2 7.09556 7.09556 3.54778 -6.85892
30 1 8.86945 5.32167 0 -8.52525
36 3 10.6433 5.32167 1.77389 -6.37559
51 1 8.86945 7.09556 1.77389 -8.54882
53 2 10.6433 7.09556 0 -6.92406
130 3 8.86945 5.32167 3.54778 -6.38584
153 1 10.6433 7.09556 3.54778 -8.88784
34 1 12.4172 5.32167 0 -8.47829
40 2 14.1911 5.32167 1.77389 -6.90355
55 2 12.4172 7.09556 1.77389 -6.87466
57 1 14.1911 7.09556 0 -8.63262
134 3 12.4172 5.32167 3.54778 -6.44317
157 1 14.1911 7.09556 3.54778 -8.94376
38 3 15.965 5.32167 0 -6.38922
59 2 15.965 7.09556 1.77389 -6.90717
138 3 15.965 5.32167 3.54778 -6.35093
42 3 1.77389 8.86945 0 -6.3252
44 1 0 8.86945 1.77389 -8.80563
48 3 3.54778 8.86945 1.77389 -6.39771
61 3 0 10.6433 0 -6.31317
63 3 1.77389 10.6433 1.77389 -6.31696
65 1 3.54778 10.6433 0 -8.62782
142 2 1.77389 8.86945 3.54778 -6.9061
161 3 0 10.6433 3.54778 -6.45615
165 1 3.54778 10.6433 3.54778 -8.53169
46 3 5.32167 8.86945 0 -6.31589
52 1 7.09556 8.86945 1.77389 -8.60335
67 3 5.32167 10.6433 1.77389 -6.17729
69 3 7.09556 10.6433 0 -6.30075
146 1 5.32167 8.86945 3.54778 -8.56965
169 3 7.09556 10.6433 3.54778 -6.29951
50 3 8.86945 8.86945 0 -6.2454
56 2 10.6433 8.86945 1.77389 -6.85341
71 1 8.86945 10.6433 1.77389 -8.55248
73 3 10.6433 10.6433 0 -6.33655
150 3 8.86945 8.86945 3.54778 -6.30363
173 1 10.6433 10.6433 3.54778 -8.52866
54 3 12.4172 8.86945 0 -6.46029
60 3 14.1911 8.86945 1.77389 -6.39158
75 1 12.4172 10.6433 1.77389 -8.69925
77 3 14.1911 10.6433 0 -6.34965
154 3 12.4172 8.86945 3.54778 -6.34857
177 3 14.1911 10.6433 3.54778 -6.49153
58 1 15.965 8.86945 0 -8.64151
79 3 15.965 10.6433 1.77389 -6.44532
158 3 15.965 8.86945 3.54778 -6.46595
62 2 1.77389 12.4172 0 -6.89959
64 1 0 12.4172 1.77389 -8.57073
68 2 3.54778 12.4172 1.77389 -6.92348
81 3 0 14.1911 0 -6.37378
83 2 1.77389 14.1911 1.77389 -7.01684
85 1 3.54778 14.1911 0 -8.48017
162 1 1.77389 12.4172 3.54778 -8.43616
181 2 0 14.1911 3.54778 -6.98705
185 1 3.54778 14.1911 3.54778 -8.50364
66 1 5.32167 12.4172 0 -8.61618
72 3 7.09556 12.4172 1.77389 -6.28578
87 2 5.32167 14.1911 1.77389 -7.02729
89 2 7.09556 14.1911 0 -6.93602
166 1 5.32167 12.4172 3.54778 -8.61369
189 1 7.09556 14.1911 3.54778 -8.39713
70 1 8.86945 12.4172 0 -8.65813
76 2 10.6433 12.4172 1.77389 -6.96761
91 2 8.86945 14.1911 1.77389 -6.91119
93 3 10.6433 14.1911 0 -6.24457
170 2 8.86945 12.4172 3.54778 -6.93337
193 1 10.6433 14.1911 3.54778 -8.34972
74 1 12.4172 12.4172 0 -8.56777
80 3 14.1911 12.4172 1.77389 -6.31172
95 1 12.4172 14.1911 1.77389 -8.49634
97 3 14.1911 14.1911 0 -6.22737
174 2 12.4172 12.4172 3.54778 -6.95971
197 2 14.1911 14.1911 3.54778 -7.01039
78 1 15.965 12.4172 0 -8.64803
99 1 15.965 14.1911 1.77389 -8.61738
178 2 15.965 12.4172 3.54778 -6.96709
82 2 1.77389 15.965 0 -6.99032
84 1 0 15.965 1.77389 -8.36446
88 2 3.54778 15.965 1.77389 -7.0354
182 3 1.77389 15.965 3.54778 -6.45011
86 2 5.32167 15.965 0 -7.01364
92 1 7.09556 15.965 1.77389 -8.53948
186 2 5.32167 15.965 3.54778 -7.04499
90 3 8.86945 15.965 0 -6.32524
96 1 10.6433 15.965 1.77389 -8.66974
190 3 8.86945 15.965 3.54778 -6.26722
94 3 12.4172 15.965 0 -6.3178
100 2 14.1911 15.965 1.77389 -6.90746
194 2 12.4172 15.965 3.54778 -6.98084
98 3 15.965 15.965 0 -6.41819
198 2 15.965 15.965 3.54778 -6.98027
103 1 1.77389 0 5.32167 -8.27938
104 1 0 1.77389 5.32167 -8.2472
108 3 3.54778 1.77389 5.32167 -6.27317
123 3 1.77389 3.54778 5.32167 -6.27306
201 3 0 0 7.09556 -6.34596
202 2 1.77389 1.77389 7.09556 -6.9692
203 1 3.54778 0 7.09556 -8.4539
211 2 0 3.54778 7.09556 -6.93809
213 1 3.54778 3.54778 7.09556 -8.68394
107 1 5.32167 0 5.32167 -8.52239
112 1 7.09556 1.77389 5.32167 -8.75399
127 3 5.32167 3.54778 5.32167 -6.29515
204 3 5.32167 1.77389 7.09556 -6.36308
205 2 7.09556 0 7.09556 -6.94471
215 3 7.09556 3.54778 7.09556 -6.36764
111 2 8.86945 0 5.32167 -6.92831
116 3 10.6433 1.77389 5.32167 -6.46355
131 2 8.86945 3.54778 5.32167 -6.96136
206 2 8.86945 1.77389 7.09556 -7.0141
207 1 10.6433 0 7.09556 -8.50614
217 2 10.6433 3.54778 7.09556 -7.0225
115 1 12.4172 0 5.32167 -8.3205
120 2 14.1911 1.77389 5.32167 -7.04992
135 1 12.4172 3.54778 5.32167 -8.69771
208 2 12.4172 1.77389 7.09556 -7.02795
209 1 14.1911 0 7.09556 -8.57728
219 2 14.1911 3.54778 7.09556 -6.99243
119 2 15.965 0 5.32167 -7.09014
139 1 15.965 3.54778 5.32167 -8.51961
210 2 15.965 1.77389 7.09556 -7.03766
124 3 0 5.32167 5.32167 -6.2912
128 3 3.54778 5.32167 5.32167 -6.33573
143 1 1.77389 7.09556 5.32167 -8.7061
212 1 1.77389 5.32167 7.09556 -8.62512
221 2 0 7.09556 7.09556 -6.97709
223 2 3.54778 7.09556 7.09556 -6.89963
132 1 7.09556 5.32167 5.32167 -8.60515
147 2 5.32167 7.09556 5.32167 -6.91789
214 1 5.32167 5.32167 7.09556 -8.57476
225 2 7.09556 7.09556 7.09556 -6.99562
136 3 10.6433 5.32167 5.32167 -6.40821
151 2 8.86945 7.09556 5.32167 -6.93849
216 1 8.86945 5.32167 7.09556 -8.62781
227 3 10.6433 7.09556 7.09556 -6.3544
140 3 14.1911 5.32167 5.32167 -6.32916
155 3 12.4172 7.09556 5.32167 -6.34848
218 1 12.4172 5.32167 7.09556 -8.62333
229 3 14.1911 7.09556 7.09556 -6.37087
159 2 15.965 7.09556 5.32167 -6.86079
220 1 15.965 5.32167 7.09556 -8.60097
144 2 0 8.86945 5.32167 -6.95882
148 3 3.54778 8.86945 5.32167 -6.33637
163 2 1.77389 10.6433 5.32167 -6.96662
222 2 1.77389 8.86945 7.09556 -6.96838
231 3 0 10.6433 7.09556 -6.42444
233 1 3.54778 10.6433 7.09556 -8.33547
152 1 7.09556 8.86945 5.32167 -8.45763
167 3 5.32167 10.6433 5.32167 -6.1004
224 1 5.32167 8.86945 7.09556 -8.51898
235 3 7.09556 10.6433 7.09556 -6.35024
156 3 10.6433 8.86945 5.32167 -6.34599
171 2 8.86945 10.6433 5.32167 -6.9179
226 1 8.86945 8.86945 7.09556 -8.68326
237 3 10.6433 10.6433 7.09556 -6.3253
160 3 14.1911 8.86945 5.32167 -6.46107
175 3 12.4172 10.6433 5.32167 -6.37355
228 1 12.4172 8.86945 7.09556 -8.86041
239 3 14.1911 10.6433 7.09556 -6.31104
179 3 15.965 10.6433 5.32167 -6.40586
230 3 15.965 8.86945 7.09556 -6.40052
164 2 0 12.4172 5.32167 -6.94677
168 3 3.54778 12.4172 5.32167 -6.17808
183 2 1.77389 14.1911 5.32167 -6.93737
232 1 1.77389 12.4172 7.09556 -8.77873
241 3 0 14.1911 7.09556 -6.28752
243 3 3.54778 14.1911 7.09556 -6.47712
172 3 7.09556 12.4172 5.32167 -6.37195
187 2 5.32167 14.1911 5.32167 -6.99346
234 1 5.32167 12.4172 7.09556 -8.75324
245 2 7.09556 14.1911 7.09556 -7.06152
176 2 10.6433 12.4172 5.32167 -6.98541
191 2 8.86945 14.1911 5.32167 -7.06955
236 1 8.86945 12.4172 7.09556 -8.80619
247 2 10.6433 14.1911 7.09556 -6.98944
180 1 14.1911 12.4172 5.32167 -8.72785
195 2 12.4172 14.1911 5.32167 -7.01207
238 1 12.4172 12.4172 7.09556 -8.73688
249 3 14.1911 14.1911 7.09556 -6.41592
199 3 15.965 14.1911 5.32167 -6.40807
240 2 15.965 12.4172 7.09556 -6.91347
184 1 0 15.965 5.32167 -8.36309
188 3 3.54778 15.965 5.32167 -6.6068
242 1 1.77389 15.965 7.09556 -8.74197
192 1 7.09556 15.965 5.32167 -8.55826
244 2 5.32167 15.965 7.09556 -7.13237
196 1 10.6433 15.965 5.32167 -8.49299
246 2 8.86945 15.965 7.09556 -7.05995
200 1 14.1911 15.965 5.32167 -8.66205
248 2 12.4172 15.965 7.09556 -6.94517
250 2 15.965 15.965 7.09556 -7.01153
251 2 1.77389 0 8.86945 -7.03592
252 1 0 1.77389 8.86945 -8.84911
254 2 3.54778 1.77389 8.86945 -6.9654
261 2 1.77389 3.54778 8.86945 -7.04902
301 3 0 0 10.6433 -6.44023
302 3 1.77389 1.77389 10.6433 -6.49635
303 2 1.77389 0 12.4172 -6.98118
304 1 0 1.77389 12.4172 -8.85324
305 2 3.54778 0 10.6433 -6.99314
308 1 3.54778 1.77389 12.4172 -8.54614
321 2 0 3.54778 10.6433 -7.00949
323 2 1.77389 3.54778 12.4172 -7.05965
325 1 3.54778 3.54778 10.6433 -8.64538
253 2 5.32167 0 8.86945 -7.02697
256 1 7.09556 1.77389 8.86945 -8.81493
263 2 5.32167 3.54778 8.86945 -6.98339
306 3 5.32167 1.77389 10.6433 -6.41274
307 3 5.32167 0 12.4172 -6.17417
309 2 7.09556 0 10.6433 -6.90875
312 1 7.09556 1.77389 12.4172 -8.85704
327 3 5.32167 3.54778 12.4172 -6.24092
329 2 7.09556 3.54778 10.6433 -6.89814
255 2 8.86945 0 8.86945 -6.97956
258 1 10.6433 1.77389 8.86945 -8.55889
265 2 8.86945 3.54778 8.86945 -6.98961
310 3 8.86945 1.77389 10.6433 -6.45643
311 3 8.86945 0 12.4172 -6.26974
313 3 10.6433 0 10.6433 -6.46918
316 3 10.6433 1.77389 12.4172 -6.54406
331 3 8.86945 3.54778 12.4172 -6.46928
333 3 10.6433 3.54778 10.6433 -6.42318
257 3 12.4172 0 8.86945 -6.47585
260 2 14.1911 1.77389 8.86945 -7.00679
267 1 12.4172 3.54778 8.86945 -8.48362
314 2 12.4172 1.77389 10.6433 -6.92788
315 2 12.4172 0 12.4172 -6.96943
317 3 14.1911 0 10.6433 -6.41133
320 1 14.1911 1.77389 12.4172 -8.38816
335 1 12.4172 3.54778 12.4172 -8.56859
337 2 14.1911 3.54778 10.6433 -7.02052
259 3 15.965 0 8.86945 -6.44972
269 3 15.965 3.54778 8.86945 -6.43319
318 1 15.965 1.77389 10.6433 -8.60715
319 2 15.965 0 12.4172 -6.89719
339 2 15.965 3.54778 12.4172 -6.95731
262 2 0 5.32167 8.86945 -6.95073
264 3 3.54778 5.32167 8.86945 -6.38117
271 3 1.77389 7.09556 8.86945 -6.43481
322 2 1.77389 5.32167 10.6433 -7.00237
324 2 0 5.32167 12.4172 -7.0367
328 3 3.54778 5.32167 12.4172 -6.40816
341 1 0 7.09556 10.6433 -8.53723
343 2 1.77389 7.09556 12.4172 -7.02495
345 2 3.54778 7.09556 10.6433 -6.95944
266 2 7.09556 5.32167 8.86945 -6.95873
273 3 5.32167 7.09556 8.86945 -6.31441
326 1 5.32167 5.32167 10.6433 -8.68727
332 3 7.09556 5.32167 12.4172 -6.34452
347 3 5.32167 7.09556 12.4172 -6.34304
349 1 7.09556 7.09556 10.6433 -8.65241
268 2 10.6433 5.32167 8.86945 -6.96746
275 2 8.86945 7.09556 8.86945 -7.03756
330 1 8.86945 5.32167 10.6433 -8.63868
336 3 10.6433 5.32167 12.4172 -6.39648
351 3 8.86945 7.09556 12.4172 -6.31829
353 1 10.6433 7.09556 10.6433 -8.74687
270 2 14.1911 5.32167 8.86945 -6.94319
277 2 12.4172 7.09556 8.86945 -6.89919
334 3 12.4172 5.32167 10.6433 -6.36044
340 1 14.1911 5.32167 12.4172 -8.17731
355 3 12.4172 7.09556 12.4172 -6.20931
357 1 14.1911 7.09556 10.6433 -8.67905
279 3 15.965 7.09556 8.86945 -6.39023
338 1 15.965 5.32167 10.6433 -8.41883
359 2 15.965 7.09556 12.4172 -7.01506
272 1 0 8.86945 8.86945 -8.61622
274 1 3.54778 8.86945 8.86945 -8.50215
281 2 1.77389 10.6433 8.86945 -6.98047
342 2 1.77389 8.86945 10.6433 -7.00592
344 3 0 8.86945 12.4172 -6.37425
348 1 3.54778 8.86945 12.4172 -8.64028
361 1 0 10.6433 10.6433 -8.62367
363 2 1.77389 10.6433 12.4172 -6.94553
365 2 3.54778 10.6433 10.6433 -6.95824
276 2 7.09556 8.86945 8.86945 -7.0115
283 2 5.32167 10.6433 8.86945 -7.02475
346 2 5.32167 8.86945 10.6433 -6.93961
352 3 7.09556 8.86945 12.4172 -6.33545
367 3 5.32167 10.6433 12.4172 -6.33094
369 1 7.09556 10.6433 10.6433 -8.69646
278 2 10.6433 8.86945 8.86945 -6.98136
285 2 8.86945 10.6433 8.86945 -6.99511
350 2 8.86945 8.86945 10.6433 -6.89934
356 3 10.6433 8.86945 12.4172 -6.22195
371 1 8.86945 10.6433 12.4172 -8.60633
373 1 10.6433 10.6433 10.6433 -8.46412
280 3 14.1911 8.86945 8.86945 -6.32859
287 1 12.4172 10.6433 8.86945 -8.59255
354 3 12.4172 8.86945 10.6433 -6.26408
360 3 14.1911 8.86945 12.4172 -6.34326
375 1 12.4172 10.6433 12.4172 -8.73171
377 3 14.1911 10.6433 10.6433 -6.29464
289 1 15.965 10.6433 8.86945 -8.84857
358 2 15.965 8.86945 10.6433 -6.91829
379 1 15.965 10.6433 12.4172 -8.78365
282 3 0 12.4172 8.86945 -6.35642
284 2 3.54778 12.4172 8.86945 -6.9698
291 3 1.77389 14.1911 8.86945 -6.39696
362 3 1.77389 12.4172 10.6433 -6.43921
364 3 0 12.4172 12.4172 -6.31041
368 1 3.54778 12.4172 12.4172 -8.80611
381 1 0 14.1911 10.6433 -9.05903
383 3 1.77389 14.1911 12.4172 -6.21132
385 3 3.54778 14.1911 10.6433 -6.43391
286 2 7.09556 12.4172 8.86945 -7.02352
293 3 5.32167 14.1911 8.86945 -6.49614
366 3 5.32167 12.4172 10.6433 -6.45954
372 3 7.09556 12.4172 12.4172 -6.17603
387 3 5.32167 14.1911 12.4172 -6.25367
389 1 7.09556 14.1911 10.6433 -8.57129
288 3 10.6433 12.4172 8.86945 -6.34304
295 2 8.86945 14.1911 8.86945 -7.05064
370 2 8.86945 12.4172 10.6433 -6.91693
376 3 10.6433 12.4172 12.4172 -6.20589
391 1 8.86945 14.1911 12.4172 -8.54052
393 1 10.6433 14.1911 10.6433 -8.60724
290 3 14.1911 12.4172 8.86945 -6.38406
297 3 12.4172 14.1911 8.86945 -6.3293
374 2 12.4172 12.4172 10.6433 -6.81886
380 2 14.1911 12.4172 12.4172 -6.89708
395 3 12.4172 14.1911 12.4172 -6.33498
397 1 14.1911 14.1911 10.6433 -8.82018
299 2 15.965 14.1911 8.86945 -7.00368
378 3 15.965 12.4172 10.6433 -6.45449
399 3 15.965 14.1911 12.4172 -6.42822
292 3 0 15.965 8.86945 -6.36652
294 2 3.54778 15.965 8.86945 -6.96424
382 3 1.77389 15.965 10.6433 -6.3516
384 2 0 15.965 12.4172 -6.84373
388 1 3.54778 15.965 12.4172 -8.62256
296 2 7.09556 15.965 8.86945 -7.10353
386 1 5.32167 15.965 10.6433 -8.37227
392 2 7.09556 15.965 12.4172 -6.91386
298 1 10.6433 15.965 8.86945 -8.59918
390 2 8.86945 15.965 10.6433 -7.02096
396 2 10.6433 15.965 12.4172 -6.85643
300 1 14.1911 15.965 8.86945 -8.62003
394 3 12.4172 15.965 10.6433 -6.29795
400 3 14.1911 15.965 12.4172 -6.34926
398 3 15.965 15.965 10.6433 -6.48568
401 2 0 0 14.1911 -6.92916
402 2 1.77389 1.77389 14.1911 -6.96547
403 2 1.77389 0 15.965 -6.97096
404 1 0 1.77389 15.965 -8.80218
405 2 3.54778 0 14.1911 -7.01029
408 1 3.54778 1.77389 15.965 -8.58705
421 3 0 3.54778 14.1911 -6.41893
423 2 1.77389 3.54778 15.965 -6.99108
425 2 3.54778 3.54778 14.1911 -6.98647
406 1 5.32167 1.77389 14.1911 -8.37706
407 2 5.32167 0 15.965 -6.9995
409 3 7.09556 0 14.1911 -6.12951
412 1 7.09556 1.77389 15.965 -8.74865
427 2 5.32167 3.54778 15.965 -6.98536
429 3 7.09556 3.54778 14.1911 -6.37428
410 3 8.86945 1.77389 14.1911 -6.35929
411 2 8.86945 0 15.965 -6.97817
413 1 10.6433 0 14.1911 -8.46939
416 1 10.6433 1.77389 15.965 -8.50978
431 3 8.86945 3.54778 15.965 -6.46454
433 2 10.6433 3.54778 14.1911 -6.95885
414 2 12.4172 1.77389 14.1911 -6.99003
415 3 12.4172 0 15.965 -6.21533
417 1 14.1911 0 14.1911 -8.44478
420 1 14.1911 1.77389 15.965 -8.69134
435 2 12.4172 3.54778 15.965 -6.92241
437 2 14.1911 3.54778 14.1911 -6.94147
418 3 15.965 1.77389 14.1911 -6.22878
419 3 15.965 0 15.965 -6.20379
439 3 15.965 3.54778 15.965 -6.1905
422 1 1.77389 5.32167 14.1911 -8.65515
424 2 0 5.32167 15.965 -6.97024
428 2 3.54778 5.32167 15.965 -6.96644
441 1 0 7.09556 14.1911 -8.34275
443 2 1.77389 7.09556 15.965 -6.95878
445 3 3.54778 7.09556 14.1911 -6.33347
426 1 5.32167 5.32167 14.1911 -9.01428
432 3 7.09556 5.32167 15.965 -6.53141
447 3 5.32167 7.09556 15.965 -6.37581
449 3 7.09556 7.09556 14.1911 -6.45301
430 2 8.86945 5.32167 14.1911 -6.87604
436 1 10.6433 5.32167 15.965 -8.69866
451 3 8.86945 7.09556 15.965 -6.28616
453 1 10.6433 7.09556 14.1911 -8.75259
434 2 12.4172 5.32167 14.1911 -6.93077
440 1 14.1911 5.32167 15.965 -8.54681
455 3 12.4172 7.09556 15.965 -6.20364
457 1 14.1911 7.09556 14.1911 -8.5992
438 1 15.965 5.32167 14.1911 -8.2801
459 3 15.965 7.09556 15.965 -6.25876
442 1 1.77389 8.86945 14.1911 -8.46581
444 2 0 8.86945 15.965 -6.9044
448 1 3.54778 8.86945 15.965 -8.70831
461 3 0 10.6433 14.1911 -6.4497
463 3 1.77389 10.6433 15.965 -6.40239
465 2 3.54778 10.6433 14.1911 -6.8856
446 3 5.32167 8.86945 14.1911 -6.25674
452 1 7.09556 8.86945 15.965 -8.59049
467 1 5.32167 10.6433 15.965 -8.23759
469 1 7.09556 10.6433 14.1911 -8.58302
450 3 8.86945 8.86945 14.1911 -6.17672
456 1 10.6433 8.86945 15.965 -8.776
471 3 8.86945 10.6433 15.965 -6.16693
473 3 10.6433 10.6433 14.1911 -6.2895
454 3 12.4172 8.86945 14.1911 -6.28638
460 2 14.1911 8.86945 15.965 -6.83386
475 2 12.4172 10.6433 15.965 -6.86745
477 3 14.1911 10.6433 14.1911 -6.38941
458 2 15.965 8.86945 14.1911 -6.9663
479 1 15.965 10.6433 15.965 -8.63552
462 1 1.77389 12.4172 14.1911 -8.54564
464 3 0 12.4172 15.965 -6.44878
468 1 3.54778 12.4172 15.965 -8.46781
481 1 0 14.1911 14.1911 -8.60575
483 3 1.77389 14.1911 15.965 -6.24791
485 2 3.54778 14.1911 14.1911 -6.818
466 3 5.32167 12.4172 14.1911 -6.14015
472 1 7.09556 12.4172 15.965 -8.37068
487 1 5.32167 14.1911 15.965 -8.25705
489 1 7.09556 14.1911 14.1911 -8.51141
470 3 8.86945 12.4172 14.1911 -6.14738
476 1 10.6433 12.4172 15.965 -8.54034
491 2 8.86945 14.1911 15.965 -6.87257
493 3 10.6433 14.1911 14.1911 -6.34562
474 1 12.4172 12.4172 14.1911 -8.44792
480 2 14.1911 12.4172 15.965 -6.87753
495 3 12.4172 14.1911 15.965 -6.16135
497 1 14.1911 14.1911 14.1911 -8.62228
478 3 15.965 12.4172 14.1911 -6.41277
499 2 15.965 14.1911 15.965 -6.8732
482 1 1.77389 15.965 14.1911 -8.34216
484 2 0 15.965 15.965 -6.80253
488 1 3.54778 15.965 15.965 -8.44318
486 3 5.32167 15.965 14.1911 -6.12017
492 1 7.09556 15.965 15.965 -8.30081
490 3 8.86945 15.965 14.1911 -6.21567
496 1 10.6433 15.965 15.965 -8.59348
494 3 12.4172 15.965 14.1911 -6.30377
500 1 14.1911 15.965 15.965 -8.44115
498 2 15.965 15.965 14.1911 -6.88083
501 3 0 0 17.7389 -6.35719
502 3 1.77389 1.77389 17.7389 -6.40483
503 1 1.77389 0 19.5128 -8.77939
504 3 0 1.77389 19.5128 -6.35033
505 2 3.54778 0 17.7389 -7.02837
508 3 3.54778 1.77389 19.5128 -6.36152
521 3 0 3.54778 17.7389 -6.27804
523 1 1.77389 3.54778 19.5128 -8.70538
525 2 3.54778 3.54778 17.7389 -7.02263
601 3 0 0 21.2867 -6.36999
602 3 1.77389 1.77389 21.2867 -6.31104
605 2 3.54778 0 21.2867 -6.93733
621 3 0 3.54778 21.2867 -6.32756
625 2 3.54778 3.54778 21.2867 -6.98404
506 3 5.32167 1.77389 17.7389 -6.44529
507 1 5.32167 0 19.5128 -8.51756
509 2 7.09556 0 17.7389 -7.01897
512 2 7.09556 1.77389 19.5128 -7.00906
527 1 5.32167 3.54778 19.5128 -8.67497
529 3 7.09556 3.54778 17.7389 -6.46772
606 2 5.32167 1.77389 21.2867 -6.95066
609 1 7.09556 0 21.2867 -8.32103
629 1 7.09556 3.54778 21.2867 -8.56087
510 2 8.86945 1.77389 17.7389 -6.98597
511 1 8.86945 0 19.5128 -8.38249
513 1 10.6433 0 17.7389 -8.41237
516 3 10.6433 1.77389 19.5128 -6.17141
531 1 8.86945 3.54778 19.5128 -8.5548
533 2 10.6433 3.54778 17.7389 -6.93814
610 1 8.86945 1.77389 21.2867 -8.24321
613 1 10.6433 0 21.2867 -8.52134
633 1 10.6433 3.54778 21.2867 -8.66171
514 2 12.4172 1.77389 17.7389 -7.00478
515 1 12.4172 0 19.5128 -8.3595
517 1 14.1911 0 17.7389 -8.44747
520 2 14.1911 1.77389 19.5128 -6.89969
535 1 12.4172 3.54778 19.5128 -8.81317
537 3 14.1911 3.54778 17.7389 -6.35115
614 2 12.4172 1.77389 21.2867 -6.90882
617 2 14.1911 0 21.2867 -6.97235
637 3 14.1911 3.54778 21.2867 -6.38307
518 3 15.965 1.77389 17.7389 -6.26295
519 1 15.965 0 19.5128 -8.74937
539 1 15.965 3.54778 19.5128 -8.77911
618 2 15.965 1.77389 21.2867 -6.90529
522 1 1.77389 5.32167 17.7389 -8.40801
524 2 0 5.32167 19.5128 -6.96423
528 2 3.54778 5.32167 19.5128 -6.944
541 1 0 7.09556 17.7389 -8.61595
543 1 1.77389 7.09556 19.5128 -8.52664
545 3 3.54778 7.09556 17.7389 -6.36283
622 1 1.77389 5.32167 21.2867 -8.43835
641 2 0 7.09556 21.2867 -6.95338
645 3 3.54778 7.09556 21.2867 -6.33018
526 2 5.32167 5.32167 17.7389 -6.95379
532 3 7.09556 5.32167 19.5128 -6.25491
547 1 5.32167 7.09556 19.5128 -8.78238
549 1 7.09556 7.09556 17.7389 -8.50281
626 2 5.32167 5.32167 21.2867 -6.92969
649 2 7.09556 7.09556 21.2867 -6.88642
530 2 8.86945 5.32167 17.7389 -6.90195
536 3 10.6433 5.32167 19.5128 -6.25996
551 1 8.86945 7.09556 19.5128 -8.79031
553 3 10.6433 7.09556 17.7389 -6.37086
630 3 8.86945 5.32167 21.2867 -6.34275
653 2 10.6433 7.09556 21.2867 -6.89046
534 3 12.4172 5.32167 17.7389 -6.26613
540 3 14.1911 5.32167 19.5128 -6.2415
555 1 12.4172 7.09556 19.5128 -8.84779
557 1 14.1911 7.09556 17.7389 -8.55493
634 3 12.4172 5.32167 21.2867 -6.33662
657 3 14.1911 7.09556 21.2867 -6.37176
538 2 15.965 5.32167 17.7389 -6.85201
559 1 15.965 7.09556 19.5128 -8.58097
638 2 15.965 5.32167 21.2867 -6.92701
542 3 1.77389 8.86945 17.7389 -6.39603
544 3 0 8.86945 19.5128 -6.41496
548 3 3.54778 8.86945 19.5128 -6.33827
561 3 0 10.6433 17.7389 -6.54086
563 1 1.77389 10.6433 19.5128 -8.80368
565 2 3.54778 10.6433 17.7389 -6.93911
642 2 1.77389 8.86945 21.2867 -6.97536
661 2 0 10.6433 21.2867 -6.95995
665 2 3.54778 10.6433 21.2867 -7.03151
546 3 5.32167 8.86945 17.7389 -6.22449
552 3 7.09556 8.86945 19.5128 -6.30405
567 1 5.32167 10.6433 19.5128 -8.7573
569 2 7.09556 10.6433 17.7389 -6.93691
646 3 5.32167 8.86945 21.2867 -6.37089
669 2 7.09556 10.6433 21.2867 -6.99274
550 2 8.86945 8.86945 17.7389 -6.91996
556 2 10.6433 8.86945 19.5128 -6.86872
571 1 8.86945 10.6433 19.5128 -8.4991
573 1 10.6433 10.6433 17.7389 -8.52123
650 3 8.86945 8.86945 21.2867 -6.32759
673 2 10.6433 10.6433 21.2867 -6.96587
554 3 12.4172 8.86945 17.7389 -6.21757
560 3 14.1911 8.86945 19.5128 -6.12326
575 3 12.4172 10.6433 19.5128 -6.28016
577 1 14.1911 10.6433 17.7389 -8.70759
654 3 12.4172 8.86945 21.2867 -6.40968
677 1 14.1911 10.6433 21.2867 -8.41063
558 3 15.965 8.86945 17.7389 -6.20232
579 1 15.965 10.6433 19.5128 -8.53991
658 1 15.965 8.86945 21.2867 -8.46298
562 2 1.77389 12.4172 17.7389 -6.90879
564 3 0 12.4172 19.5128 -6.42618
568 2 3.54778 12.4172 19.5128 -6.99107
581 1 0 14.1911 17.7389 -8.78418
583 1 1.77389 14.1911 19.5128 -8.59335
585 3 3.54778 14.1911 17.7389 -6.26699
662 2 1.77389 12.4172 21.2867 -6.99275
681 2 0 14.1911 21.2867 -6.87268
685 2 3.54778 14.1911 21.2867 -7.01748
566 2 5.32167 12.4172 17.7389 -7.02993
572 2 7.09556 12.4172 19.5128 -7.05736
587 1 5.32167 14.1911 19.5128 -8.57914
589 2 7.09556 14.1911 17.7389 -7.08051
666 2 5.32167 12.4172 21.2867 -7.04209
689 2 7.09556 14.1911 21.2867 -7.02345
570 2 8.86945 12.4172 17.7389 -7.01923
576 3 10.6433 12.4172 19.5128 -6.32771
591 2 8.86945 14.1911 19.5128 -7.00613
593 1 10.6433 14.1911 17.7389 -8.55902
670 1 8.86945 12.4172 21.2867 -8.29856
693 3 10.6433 14.1911 21.2867 -6.23688
574 3 12.4172 12.4172 17.7389 -6.21572
580 3 14.1911 12.4172 19.5128 -6.2153
595 3 12.4172 14.1911 19.5128 -6.31407
597 1 14.1911 14.1911 17.7389 -8.77345
674 1 12.4172 12.4172 21.2867 -8.66696
697 3 14.1911 14.1911 21.2867 -6.36814
578 3 15.965 12.4172 17.7389 -6.32444
599 2 15.965 14.1911 19.5128 -6.90017
678 1 15.965 12.4172 21.2867 -8.5026
582 3 1.77389 15.965 17.7389 -6.19015
584 3 0 15.965 19.5128 -6.21535
588 3 3.54778 15.965 19.5128 -6.1201
682 1 1.77389 15.965 21.2867 -8.25051
586 2 5.32167 15.965 17.7389 -6.99558
592 2 7.09556 15.965 19.5128 -7.05207
686 1 5.32167 15.965 21.2867 -8.25455
590 2 8.86945 15.965 17.7389 -7.104
596 2 10.6433 15.965 19.5128 -7.01644
690 1 8.86945 15.965 21.2867 -8.3323
594 2 12.4172 15.965 17.7389 -6.89954
600 2 14.1911 15.965 19.5128 -6.92821
694 1 12.4172 15.965 21.2867 -8.78562
598 3 15.965 15.965 17.7389 -6.21061
698 3 15.965 15.965 21.2867 -6.42005
603 1 1.77389 0 23.0606 -8.51048
604 1 0 1.77389 23.0606 -8.46882
608 1 3.54778 1.77389 23.0606 -8.48235
623 2 1.77389 3.54778 23.0606 -6.96617
701 1 0 0 24.8344 -8.40333
702 2 1.77389 1.77389 24.8344 -7.05281
703 2 1.77389 0 26.6083 -7.01027
704 3 0 1.77389 26.6083 -6.42607
705 2 3.54778 0 24.8344 -6.98629
708 1 3.54778 1.77389 26.6083 -8.55792
721 1 0 3.54778 24.8344 -8.59615
723 2 1.77389 3.54778 26.6083 -7.01611
725 2 3.54778 3.54778 24.8344 -6.9775
607 3 5.32167 0 23.0606 -6.32196
612 2 7.09556 1.77389 23.0606 -6.88159
627 3 5.32167 3.54778 23.0606 -6.30382
706 1 5.32167 1.77389 24.8344 -8.47156
707 2 5.32167 0 26.6083 -6.93041
709 3 7.09556 0 24.8344 -6.2527
712 3 7.09556 1.77389 26.6083 -6.30135
727 2 5.32167 3.54778 26.6083 -6.97712
729 1 7.09556 3.54778 24.8344 -8.51538
611 2 8.86945 0 23.0606 -6.88238
616 3 10.6433 1.77389 23.0606 -6.20245
631 3 8.86945 3.54778 23.0606 -6.2713
710 1 8.86945 1.77389 24.8344 -8.76696
711 1 8.86945 0 26.6083 -8.6095
713 3 10.6433 0 24.8344 -6.19649
716 3 10.6433 1.77389 26.6083 -6.22594
731 3 8.86945 3.54778 26.6083 -6.29774
733 3 10.6433 3.54778 24.8344 -6.32939
615 3 12.4172 0 23.0606 -6.32149
620 1 14.1911 1.77389 23.0606 -8.54818
635 3 12.4172 3.54778 23.0606 -6.2936
714 1 12.4172 1.77389 24.8344 -8.79407
715 3 12.4172 0 26.6083 -6.19669
717 2 14.1911 0 24.8344 -6.95028
720 1 14.1911 1.77389 26.6083 -8.62762
735 3 12.4172 3.54778 26.6083 -6.24356
737 2 14.1911 3.54778 24.8344 -6.8816
619 1 15.965 0 23.0606 -8.35597
639 3 15.965 3.54778 23.0606 -6.42614
718 2 15.965 1.77389 24.8344 -6.96468
719 1 15.965 0 26.6083 -8.5917
739 2 15.965 3.54778 26.6083 -6.92259
624 2 0 5.32167 23.0606 -6.99343
628 1 3.54778 5.32167 23.0606 -8.63384
643 3 1.77389 7.09556 23.0606 -6.42757
722 2 1.77389 5.32167 24.8344 -6.97022
724 3 0 5.32167 26.6083 -6.44987
728 1 3.54778 5.32167 26.6083 -8.5286
741 1 0 7.09556 24.8344 -8.62232
743 1 1.77389 7.09556 26.6083 -8.46681
745 3 3.54778 7.09556 24.8344 -6.21484
632 3 7.09556 5.32167 23.0606 -6.45649
647 3 5.32167 7.09556 23.0606 -6.35132
726 1 5.32167 5.32167 24.8344 -8.56717
732 2 7.09556 5.32167 26.6083 -6.93278
747 3 5.32167 7.09556 26.6083 -6.39215
749 3 7.09556 7.09556 24.8344 -6.52766
636 3 10.6433 5.32167 23.0606 -6.45959
651 2 8.86945 7.09556 23.0606 -6.97305
730 2 8.86945 5.32167 24.8344 -6.94287
736 3 10.6433 5.32167 26.6083 -6.35173
751 2 8.86945 7.09556 26.6083 -6.9777
753 3 10.6433 7.09556 24.8344 -6.34534
640 1 14.1911 5.32167 23.0606 -8.79535
655 3 12.4172 7.09556 23.0606 -6.36162
734 1 12.4172 5.32167 24.8344 -8.67282
740 1 14.1911 5.32167 26.6083 -8.59558
755 1 12.4172 7.09556 26.6083 -8.26448
757 3 14.1911 7.09556 24.8344 -6.33487
659 2 15.965 7.09556 23.0606 -6.98892
738 2 15.965 5.32167 24.8344 -6.99573
759 1 15.965 7.09556 26.6083 -8.70769
644 2 0 8.86945 23.0606 -6.97924
648 1 3.54778 8.86945 23.0606 -8.9478
663 2 1.77389 10.6433 23.0606 -6.99509
742 3 1.77389 8.86945 24.8344 -6.33773
744 3 0 8.86945 26.6083 -6.49505
748 1 3.54778 8.86945 26.6083 -8.7306
761 1 0 10.6433 24.8344 -8.70098
763 3 1.77389 10.6433 26.6083 -6.33598
765 2 3.54778 10.6433 24.8344 -6.88048
652 1 7.09556 8.86945 23.0606 -8.79004
667 3 5.32167 10.6433 23.0606 -6.38073
746 3 5.32167 8.86945 24.8344 -6.31577
752 2 7.09556 8.86945 26.6083 -6.9153
767 1 5.32167 10.6433 26.6083 -8.54512
769 3 7.09556 10.6433 24.8344 -6.28408
656 1 10.6433 8.86945 23.0606 -8.62145
671 1 8.86945 10.6433 23.0606 -8.30521
750 2 8.86945 8.86945 24.8344 -6.91502
756 1 10.6433 8.86945 26.6083 -8.34199
771 1 8.86945 10.6433 26.6083 -8.58794
773 3 10.6433 10.6433 24.8344 -6.16825
660 2 14.1911 8.86945 23.0606 -6.94893
675 2 12.4172 10.6433 23.0606 -6.95951
754 1 12.4172 8.86945 24.8344 -8.40379
760 2 14.1911 8.86945 26.6083 -6.96425
775 3 12.4172 10.6433 26.6083 -6.18455
777 1 14.1911 10.6433 24.8344 -8.36173
679 2 15.965 10.6433 23.0606 -6.97207
758 2 15.965 8.86945 24.8344 -7.03359
779 2 15.965 10.6433 26.6083 -7.04178
664 1 0 12.4172 23.0606 -8.23531
668 1 3.54778 12.4172 23.0606 -8.42882
683 1 1.77389 14.1911 23.0606 -8.12471
762 1 1.77389 12.4172 24.8344 -8.15997
764 3 0 12.4172 26.6083 -6.20882
768 2 3.54778 12.4172 26.6083 -6.90855
781 1 0 14.1911 24.8344 -8.39777
783 1 1.77389 14.1911 26.6083 -8.49166
785 1 3.54778 14.1911 24.8344 -8.39633
672 1 7.09556 12.4172 23.0606 -8.35395
687 2 5.32167 14.1911 23.0606 -6.92697
766 2 5.32167 12.4172 24.8344 -6.95269
772 2 7.09556 12.4172 26.6083 -6.95957
787 3 5.32167 14.1911 26.6083 -6.41453
789 1 7.09556 14.1911 24.8344 -8.48033
676 1 10.6433 12.4172 23.0606 -8.37657
691 1 8.86945 14.1911 23.0606 -8.26908
770 2 8.86945 12.4172 24.8344 -6.97836
776 1 10.6433 12.4172 26.6083 -8.58199
791 1 8.86945 14.1911 26.6083 -8.41417
793 2 10.6433 14.1911 24.8344 -6.9399
680 2 14.1911 12.4172 23.0606 -6.95045
695 3 12.4172 14.1911 23.0606 -6.28901
774 2 12.4172 12.4172 24.8344 -6.93282
780 1 14.1911 12.4172 26.6083 -8.29329
795 2 12.4172 14.1911 26.6083 -7.0054
797 1 14.1911 14.1911 24.8344 -8.33782
699 1 15.965 14.1911 23.0606 -8.68167
778 2 15.965 12.4172 24.8344 -7.01811
799 2 15.965 14.1911 26.6083 -7.01737
684 3 0 15.965 23.0606 -6.05823
688 1 3.54778 15.965 23.0606 -8.07718
782 3 1.77389 15.965 24.8344 -6.00961
784 3 0 15.965 26.6083 -6.20241
788 3 3.54778 15.965 26.6083 -6.30732
692 3 7.09556 15.965 23.0606 -6.20448
786 3 5.32167 15.965 24.8344 -6.32625
792 2 7.09556 15.965 26.6083 -6.92967
696 2 10.6433 15.965 23.0606 -6.88535
790 3 8.86945 15.965 24.8344 -6.24244
796 3 10.6433 15.965 26.6083 -6.26736
700 3 14.1911 15.965 23.0606 -6.3473
794 1 12.4172 15.965 24.8344 -8.73557
800 2 14.1911 15.965 26.6083 -7.03647
798 2 15.965 15.965 24.8344 -6.93424
801 1 0 0 28.3822 -8.46962
802 2 1.77389 1.77389 28.3822 -7.01798
803 1 1.77389 0 30.1561 -8.70006
804 3 0 1.77389 30.1561 -6.39179
805 2 3.54778 0 28.3822 -6.96194
808 2 3.54778 1.77389 30.1561 -6.91595