ITEM: TIMESTEP
0
ITEM: NUMBER OF ATOMS
4000
ITEM: BOX BOUNDS pp pp pp
0.0000000000000000e+00 3.6030929999999998e+01
0.0000000000000000e+00 3.6030929999999998e+01
0.0000000000000000e+00 3.6030929999999998e+01
ITEM: ATOMS id type x y z c_peratom
1 3 0 0 0 -6.45977
2 2 1.80155 1.80155 0 -6.97063
3 3 1.80155 0 1.80155 -6.42956
4 3 0 1.80155 1.80155 -6.49684
101 3 0 0 3.60309 -6.4
102 2 1.80155 1.80155 3.60309 -6.87343
5 1 3.60309 0 0 -8.23674
6 2 5.40464 1.80155 0 -7.06466
7 3 5.40464 0 1.80155 -6.34103
8 1 3.60309 1.80155 1.80155 -8.38754
105 3 3.60309 0 3.60309 -6.51617
106 3 5.40464 1.80155 3.60309 -6.40786
9 1 7.20619 0 0 -8.12161
10 3 9.00773 1.80155 0 -6.13896
11 1 9.00773 0 1.80155 -7.96255
12 1 7.20619 1.80155 1.80155 -8.08228
109 1 7.20619 0 3.60309 -8.12241
110 3 9.00773 1.80155 3.60309 -6.34923
13 1 10.8093 0 0 -8.13538
14 2 12.6108 1.80155 0 -7.04463
15 2 12.6108 0 1.80155 -6.9474
16 1 10.8093 1.80155 1.80155 -8.22065
113 3 10.8093 0 3.60309 -6.45923
114 2 12.6108 1.80155 3.60309 -7.07363
17 3 14.4124 0 0 -6.62563
18 1 16.2139 1.80155 0 -8.41925
19 1 16.2139 0 1.80155 -8.35102
20 2 14.4124 1.80155 1.80155 -7.04191
117 3 14.4124 0 3.60309 -6.63507
118 2 16.2139 1.80155 3.60309 -7.00287
21 3 0 3.60309 0 -6.41037
22 1 1.80155 5.40464 0 -8.22518
23 3 1.80155 3.60309 1.80155 -6.41064
24 1 0 5.40464 1.80155 -8.33357
121 3 0 3.60309 3.60309 -6.36196
122 3 1.80155 5.40464 3.60309 -6.33754
25 1 3.60309 3.60309 0 -8.14027
26 1 5.40464 5.40464 0 -8.22142
27 2 5.40464 3.60309 1.80155 -6.98856
28 3 3.60309 5.40464 1.80155 -6.38165
125 3 3.60309 3.60309 3.60309 -6.45937
126 2 5.40464 5.40464 3.60309 -7.0232
29 1 7.20619 3.60309 0 -8.16003
30 3 9.00773 5.40464 0 -6.2333
31 1 9.00773 3.60309 1.80155 -8.18567
32 3 7.20619 5.40464 1.80155 -6.3318
129 1 7.20619 3.60309 3.60309 -8.32775
130 2 9.00773 5.40464 3.60309 -6.99928
33 1 10.8093 3.60309 0 -8.0923
34 1 12.6108 5.40464 0 -8.28865
35 2 12.6108 3.60309 1.80155 -7.00133
36 2 10.8093 5.40464 1.80155 -7.0362
133 3 10.8093 3.60309 3.60309 -6.54992
134 1 12.6108 5.40464 3.60309 -8.1867
37 3 14.4124 3.60309 0 -6.45284
38 1 16.2139 5.40464 0 -8.62204
39 3 16.2139 3.60309 1.80155 -6.43919
40 3 14.4124 5.40464 1.80155 -6.23041
137 1 14.4124 3.60309 3.60309 -8.16675
138 1 16.2139 5.40464 3.60309 -8.11626
41 3 0 7.20619 0 -6.17033
42 1 1.80155 9.00773 0 -8.22889
43 2 1.80155 7.20619 1.80155 -6.98317
44 1 0 9.00773 1.80155 -8.31895
141 2 0 7.20619 3.60309 -6.96149
142 3 1.80155 9.00773 3.60309 -6.37016
45 1 3.60309 7.20619 0 -8.13014
46 1 5.40464 9.00773 0 -8.1465
47 2 5.40464 7.20619 1.80155 -6.99118
48 2 3.60309 9.00773 1.80155 -6.99868
145 1 3.60309 7.20619 3.60309 -8.2956
146 3 5.40464 9.00773 3.60309 -6.30146
49 2 7.20619 7.20619 0 -6.91994
50 1 9.00773 9.00773 0 -8.25521
51 1 9.00773 7.20619 1.80155 -8.16567
52 2 7.20619 9.00773 1.80155 -7.01551
149 1 7.20619 7.20619 3.60309 -8.25365
150 3 9.00773 9.00773 3.60309 -6.25526
53 1 10.8093 7.20619 0 -8.19116
54 2 12.6108 9.00773 0 -6.90172
55 3 12.6108 7.20619 1.80155 -6.28387
56 2 10.8093 9.00773 1.80155 -7.0033
153 1 10.8093 7.20619 3.60309 -8.10185
154 1 12.6108 9.00773 3.60309 -8.25958
57 3 14.4124 7.20619 0 -6.43348
58 2 16.2139 9.00773 0 -6.90925
59 3 16.2139 7.20619 1.80155 -6.36049
60 3 14.4124 9.00773 1.80155 -6.41458
157 1 14.4124 7.20619 3.60309 -8.04755
158 1 16.2139 9.00773 3.60309 -8.17143
61 3 0 10.8093 0 -6.13713
62 1 1.80155 12.6108 0 -8.21866
63 3 1.80155 10.8093 1.80155 -6.25933
64 1 0 12.6108 1.80155 -8.08874
161 2 0 10.8093 3.60309 -6.99204
162 1 1.80155 12.6108 3.60309 -8.09049
65 3 3.60309 10.8093 0 -6.25308
66 3 5.40464 12.6108 0 -6.35941
67 1 5.40464 10.8093 1.80155 -8.19871
68 1 3.60309 12.6108 1.80155 -8.14923
165 2 3.60309 10.8093 3.60309 -7.04054
166 1 5.40464 12.6108 3.60309 -8.03513
69 3 7.20619 10.8093 0 -6.29963
70 1 9.00773 12.6108 0 -8.44829
71 3 9.00773 10.8093 1.80155 -6.29907
72 3 7.20619 12.6108 1.80155 -6.22519
169 1 7.20619 10.8093 3.60309 -8.1433
170 1 9.00773 12.6108 3.60309 -8.19318
73 2 10.8093 10.8093 0 -6.88611
74 1 12.6108 12.6108 0 -8.30307
75 3 12.6108 10.8093 1.80155 -6.3294
76 3 10.8093 12.6108 1.80155 -6.25412
173 1 10.8093 10.8093 3.60309 -8.22171
174 1 12.6108 12.6108 3.60309 -8.23154
77 3 14.4124 10.8093 0 -6.45948
78 3 16.2139 12.6108 0 -6.35218
79 2 16.2139 10.8093 1.80155 -6.99114
80 1 14.4124 12.6108 1.80155 -8.16544
177 3 14.4124 10.8093 3.60309 -6.2994
178 1 16.2139 12.6108 3.60309 -8.16868
81 3 0 14.4124 0 -6.33344
82 2 1.80155 16.2139 0 -6.93987
83 1 1.80155 14.4124 1.80155 -8.13191
84 2 0 16.2139 1.80155 -7.04257
181 2 0 14.4124 3.60309 -7.10235
182 1 1.80155 16.2139 3.60309 -8.30184
85 2 3.60309 14.4124 0 -6.98497
86 1 5.40464 16.2139 0 -8.3268
87 3 5.40464 14.4124 1.80155 -6.28829
88 3 3.60309 16.2139 1.80155 -6.37306
185 2 3.60309 14.4124 3.60309 -7.10404
186 1 5.40464 16.2139 3.60309 -8.41041
89 1 7.20619 14.4124 0 -8.46451
90 3 9.00773 16.2139 0 -6.43401
91 2 9.00773 14.4124 1.80155 -6.92474
92 3 7.20619 16.2139 1.80155 -6.37652
189 3 7.20619 14.4124 3.60309 -6.22086
190 1 9.00773 16.2139 3.60309 -8.30851
93 3 10.8093 14.4124 0 -6.3559
94 1 12.6108 16.2139 0 -8.13012
95 3 12.6108 14.4124 1.80155 -6.23616
96 2 10.8093 16.2139 1.80155 -7.02636
193 1 10.8093 14.4124 3.60309 -8.13699
194 2 12.6108 16.2139 3.60309 -7.05667
97 1 14.4124 14.4124 0 -8.13765
98 2 16.2139 16.2139 0 -6.96602
99 3 16.2139 14.4124 1.80155 -6.47039
100 2 14.4124 16.2139 1.80155 -6.94923
197 1 14.4124 14.4124 3.60309 -8.11659
198 3 16.2139 16.2139 3.60309 -6.50607
103 1 1.80155 0 5.40464 -8.35196
104 3 0 1.80155 5.40464 -6.3905
201 1 0 0 7.20619 -8.31592
202 3 1.80155 1.80155 7.20619 -6.33968
107 2 5.40464 0 5.40464 -6.94807
108 3 3.60309 1.80155 5.40464 -6.49842
203 1 3.60309 0 7.20619 -8.33478
204 2 5.40464 1.80155 7.20619 -7.04323
111 1 9.00773 0 5.40464 -8.21351
112 2 7.20619 1.80155 5.40464 -6.94526
205 1 7.20619 0 7.20619 -8.10913
206 3 9.00773 1.80155 7.20619 -6.46417
115 3 12.6108 0 5.40464 -6.60136
116 2 10.8093 1.80155 5.40464 -7.09219
207 3 10.8093 0 7.20619 -6.46186
208 2 12.6108 1.80155 7.20619 -7.11549
119 2 16.2139 0 5.40464 -7.01194
120 3 14.4124 1.80155 5.40464 -6.56445
209 1 14.4124 0 7.20619 -8.34834
210 3 16.2139 1.80155 7.20619 -6.45401
123 1 1.80155 3.60309 5.40464 -8.63739
124 3 0 5.40464 5.40464 -6.37731
211 3 0 3.60309 7.20619 -6.43707
212 3 1.80155 5.40464 7.20619 -6.3357
127 3 5.40464 3.60309 5.40464 -6.52697
128 1 3.60309 5.40464 5.40464 -8.21261
213 3 3.60309 3.60309 7.20619 -6.53347
214 3 5.40464 5.40464 7.20619 -6.49167
131 2 9.00773 3.60309 5.40464 -7.00966
132 2 7.20619 5.40464 5.40464 -7.01068
215 3 7.20619 3.60309 7.20619 -6.56328
216 1 9.00773 5.40464 7.20619 -8.20324
135 2 12.6108 3.60309 5.40464 -7.06642
136 3 10.8093 5.40464 5.40464 -6.42088
217 2 10.8093 3.60309 7.20619 -7.1099
218 3 12.6108 5.40464 7.20619 -6.41807
139 1 16.2139 3.60309 5.40464 -8.16903
140 1 14.4124 5.40464 5.40464 -7.92518
219 2 14.4124 3.60309 7.20619 -7.00783
220 2 16.2139 5.40464 7.20619 -7.08735
143 1 1.80155 7.20619 5.40464 -8.21345
144 1 0 9.00773 5.40464 -8.09502
221 3 0 7.20619 7.20619 -6.32374
222 1 1.80155 9.00773 7.20619 -8.06396
147 1 5.40464 7.20619 5.40464 -8.20598
148 1 3.60309 9.00773 5.40464 -8.11577
223 1 3.60309 7.20619 7.20619 -8.19118
224 3 5.40464 9.00773 7.20619 -6.4163
151 1 9.00773 7.20619 5.40464 -8.30783
152 2 7.20619 9.00773 5.40464 -6.91126
225 3 7.20619 7.20619 7.20619 -6.45498
226 3 9.00773 9.00773 7.20619 -6.41343
155 1 12.6108 7.20619 5.40464 -8.0622
156 3 10.8093 9.00773 5.40464 -6.20302
227 2 10.8093 7.20619 7.20619 -6.97022
228 1 12.6108 9.00773 7.20619 -8.06851
159 1 16.2139 7.20619 5.40464 -8.11774
160 2 14.4124 9.00773 5.40464 -7.05419
229 1 14.4124 7.20619 7.20619 -8.04555
230 3 16.2139 9.00773 7.20619 -6.45881
163 3 1.80155 10.8093 5.40464 -6.25585
164 3 0 12.6108 5.40464 -6.3629
231 1 0 10.8093 7.20619 -8.04563
232 1 1.80155 12.6108 7.20619 -8.04206
167 1 5.40464 10.8093 5.40464 -8.10587
168 1 3.60309 12.6108 5.40464 -7.98258
233 2 3.60309 10.8093 7.20619 -7.07265
234 2 5.40464 12.6108 7.20619 -7.02459
171 1 9.00773 10.8093 5.40464 -8.08776
172 1 7.20619 12.6108 5.40464 -8.01696
235 2 7.20619 10.8093 7.20619 -7.06857
236 1 9.00773 12.6108 7.20619 -8.02362
175 2 12.6108 10.8093 5.40464 -6.95608
176 2 10.8093 12.6108 5.40464 -7.05117
237 1 10.8093 10.8093 7.20619 -8.07629
238 2 12.6108 12.6108 7.20619 -7.0115
179 1 16.2139 10.8093 5.40464 -8.30709
180 3 14.4124 12.6108 5.40464 -6.33092
239 3 14.4124 10.8093 7.20619 -6.40431
240 1 16.2139 12.6108 7.20619 -8.30342
183 1 1.80155 14.4124 5.40464 -7.9928
184 1 0 16.2139 5.40464 -8.18343
241 3 0 14.4124 7.20619 -6.3852
242 1 1.80155 16.2139 7.20619 -8.4573
187 1 5.40464 14.4124 5.40464 -8.14844
188 2 3.60309 16.2139 5.40464 -6.9773
243 2 3.60309 14.4124 7.20619 -7.12876
244 2 5.40464 16.2139 7.20619 -6.92323
191 3 9.00773 14.4124 5.40464 -6.17481
192 3 7.20619 16.2139 5.40464 -6.34683
245 3 7.20619 14.4124 7.20619 -6.26275
246 1 9.00773 16.2139 7.20619 -8.20063
195 2 12.6108 14.4124 5.40464 -7.07022
196 1 10.8093 16.2139 5.40464 -7.92413
247 1 10.8093 14.4124 7.20619 -8.08587
248 2 12.6108 16.2139 7.20619 -7.04576
199 1 16.2139 14.4124 5.40464 -8.2715
200 1 14.4124 16.2139 5.40464 -8.20116
249 3 14.4124 14.4124 7.20619 -6.4092
250 3 16.2139 16.2139 7.20619 -6.36917
251 1 1.80155 0 9.00773 -8.37344
252 3 0 1.80155 9.00773 -6.47446
301 3 0 0 10.8093 -6.58005
302 3 1.80155 1.80155 10.8093 -6.47448
303 1 1.80155 0 12.6108 -8.40619
304 2 0 1.80155 12.6108 -7.05098
253 2 5.40464 0 9.00773 -7.00368
254 3 3.60309 1.80155 9.00773 -6.53991
305 2 3.60309 0 10.8093 -6.99083
306 3 5.40464 1.80155 10.8093 -6.41055
307 2 5.40464 0 12.6108 -7.00551
308 1 3.60309 1.80155 12.6108 -8.19596
255 3 9.00773 0 9.00773 -6.31753
256 1 7.20619 1.80155 9.00773 -8.25377
309 1 7.20619 0 10.8093 -8.22429
310 3 9.00773 1.80155 10.8093 -6.33474
311 2 9.00773 0 12.6108 -6.9855
312 1 7.20619 1.80155 12.6108 -8.08911
257 1 12.6108 0 9.00773 -8.27189
258 2 10.8093 1.80155 9.00773 -6.95807
313 1 10.8093 0 10.8093 -8.42043
314 3 12.6108 1.80155 10.8093 -6.29141
315 3 12.6108 0 12.6108 -6.2572
316 3 10.8093 1.80155 12.6108 -6.38244
259 1 16.2139 0 9.00773 -8.24406
260 3 14.4124 1.80155 9.00773 -6.33683
317 1 14.4124 0 10.8093 -8.27555
318 3 16.2139 1.80155 10.8093 -6.3565
319 3 16.2139 0 12.6108 -6.32363
320 3 14.4124 1.80155 12.6108 -6.3015
261 2 1.80155 3.60309 9.00773 -6.89362
262 1 0 5.40464 9.00773 -8.33643
321 1 0 3.60309 10.8093 -8.24862
322 1 1.80155 5.40464 10.8093 -8.07566
323 2 1.80155 3.60309 12.6108 -7.03064
324 1 0 5.40464 12.6108 -8.14286
263 2 5.40464 3.60309 9.00773 -6.94431
264 3 3.60309 5.40464 9.00773 -6.44708
325 3 3.60309 3.60309 10.8093 -6.42596
326 1 5.40464 5.40464 10.8093 -8.26962
327 1 5.40464 3.60309 12.6108 -8.11973
328 1 3.60309 5.40464 12.6108 -8.01857
265 1 9.00773 3.60309 9.00773 -8.1987
266 3 7.20619 5.40464 9.00773 -6.51946
329 2 7.20619 3.60309 10.8093 -6.98819
330 2 9.00773 5.40464 10.8093 -7.06972
331 3 9.00773 3.60309 12.6108 -6.35636
332 2 7.20619 5.40464 12.6108 -7.03439
267 2 12.6108 3.60309 9.00773 -7.0345
268 1 10.8093 5.40464 9.00773 -8.17405
333 1 10.8093 3.60309 10.8093 -8.29659
334 2 12.6108 5.40464 10.8093 -7.08754
335 2 12.6108 3.60309 12.6108 -6.98383
336 1 10.8093 5.40464 12.6108 -8.14328
269 1 16.2139 3.60309 9.00773 -8.19184
270 1 14.4124 5.40464 9.00773 -8.04584
337 1 14.4124 3.60309 10.8093 -8.36696
338 2 16.2139 5.40464 10.8093 -7.09991
339 2 16.2139 3.60309 12.6108 -7.01185
340 3 14.4124 5.40464 12.6108 -6.61597
271 2 1.80155 7.20619 9.00773 -7.02046
272 2 0 9.00773 9.00773 -6.959
341 1 0 7.20619 10.8093 -8.17687
342 1 1.80155 9.00773 10.8093 -8.20083
343 3 1.80155 7.20619 12.6108 -6.26604
344 3 0 9.00773 12.6108 -6.46183
273 2 5.40464 7.20619 9.00773 -7.00998
274 2 3.60309 9.00773 9.00773 -7.04896
345 1 3.60309 7.20619 10.8093 -8.07313
346 1 5.40464 9.00773 10.8093 -8.13305
347 3 5.40464 7.20619 12.6108 -6.31872
348 2 3.60309 9.00773 12.6108 -7.01689
275 2 9.00773 7.20619 9.00773 -7.02743
276 1 7.20619 9.00773 9.00773 -8.37819
349 2 7.20619 7.20619 10.8093 -7.09526
350 2 9.00773 9.00773 10.8093 -7.11141
351 1 9.00773 7.20619 12.6108 -8.06639
352 2 7.20619 9.00773 12.6108 -7.13515
277 2 12.6108 7.20619 9.00773 -7.05987
278 1 10.8093 9.00773 9.00773 -8.1134
353 2 10.8093 7.20619 10.8093 -7.13121
354 1 12.6108 9.00773 10.8093 -8.07158
355 2 12.6108 7.20619 12.6108 -7.14101
356 2 10.8093 9.00773 12.6108 -7.13478
279 2 16.2139 7.20619 9.00773 -7.00233
280 3 14.4124 9.00773 9.00773 -6.46431
357 1 14.4124 7.20619 10.8093 -8.2031
358 2 16.2139 9.00773 10.8093 -7.0503
359 2 16.2139 7.20619 12.6108 -7.18118
360 2 14.4124 9.00773 12.6108 -7.16336
281 2 1.80155 10.8093 9.00773 -7.04761
282 1 0 12.6108 9.00773 -8.26487
361 2 0 10.8093 10.8093 -6.97061
362 3 1.80155 12.6108 10.8093 -6.51167
363 1 1.80155 10.8093 12.6108 -8.35478
364 3 0 12.6108 12.6108 -6.54453
283 2 5.40464 10.8093 9.00773 -7.02592
284 1 3.60309 12.6108 9.00773 -8.36741
365 3 3.60309 10.8093 10.8093 -6.45519
366 3 5.40464 12.6108 10.8093 -6.50807
367 1 5.40464 10.8093 12.6108 -8.22988
368 2 3.60309 12.6108 12.6108 -6.97695
285 2 9.00773 10.8093 9.00773 -7.06579
286 1 7.20619 12.6108 9.00773 -8.18324
369 2 7.20619 10.8093 10.8093 -7.10333
370 1 9.00773 12.6108 10.8093 -8.26434
371 1 9.00773 10.8093 12.6108 -8.07772
372 2 7.20619 12.6108 12.6108 -7.0948
287 1 12.6108 10.8093 9.00773 -8.12536
288 2 10.8093 12.6108 9.00773 -7.01787
373 2 10.8093 10.8093 10.8093 -7.07747
374 1 12.6108 12.6108 10.8093 -8.42388
375 1 12.6108 10.8093 12.6108 -8.14666
376 3 10.8093 12.6108 12.6108 -6.46644
289 2 16.2139 10.8093 9.00773 -7.00509
290 2 14.4124 12.6108 9.00773 -6.96263
377 2 14.4124 10.8093 10.8093 -7.0565
378 1 16.2139 12.6108 10.8093 -8.36364
379 3 16.2139 10.8093 12.6108 -6.63269
380 3 14.4124 12.6108 12.6108 -6.40504
291 3 1.80155 14.4124 9.00773 -6.38682
292 3 0 16.2139 9.00773 -6.57325
381 2 0 14.4124 10.8093 -6.94889
382 1 1.80155 16.2139 10.8093 -8.39375
383 3 1.80155 14.4124 12.6108 -6.47522
384 1 0 16.2139 12.6108 -8.38713
293 1 5.40464 14.4124 9.00773 -8.14521
294 2 3.60309 16.2139 9.00773 -6.90483
385 3 3.60309 14.4124 10.8093 -6.37878
386 1 5.40464 16.2139 10.8093 -8.14443
387 2 5.40464 14.4124 12.6108 -7.09626
388 1 3.60309 16.2139 12.6108 -8.25431
295 2 9.00773 14.4124 9.00773 -7.05418
296 1 7.20619 16.2139 9.00773 -8.10856
389 2 7.20619 14.4124 10.8093 -7.11324
390 2 9.00773 16.2139 10.8093 -6.9591
391 3 9.00773 14.4124 12.6108 -6.52194
392 2 7.20619 16.2139 12.6108 -6.96621
297 3 12.6108 14.4124 9.00773 -6.42525
298 1 10.8093 16.2139 9.00773 -8.1452
393 3 10.8093 14.4124 10.8093 -6.41323
394 2 12.6108 16.2139 10.8093 -6.97442
395 3 12.6108 14.4124 12.6108 -6.50559
396 1 10.8093 16.2139 12.6108 -8.27039
299 1 16.2139 14.4124 9.00773 -8.34249
300 1 14.4124 16.2139 9.00773 -8.40577
397 3 14.4124 14.4124 10.8093 -6.34995
398 3 16.2139 16.2139 10.8093 -6.40336
399 1 16.2139 14.4124 12.6108 -8.08683
400 1 14.4124 16.2139 12.6108 -8.35679
401 3 0 0 14.4124 -6.52448
402 2 1.80155 1.80155 14.4124 -7.00139
403 2 1.80155 0 16.2139 -7.03295
404 1 0 1.80155 16.2139 -8.13575
405 1 3.60309 0 14.4124 -8.25771
406 1 5.40464 1.80155 14.4124 -7.94409
407 3 5.40464 0 16.2139 -6.22187
408 3 3.60309 1.80155 16.2139 -6.37972
409 1 7.20619 0 14.4124 -8.118
410 1 9.00773 1.80155 14.4124 -8.26269
411 3 9.00773 0 16.2139 -6.12395
412 1 7.20619 1.80155 16.2139 -7.93199
413 3 10.8093 0 14.4124 -6.26533
414 1 12.6108 1.80155 14.4124 -8.36722
415 3 12.6108 0 16.2139 -6.2866
416 1 10.8093 1.80155 16.2139 -8.28759
417 1 14.4124 0 14.4124 -8.28415
418 1 16.2139 1.80155 14.4124 -8.32267
419 2 16.2139 0 16.2139 -7.01842
420 2 14.4124 1.80155 16.2139 -6.94645
421 2 0 3.60309 14.4124 -7.10732
422 1 1.80155 5.40464 14.4124 -8.2508
423 2 1.80155 3.60309 16.2139 -6.95546
424 1 0 5.40464 16.2139 -8.10975
425 3 3.60309 3.60309 14.4124 -6.32493
426 2 5.40464 5.40464 14.4124 -6.913
427 1 5.40464 3.60309 16.2139 -8.31394
428 3 3.60309 5.40464 16.2139 -6.33392
429 2 7.20619 3.60309 14.4124 -7.04896
430 1 9.00773 5.40464 14.4124 -8.17783
431 2 9.00773 3.60309 16.2139 -7.00701
432 3 7.20619 5.40464 16.2139 -6.27182
433 3 10.8093 3.60309 14.4124 -6.32127
434 2 12.6108 5.40464 14.4124 -7.0173
435 3 12.6108 3.60309 16.2139 -6.35888
436 1 10.8093 5.40464 16.2139 -8.32755
437 1 14.4124 3.60309 14.4124 -8.29263
438 2 16.2139 5.40464 14.4124 -7.10699
439 2 16.2139 3.60309 16.2139 -7.04732
440 3 14.4124 5.40464 16.2139 -6.57293
441 3 0 7.20619 14.4124 -6.3587
442 2 1.80155 9.00773 14.4124 -6.94261
443 3 1.80155 7.20619 16.2139 -6.32221
444 1 0 9.00773 16.2139 -8.18867
445 1 3.60309 7.20619 14.4124 -8.15758
446 1 5.40464 9.00773 14.4124 -8.12032
447 1 5.40464 7.20619 16.2139 -8.2932
448 2 3.60309 9.00773 16.2139 -6.97927
449 1 7.20619 7.20619 14.4124 -8.12627
450 1 9.00773 9.00773 14.4124 -8.0429
451 2 9.00773 7.20619 16.2139 -7.01825
452 3 7.20619 9.00773 16.2139 -6.27926
453 2 10.8093 7.20619 14.4124 -7.14678
454 2 12.6108 9.00773 14.4124 -7.16644
455 2 12.6108 7.20619 16.2139 -7.11319
456 2 10.8093 9.00773 16.2139 -7.14578
457 3 14.4124 7.20619 14.4124 -6.81596
458 2 16.2139 9.00773 14.4124 -7.11133
459 3 16.2139 7.20619 16.2139 -6.63855
460 3 14.4124 9.00773 16.2139 -6.75326
461 2 0 10.8093 14.4124 -7.04639
462 1 1.80155 12.6108 14.4124 -8.43896
463 2 1.80155 10.8093 16.2139 -7.09175
464 3 0 12.6108 16.2139 -6.68534
465 3 3.60309 10.8093 14.4124 -6.5479
466 2 5.40464 12.6108 14.4124 -7.1067
467 2 5.40464 10.8093 16.2139 -7.00712
468 2 3.60309 12.6108 16.2139 -7.13036
469 1 7.20619 10.8093 14.4124 -8.147
470 3 9.00773 12.6108 14.4124 -6.55707
471 3 9.00773 10.8093 16.2139 -6.50243
472 2 7.20619 12.6108 16.2139 -7.02437
473 1 10.8093 10.8093 14.4124 -8.2551
474 2 12.6108 12.6108 14.4124 -7.00931
475 2 12.6108 10.8093 16.2139 -7.16771
476 2 10.8093 12.6108 16.2139 -7.03608
477 2 14.4124 10.8093 14.4124 -7.08125
478 1 16.2139 12.6108 14.4124 -8.37202
479 3 16.2139 10.8093 16.2139 -6.65374
480 3 14.4124 12.6108 16.2139 -6.62423
481 2 0 14.4124 14.4124 -7.00445
482 2 1.80155 16.2139 14.4124 -7.00115
483 2 1.80155 14.4124 16.2139 -7.13351
484 3 0 16.2139 16.2139 -6.61408
485 3 3.60309 14.4124 14.4124 -6.57974
486 1 5.40464 16.2139 14.4124 -8.24509
487 2 5.40464 14.4124 16.2139 -7.12512
488 2 3.60309 16.2139 16.2139 -7.10005
489 2 7.20619 14.4124 14.4124 -7.09268
490 1 9.00773 16.2139 14.4124 -8.26931
491 3 9.00773 14.4124 16.2139 -6.45976
492 1 7.20619 16.2139 16.2139 -8.08609
493 2 10.8093 14.4124 14.4124 -6.94063
494 3 12.6108 16.2139 14.4124 -6.55037
495 1 12.6108 14.4124 16.2139 -8.40973
496 3 10.8093 16.2139 16.2139 -6.45603
497 2 14.4124 14.4124 14.4124 -7.04772
498 1 16.2139 16.2139 14.4124 -8.0011
499 1 16.2139 14.4124 16.2139 -8.18071
500 2 14.4124 16.2139 16.2139 -7.02663
501 2 0 0 18.0155 -7.0881
502 1 1.80155 1.80155 18.0155 -8.38238
503 1 1.80155 0 19.817 -8.14107
504 2 0 1.80155 19.817 -6.98351
601 2 0 0 21.6186 -7.04634
602 1 1.80155 1.80155 21.6186 -8.24335
505 2 3.60309 0 18.0155 -7.07631
506 1 5.40464 1.80155 18.0155 -8.21836
507 2 5.40464 0 19.817 -7.07527
508 2 3.60309 1.80155 19.817 -6.89822
605 3 3.60309 0 21.6186 -6.35651
606 1 5.40464 1.80155 21.6186 -8.28402
509 1 7.20619 0 18.0155 -8.02568
510 1 9.00773 1.80155 18.0155 -8.26811
511 3 9.00773 0 19.817 -6.21335
512 1 7.20619 1.80155 19.817 -8.07799
609 2 7.20619 0 21.6186 -6.9917
610 1 9.00773 1.80155 21.6186 -8.11684
513 3 10.8093 0 18.0155 -6.25484
514 1 12.6108 1.80155 18.0155 -8.44581
515 3 12.6108 0 19.817 -6.20071
516 3 10.8093 1.80155 19.817 -6.26502
613 1 10.8093 0 21.6186 -8.20029
614 3 12.6108 1.80155 21.6186 -6.24069
517 1 14.4124 0 18.0155 -8.21447
518 1 16.2139 1.80155 18.0155 -8.24546
519 2 16.2139 0 19.817 -7.03401
520 3 14.4124 1.80155 19.817 -6.32314
617 1 14.4124 0 21.6186 -8.36393
618 2 16.2139 1.80155 21.6186 -6.91577
521 3 0 3.60309 18.0155 -6.34659
522 1 1.80155 5.40464 18.0155 -8.39938
523 3 1.80155 3.60309 19.817 -6.31634
524 1 0 5.40464 19.817 -8.37814
621 3 0 3.60309 21.6186 -6.38722
622 1 1.80155 5.40464 21.6186 -8.28384
525 3 3.60309 3.60309 18.0155 -6.34615
526 3 5.40464 5.40464 18.0155 -6.36338
527 3 5.40464 3.60309 19.817 -6.40361
528 3 3.60309 5.40464 19.817 -6.37603
625 3 3.60309 3.60309 21.6186 -6.35349
626 2 5.40464 5.40464 21.6186 -6.90314
529 1 7.20619 3.60309 18.0155 -8.15546
530 1 9.00773 5.40464 18.0155 -8.266
531 3 9.00773 3.60309 19.817 -6.1971
532 3 7.20619 5.40464 19.817 -6.27887
629 2 7.20619 3.60309 21.6186 -6.96548
630 1 9.00773 5.40464 21.6186 -8.2038
533 3 10.8093 3.60309 18.0155 -6.33931
534 3 12.6108 5.40464 18.0155 -6.45569
535 2 12.6108 3.60309 19.817 -6.92641
536 2 10.8093 5.40464 19.817 -6.99992
633 1 10.8093 3.60309 21.6186 -8.14036
634 1 12.6108 5.40464 21.6186 -7.93701
537 3 14.4124 3.60309 18.0155 -6.46958
538 3 16.2139 5.40464 18.0155 -6.42984
539 3 16.2139 3.60309 19.817 -6.28349
540 1 14.4124 5.40464 19.817 -8.13488
637 1 14.4124 3.60309 21.6186 -8.2583
638 1 16.2139 5.40464 21.6186 -8.22865
541 2 0 7.20619 18.0155 -7.04161
542 1 1.80155 9.00773 18.0155 -8.22599
543 1 1.80155 7.20619 19.817 -8.07232
544 1 0 9.00773 19.817 -8.19901
641 3 0 7.20619 21.6186 -6.35522
642 2 1.80155 9.00773 21.6186 -6.8929
545 3 3.60309 7.20619 18.0155 -6.32999
546 3 5.40464 9.00773 18.0155 -6.4501
547 3 5.40464 7.20619 19.817 -6.37735
548 1 3.60309 9.00773 19.817 -8.32792
645 3 3.60309 7.20619 21.6186 -6.37042
646 1 5.40464 9.00773 21.6186 -8.23763
549 1 7.20619 7.20619 18.0155 -8.35946
550 1 9.00773 9.00773 18.0155 -8.24871
551 3 9.00773 7.20619 19.817 -6.20866
552 3 7.20619 9.00773 19.817 -6.21223
649 1 7.20619 7.20619 21.6186 -8.33773
650 1 9.00773 9.00773 21.6186 -8.02132
553 2 10.8093 7.20619 18.0155 -7.02198
554 2 12.6108 9.00773 18.0155 -7.13341
555 1 12.6108 7.20619 19.817 -8.10263
556 1 10.8093 9.00773 19.817 -8.04825
653 1 10.8093 7.20619 21.6186 -8.12026
654 3 12.6108 9.00773 21.6186 -6.32719
557 1 14.4124 7.20619 18.0155 -8.36233
558 2 16.2139 9.00773 18.0155 -7.01779
559 2 16.2139 7.20619 19.817 -6.97152
560 3 14.4124 9.00773 19.817 -6.40883
657 1 14.4124 7.20619 21.6186 -8.02364
658 1 16.2139 9.00773 21.6186 -8.09634
561 2 0 10.8093 18.0155 -7.12072
562 2 1.80155 12.6108 18.0155 -7.1248
563 2 1.80155 10.8093 19.817 -7.01768
564 3 0 12.6108 19.817 -6.63648
661 3 0 10.8093 21.6186 -6.39522
662 3 1.80155 12.6108 21.6186 -6.64351
565 3 3.60309 10.8093 18.0155 -6.57801
566 1 5.40464 12.6108 18.0155 -8.31703
567 3 5.40464 10.8093 19.817 -6.41147
568 2 3.60309 12.6108 19.817 -7.06791
665 2 3.60309 10.8093 21.6186 -7.01909
666 3 5.40464 12.6108 21.6186 -6.45396
569 3 7.20619 10.8093 18.0155 -6.44119
570 3 9.00773 12.6108 18.0155 -6.44489
571 1 9.00773 10.8093 19.817 -8.15968
572 2 7.20619 12.6108 19.817 -6.95157
669 1 7.20619 10.8093 21.6186 -8.12902
670 1 9.00773 12.6108 21.6186 -8.06109
573 2 10.8093 10.8093 18.0155 -7.06561
574 3 12.6108 12.6108 18.0155 -6.59399
575 2 12.6108 10.8093 19.817 -7.01119
576 3 10.8093 12.6108 19.817 -6.32587
673 2 10.8093 10.8093 21.6186 -6.92068
674 3 12.6108 12.6108 21.6186 -6.38442
577 2 14.4124 10.8093 18.0155 -7.11875
578 2 16.2139 12.6108 18.0155 -6.9913
579 1 16.2139 10.8093 19.817 -8.1034
580 2 14.4124 12.6108 19.817 -7.02032
677 3 14.4124 10.8093 21.6186 -6.33933
678 1 16.2139 12.6108 21.6186 -8.22603
581 2 0 14.4124 18.0155 -7.06815
582 2 1.80155 16.2139 18.0155 -7.06344
583 2 1.80155 14.4124 19.817 -7.05025
584 3 0 16.2139 19.817 -6.49527
681 3 0 14.4124 21.6186 -6.54668
682 1 1.80155 16.2139 21.6186 -8.37658
585 1 3.60309 14.4124 18.0155 -8.27969
586 2 5.40464 16.2139 18.0155 -7.084
587 3 5.40464 14.4124 19.817 -6.43855
588 2 3.60309 16.2139 19.817 -7.08159
685 3 3.60309 14.4124 21.6186 -6.59312
686 3 5.40464 16.2139 21.6186 -6.48437
589 1 7.20619 14.4124 18.0155 -8.15877
590 3 9.00773 16.2139 18.0155 -6.25238
591 1 9.00773 14.4124 19.817 -8.0517
592 1 7.20619 16.2139 19.817 -8.18508
689 1 7.20619 14.4124 21.6186 -8.1843
690 1 9.00773 16.2139 21.6186 -8.20353
593 1 10.8093 14.4124 18.0155 -8.38407
594 2 12.6108 16.2139 18.0155 -7.00799
595 1 12.6108 14.4124 19.817 -8.30254
596 3 10.8093 16.2139 19.817 -6.2308
693 1 10.8093 14.4124 21.6186 -8.36741
694 3 12.6108 16.2139 21.6186 -6.27427
597 2 14.4124 14.4124 18.0155 -7.02413
598 2 16.2139 16.2139 18.0155 -7.03885
599 3 16.2139 14.4124 19.817 -6.47972
600 3 14.4124 16.2139 19.817 -6.51462
697 1 14.4124 14.4124 21.6186 -8.30706
698 1 16.2139 16.2139 21.6186 -8.33614
603 1 1.80155 0 23.4201 -8.13358
604 2 0 1.80155 23.4201 -7.0224
701 1 0 0 25.2217 -8.09481
702 2 1.80155 1.80155 25.2217 -6.96162
607 3 5.40464 0 23.4201 -6.34066
608 1 3.60309 1.80155 23.4201 -8.14393
703 3 3.60309 0 25.2217 -6.24748
704 1 5.40464 1.80155 25.2217 -8.49813
611 2 9.00773 0 23.4201 -7.03521
612 2 7.20619 1.80155 23.4201 -6.98256
705 3 7.20619 0 25.2217 -6.36644
706 1 9.00773 1.80155 25.2217 -8.20111
615 1 12.6108 0 23.4201 -8.06502
616 2 10.8093 1.80155 23.4201 -7.09106
707 2 10.8093 0 25.2217 -7.05377
708 1 12.6108 1.80155 25.2217 -8.04242
619 3 16.2139 0 23.4201 -6.51649
620 3 14.4124 1.80155 23.4201 -6.38708
709 3 14.4124 0 25.2217 -6.27681
710 2 16.2139 1.80155 25.2217 -7.02295
623 1 1.80155 3.60309 23.4201 -8.13648
624 2 0 5.40464 23.4201 -6.9965
711 1 0 3.60309 25.2217 -8.27472
712 3 1.80155 5.40464 25.2217 -6.51028
627 1 5.40464 3.60309 23.4201 -8.24897
628 2 3.60309 5.40464 23.4201 -6.95917
713 3 3.60309 3.60309 25.2217 -6.49831
714 2 5.40464 5.40464 25.2217 -7.05999
631 1 9.00773 3.60309 23.4201 -8.04852
632 3 7.20619 5.40464 23.4201 -6.50601
715 2 7.20619 3.60309 25.2217 -6.99762
716 2 9.00773 5.40464 25.2217 -7.0983
635 1 12.6108 3.60309 23.4201 -8.11773
636 2 10.8093 5.40464 23.4201 -7.14429
717 1 10.8093 3.60309 25.2217 -7.99025
718 3 12.6108 5.40464 25.2217 -6.33093
639 3 16.2139 3.60309 23.4201 -6.53114
640 3 14.4124 5.40464 23.4201 -6.33681
719 2 14.4124 3.60309 25.2217 -7.00923
720 2 16.2139 5.40464 25.2217 -7.02531
643 1 1.80155 7.20619 23.4201 -8.39058
644 3 0 9.00773 23.4201 -6.37748
721 2 0 7.20619 25.2217 -6.99712
722 3 1.80155 9.00773 25.2217 -6.42671
647 3 5.40464 7.20619 23.4201 -6.53527
648 3 3.60309 9.00773 23.4201 -6.42413
723 1 3.60309 7.20619 25.2217 -8.43787
724 2 5.40464 9.00773 25.2217 -7.04038
651 2 9.00773 7.20619 23.4201 -7.06009
652 2 7.20619 9.00773 23.4201 -7.1201
725 2 7.20619 7.20619 25.2217 -7.14236
726 2 9.00773 9.00773 25.2217 -7.09455
655 2 12.6108 7.20619 23.4201 -6.88737
656 3 10.8093 9.00773 23.4201 -6.39214
727 1 10.8093 7.20619 25.2217 -8.41734
728 3 12.6108 9.00773 25.2217 -6.37298
659 2 16.2139 7.20619 23.4201 -7.03454
660 1 14.4124 9.00773 23.4201 -8.06983
729 1 14.4124 7.20619 25.2217 -8.38028
730 3 16.2139 9.00773 25.2217 -6.43262
663 1 1.80155 10.8093 23.4201 -8.65477
664 3 0 12.6108 23.4201 -6.45466
731 3 0 10.8093 25.2217 -6.4184
732 3 1.80155 12.6108 25.2217 -6.37656
667 1 5.40464 10.8093 23.4201 -8.33078
668 2 3.60309 12.6108 23.4201 -6.99166
733 2 3.60309 10.8093 25.2217 -6.95057
734 2 5.40464 12.6108 25.2217 -7.06637
671 1 9.00773 10.8093 23.4201 -8.23144
672 3 7.20619 12.6108 23.4201 -6.2798
735 3 7.20619 10.8093 25.2217 -6.44908
736 1 9.00773 12.6108 25.2217 -8.39421
675 1 12.6108 10.8093 23.4201 -8.56
676 3 10.8093 12.6108 23.4201 -6.31829
737 2 10.8093 10.8093 25.2217 -6.89106
738 3 12.6108 12.6108 25.2217 -6.43199
679 1 16.2139 10.8093 23.4201 -8.12745
680 3 14.4124 12.6108 23.4201 -6.33915
739 2 14.4124 10.8093 25.2217 -6.92346
740 1 16.2139 12.6108 25.2217 -8.13405
683 2 1.80155 14.4124 23.4201 -6.93453
684 2 0 16.2139 23.4201 -7.01764
741 1 0 14.4124 25.2217 -8.24082
742 1 1.80155 16.2139 25.2217 -8.14137
687 1 5.40464 14.4124 23.4201 -8.33043
688 3 3.60309 16.2139 23.4201 -6.37203
743 1 3.60309 14.4124 25.2217 -8.10979
744 2 5.40464 16.2139 25.2217 -6.98176
691 3 9.00773 14.4124 23.4201 -6.22116
692 2 7.20619 16.2139 23.4201 -6.94267
745 2 7.20619 14.4124 25.2217 -6.99684
746 1 9.00773 16.2139 25.2217 -8.41979
695 3 12.6108 14.4124 23.4201 -6.31029
696 3 10.8093 16.2139 23.4201 -6.25498
747 1 10.8093 14.4124 25.2217 -8.51134
748 3 12.6108 16.2139 25.2217 -6.44765
699 3 16.2139 14.4124 23.4201 -6.36938
700 1 14.4124 16.2139 23.4201 -8.31806
749 2 14.4124 14.4124 25.2217 -6.92128
750 3 16.2139 16.2139 25.2217 -6.37903
751 1 1.80155 0 27.0232 -8.10452
752 2 0 1.80155 27.0232 -7.0715
801 2 0 0 28.8247 -7.05608
802 2 1.80155 1.80155 28.8247 -7.04872
803 3 1.80155 0 30.6263 -6.37949
804 1 0 1.80155 30.6263 -8.19714
753 3 5.40464 0 27.0232 -6.39005
754 3 3.60309 1.80155 27.0232 -6.37497
805 1 3.60309 0 28.8247 -8.30223
806 3 5.40464 1.80155 28.8247 -6.32508
807 3 5.40464 0 30.6263 -6.43233
808 1 3.60309 1.80155 30.6263 -8.13129
755 3 9.00773 0 27.0232 -6.47168
756 3 7.20619 1.80155 27.0232 -6.39649
809 2 7.20619 0 28.8247 -6.86665
810 3 9.00773 1.80155 28.8247 -6.38288
811 3 9.00773 0 30.6263 -6.61779
812 1 7.20619 1.80155 30.6263 -8.46233
757 1 12.6108 0 27.0232 -8.14511
758 1 10.8093 1.80155 27.0232 -8.03705
813 2 10.8093 0 28.8247 -7.007
814 2 12.6108 1.80155 28.8247 -7.03495
815 3 12.6108 0 30.6263 -6.60851
816 2 10.8093 1.80155 30.6263 -6.94697
759 1 16.2139 0 27.0232 -8.15936
760 2 14.4124 1.80155 27.0232 -7.03035
817 2 14.4124 0 28.8247 -6.99072
818 1 16.2139 1.80155 28.8247 -8.26222
819 1 16.2139 0 30.6263 -8.29342
820 3 14.4124 1.80155 30.6263 -6.43704
761 3 1.80155 3.60309 27.0232 -6.57024
762 2 0 5.40464 27.0232 -7.10176
821 2 0 3.60309 28.8247 -7.01701
822 3 1.80155 5.40464 28.8247 -6.46159
823 1 1.80155 3.60309 30.6263 -7.98608
824 1 0 5.40464 30.6263 -8.14969
763 3 5.40464 3.60309 27.0232 -6.45124
764 2 3.60309 5.40464 27.0232 -7.02997
825 1 3.60309 3.60309 28.8247 -8.33267
826 2 5.40464 5.40464 28.8247 -7.03682
827 1 5.40464 3.60309 30.6263 -8.16625
828 2 3.60309 5.40464 30.6263 -7.00172
765 1 9.00773 3.60309 27.0232 -7.93682
766 1 7.20619 5.40464 27.0232 -8.24969
829 1 7.20619 3.60309 28.8247 -8.21049
830 1 9.00773 5.40464 28.8247 -8.1661
831 3 9.00773 3.60309 30.6263 -6.36552
832 2 7.20619 5.40464 30.6263 -6.93874
767 1 12.6108 3.60309 27.0232 -8.02424
768 2 10.8093 5.40464 27.0232 -7.06534
833 1 10.8093 3.60309 28.8247 -8.23765
834 2 12.6108 5.40464 28.8247 -7.05651
835 3 12.6108 3.60309 30.6263 -6.40088