ITEM: TIMESTEP
0
ITEM: NUMBER OF ATOMS
4000
ITEM: BOX BOUNDS pp pp pp
0.0000000000000000e+00 3.5734059999999999e+01
0.0000000000000000e+00 3.5734059999999999e+01
0.0000000000000000e+00 3.5734059999999999e+01
ITEM: ATOMS id type x y z c_peratom
1 3 0 0 0 -6.39399
2 3 1.7867 1.7867 0 -6.27246
3 1 1.7867 0 1.7867 -8.71546
4 1 0 1.7867 1.7867 -8.35611
101 3 0 0 3.57341 -6.26916
102 2 1.7867 1.7867 3.57341 -6.9866
5 2 3.57341 0 0 -6.97925
6 1 5.36011 1.7867 0 -8.04791
7 1 5.36011 0 1.7867 -8.30264
8 3 3.57341 1.7867 1.7867 -6.34853
105 2 3.57341 0 3.57341 -6.99245
106 2 5.36011 1.7867 3.57341 -7.02883
9 2 7.14681 0 0 -7.00888
10 1 8.93351 1.7867 0 -8.24205
11 1 8.93351 0 1.7867 -8.25702
12 2 7.14681 1.7867 1.7867 -7.07054
13 1 10.7202 0 0 -8.32223
16 2 10.7202 1.7867 1.7867 -7.00052
109 1 7.14681 0 3.57341 -8.48633
110 3 8.93351 1.7867 3.57341 -6.51079
113 2 10.7202 0 3.57341 -6.85741
14 2 12.5069 1.7867 0 -6.91641
15 1 12.5069 0 1.7867 -8.32992
114 1 12.5069 1.7867 3.57341 -8.28059
17 2 14.2936 0 0 -7.02251
18 1 16.0803 1.7867 0 -8.51289
19 1 16.0803 0 1.7867 -8.41294
20 1 14.2936 1.7867 1.7867 -8.28285
117 3 14.2936 0 3.57341 -6.2661
118 1 16.0803 1.7867 3.57341 -8.22191
21 1 0 3.57341 0 -8.74287
22 3 1.7867 5.36011 0 -6.48366
23 3 1.7867 3.57341 1.7867 -6.30805
24 3 0 5.36011 1.7867 -6.51533
121 1 0 3.57341 3.57341 -8.49405
122 2 1.7867 5.36011 3.57341 -6.94078
25 1 3.57341 3.57341 0 -8.43743
26 1 5.36011 5.36011 0 -8.29196
27 2 5.36011 3.57341 1.7867 -6.92068
28 3 3.57341 5.36011 1.7867 -6.42996
125 1 3.57341 3.57341 3.57341 -8.56857
126 1 5.36011 5.36011 3.57341 -8.50527
29 1 7.14681 3.57341 0 -8.32777
30 3 8.93351 5.36011 0 -6.37223
31 2 8.93351 3.57341 1.7867 -6.95578
32 3 7.14681 5.36011 1.7867 -6.3277
33 1 10.7202 3.57341 0 -8.34658
36 2 10.7202 5.36011 1.7867 -6.91044
129 1 7.14681 3.57341 3.57341 -8.59942
130 2 8.93351 5.36011 3.57341 -6.97855
133 3 10.7202 3.57341 3.57341 -6.59242
34 2 12.5069 5.36011 0 -6.93333
35 3 12.5069 3.57341 1.7867 -6.41636
134 3 12.5069 5.36011 3.57341 -6.42461
37 3 14.2936 3.57341 0 -6.29168
38 3 16.0803 5.36011 0 -6.4105
39 3 16.0803 3.57341 1.7867 -6.34216
40 1 14.2936 5.36011 1.7867 -8.79664
137 2 14.2936 3.57341 3.57341 -6.86091
138 3 16.0803 5.36011 3.57341 -6.43073
41 3 0 7.14681 0 -6.5309
42 3 1.7867 8.93351 0 -6.52007
43 3 1.7867 7.14681 1.7867 -6.64547
44 3 0 8.93351 1.7867 -6.45275
61 3 0 10.7202 0 -6.30771
63 3 1.7867 10.7202 1.7867 -6.42915
141 2 0 7.14681 3.57341 -6.91075
142 3 1.7867 8.93351 3.57341 -6.47293
161 3 0 10.7202 3.57341 -6.26571
45 2 3.57341 7.14681 0 -7.00897
46 2 5.36011 8.93351 0 -7.08338
47 2 5.36011 7.14681 1.7867 -6.99515
48 2 3.57341 8.93351 1.7867 -7.01234
65 1 3.57341 10.7202 0 -8.5091
67 3 5.36011 10.7202 1.7867 -6.58681
145 3 3.57341 7.14681 3.57341 -6.52027
146 2 5.36011 8.93351 3.57341 -6.9716
165 3 3.57341 10.7202 3.57341 -6.37267
49 3 7.14681 7.14681 0 -6.48716
50 3 8.93351 8.93351 0 -6.43497
51 1 8.93351 7.14681 1.7867 -8.56128
52 2 7.14681 8.93351 1.7867 -7.09681
53 3 10.7202 7.14681 0 -6.23497
56 1 10.7202 8.93351 1.7867 -8.49195
69 2 7.14681 10.7202 0 -7.10832
71 2 8.93351 10.7202 1.7867 -7.04279
73 1 10.7202 10.7202 0 -8.40239
149 1 7.14681 7.14681 3.57341 -8.34848
150 2 8.93351 8.93351 3.57341 -7.00766
153 3 10.7202 7.14681 3.57341 -6.42769
169 3 7.14681 10.7202 3.57341 -6.51948
173 3 10.7202 10.7202 3.57341 -6.52332
54 3 12.5069 8.93351 0 -6.28102
55 1 12.5069 7.14681 1.7867 -8.54045
75 3 12.5069 10.7202 1.7867 -6.58476
154 2 12.5069 8.93351 3.57341 -6.90706
57 3 14.2936 7.14681 0 -6.34787
58 1 16.0803 8.93351 0 -8.49668
59 3 16.0803 7.14681 1.7867 -6.42623
60 2 14.2936 8.93351 1.7867 -6.89177
77 2 14.2936 10.7202 0 -6.94983
79 3 16.0803 10.7202 1.7867 -6.35753
157 3 14.2936 7.14681 3.57341 -6.38862
158 1 16.0803 8.93351 3.57341 -8.64107
177 3 14.2936 10.7202 3.57341 -6.52533
62 3 1.7867 12.5069 0 -6.27997
64 1 0 12.5069 1.7867 -8.51206
162 2 1.7867 12.5069 3.57341 -6.83825
66 2 5.36011 12.5069 0 -6.98092
68 1 3.57341 12.5069 1.7867 -8.33194
166 1 5.36011 12.5069 3.57341 -8.22171
70 2 8.93351 12.5069 0 -7.07028
72 2 7.14681 12.5069 1.7867 -7.01406
76 2 10.7202 12.5069 1.7867 -6.98747
170 3 8.93351 12.5069 3.57341 -6.48487
74 2 12.5069 12.5069 0 -6.9429
174 3 12.5069 12.5069 3.57341 -6.57188
78 1 16.0803 12.5069 0 -8.55647
80 3 14.2936 12.5069 1.7867 -6.49732
178 1 16.0803 12.5069 3.57341 -8.51552
81 2 0 14.2936 0 -6.95416
82 2 1.7867 16.0803 0 -6.9562
83 3 1.7867 14.2936 1.7867 -6.29147
84 2 0 16.0803 1.7867 -7.02034
181 3 0 14.2936 3.57341 -6.37845
182 1 1.7867 16.0803 3.57341 -8.36794
85 1 3.57341 14.2936 0 -8.34625
86 3 5.36011 16.0803 0 -6.32934
87 1 5.36011 14.2936 1.7867 -8.00991
88 1 3.57341 16.0803 1.7867 -8.20917
185 1 3.57341 14.2936 3.57341 -8.19093
186 1 5.36011 16.0803 3.57341 -8.01488
89 2 7.14681 14.2936 0 -6.98434
90 3 8.93351 16.0803 0 -6.35274
91 1 8.93351 14.2936 1.7867 -8.6201
92 1 7.14681 16.0803 1.7867 -8.21955
93 2 10.7202 14.2936 0 -6.92865
96 3 10.7202 16.0803 1.7867 -6.3452
189 2 7.14681 14.2936 3.57341 -6.97567
190 3 8.93351 16.0803 3.57341 -6.36697
193 3 10.7202 14.2936 3.57341 -6.44774
94 3 12.5069 16.0803 0 -6.46925
95 1 12.5069 14.2936 1.7867 -8.74409
194 3 12.5069 16.0803 3.57341 -6.39655
97 2 14.2936 14.2936 0 -6.96015
98 2 16.0803 16.0803 0 -7.02985
99 3 16.0803 14.2936 1.7867 -6.50475
100 3 14.2936 16.0803 1.7867 -6.52628
197 2 14.2936 14.2936 3.57341 -6.95656
198 1 16.0803 16.0803 3.57341 -8.62801
103 1 1.7867 0 5.36011 -8.47514
104 3 0 1.7867 5.36011 -6.47811
201 3 0 0 7.14681 -6.18097
202 3 1.7867 1.7867 7.14681 -6.43403
107 2 5.36011 0 5.36011 -7.06989
108 2 3.57341 1.7867 5.36011 -7.0858
203 2 3.57341 0 7.14681 -6.98855
204 2 5.36011 1.7867 7.14681 -7.01139
111 3 8.93351 0 5.36011 -6.47776
112 3 7.14681 1.7867 5.36011 -6.51097
116 3 10.7202 1.7867 5.36011 -6.40373
205 3 7.14681 0 7.14681 -6.49183
206 1 8.93351 1.7867 7.14681 -8.55828
207 2 10.7202 0 7.14681 -6.92353
115 1 12.5069 0 5.36011 -8.52893
208 3 12.5069 1.7867 7.14681 -6.3539
119 1 16.0803 0 5.36011 -8.23845
120 1 14.2936 1.7867 5.36011 -8.23397
209 2 14.2936 0 7.14681 -6.9778
210 1 16.0803 1.7867 7.14681 -8.57063
123 2 1.7867 3.57341 5.36011 -6.95071
124 1 0 5.36011 5.36011 -8.43122
211 3 0 3.57341 7.14681 -6.52361
212 2 1.7867 5.36011 7.14681 -7.032
127 2 5.36011 3.57341 5.36011 -6.98496
128 3 3.57341 5.36011 5.36011 -6.41648
213 1 3.57341 3.57341 7.14681 -8.48532
214 1 5.36011 5.36011 7.14681 -8.5947
131 3 8.93351 3.57341 5.36011 -6.47361
132 3 7.14681 5.36011 5.36011 -6.4704
136 3 10.7202 5.36011 5.36011 -6.60591
215 2 7.14681 3.57341 7.14681 -6.92808
216 3 8.93351 5.36011 7.14681 -6.65058
217 1 10.7202 3.57341 7.14681 -8.56647
135 2 12.5069 3.57341 5.36011 -6.88514
218 2 12.5069 5.36011 7.14681 -6.98522
139 3 16.0803 3.57341 5.36011 -6.35285
140 1 14.2936 5.36011 5.36011 -8.6626
219 3 14.2936 3.57341 7.14681 -6.34229
220 3 16.0803 5.36011 7.14681 -6.336
143 1 1.7867 7.14681 5.36011 -8.52295
144 3 0 8.93351 5.36011 -6.4376
163 1 1.7867 10.7202 5.36011 -8.41153
221 2 0 7.14681 7.14681 -7.01797
222 2 1.7867 8.93351 7.14681 -7.01518
231 3 0 10.7202 7.14681 -6.35928
147 3 5.36011 7.14681 5.36011 -6.43602
148 1 3.57341 8.93351 5.36011 -8.43165
167 1 5.36011 10.7202 5.36011 -8.28875
223 3 3.57341 7.14681 7.14681 -6.52071
224 3 5.36011 8.93351 7.14681 -6.41069
233 1 3.57341 10.7202 7.14681 -8.11761
151 2 8.93351 7.14681 5.36011 -7.00706
152 2 7.14681 8.93351 5.36011 -6.94871
156 1 10.7202 8.93351 5.36011 -8.42639
171 1 8.93351 10.7202 5.36011 -8.52435
225 3 7.14681 7.14681 7.14681 -6.60636
226 2 8.93351 8.93351 7.14681 -7.06005
227 2 10.7202 7.14681 7.14681 -7.11227
235 3 7.14681 10.7202 7.14681 -6.26425
237 2 10.7202 10.7202 7.14681 -7.05093
155 1 12.5069 7.14681 5.36011 -8.5682
175 3 12.5069 10.7202 5.36011 -6.58316
228 2 12.5069 8.93351 7.14681 -7.03114
159 2 16.0803 7.14681 5.36011 -6.84597
160 3 14.2936 8.93351 5.36011 -6.43499
179 2 16.0803 10.7202 5.36011 -7.01986
229 3 14.2936 7.14681 7.14681 -6.38778
230 1 16.0803 8.93351 7.14681 -8.30962
239 1 14.2936 10.7202 7.14681 -8.41779
164 1 0 12.5069 5.36011 -8.31037
232 1 1.7867 12.5069 7.14681 -8.38713
168 2 3.57341 12.5069 5.36011 -6.92384
234 3 5.36011 12.5069 7.14681 -6.31316
172 1 7.14681 12.5069 5.36011 -8.32967
176 3 10.7202 12.5069 5.36011 -6.51564
236 2 8.93351 12.5069 7.14681 -6.9385
238 3 12.5069 12.5069 7.14681 -6.53297
180 2 14.2936 12.5069 5.36011 -6.95048
240 1 16.0803 12.5069 7.14681 -8.21414
183 2 1.7867 14.2936 5.36011 -6.93498
184 3 0 16.0803 5.36011 -6.43182
241 3 0 14.2936 7.14681 -6.41387
242 1 1.7867 16.0803 7.14681 -8.42422
187 3 5.36011 14.2936 5.36011 -6.2367
188 3 3.57341 16.0803 5.36011 -6.12365
243 2 3.57341 14.2936 7.14681 -6.96676
244 1 5.36011 16.0803 7.14681 -8.22023
191 2 8.93351 14.2936 5.36011 -6.95113
192 2 7.14681 16.0803 5.36011 -6.96632
196 2 10.7202 16.0803 5.36011 -6.88742
245 1 7.14681 14.2936 7.14681 -8.26442
246 1 8.93351 16.0803 7.14681 -8.57608
247 3 10.7202 14.2936 7.14681 -6.44413
195 1 12.5069 14.2936 5.36011 -8.83258
248 3 12.5069 16.0803 7.14681 -6.43747
199 2 16.0803 14.2936 5.36011 -6.92205
200 2 14.2936 16.0803 5.36011 -6.95487
249 3 14.2936 14.2936 7.14681 -6.41707
250 1 16.0803 16.0803 7.14681 -8.38771
251 3 1.7867 0 8.93351 -6.2012
252 1 0 1.7867 8.93351 -8.54127
301 3 0 0 10.7202 -6.21163
302 1 1.7867 1.7867 10.7202 -8.66053
303 3 1.7867 0 12.5069 -6.27281
304 3 0 1.7867 12.5069 -6.25844
253 1 5.36011 0 8.93351 -8.5547
254 3 3.57341 1.7867 8.93351 -6.32299
305 3 3.57341 0 10.7202 -6.19277
306 1 5.36011 1.7867 10.7202 -8.25399
307 1 5.36011 0 12.5069 -8.3847
308 2 3.57341 1.7867 12.5069 -6.92394
255 3 8.93351 0 8.93351 -6.22001
256 2 7.14681 1.7867 8.93351 -6.92489
258 1 10.7202 1.7867 8.93351 -8.20554
309 3 7.14681 0 10.7202 -6.26484
310 1 8.93351 1.7867 10.7202 -8.54095
311 2 8.93351 0 12.5069 -6.9392
312 2 7.14681 1.7867 12.5069 -6.99265
313 3 10.7202 0 10.7202 -6.3072
316 2 10.7202 1.7867 12.5069 -6.9113
257 1 12.5069 0 8.93351 -8.31592
314 2 12.5069 1.7867 10.7202 -6.88619
315 3 12.5069 0 12.5069 -6.43396
259 3 16.0803 0 8.93351 -6.43579
260 3 14.2936 1.7867 8.93351 -6.41691
317 2 14.2936 0 10.7202 -6.94377
318 1 16.0803 1.7867 10.7202 -8.4403
319 2 16.0803 0 12.5069 -7.01616
320 3 14.2936 1.7867 12.5069 -6.40662
261 3 1.7867 3.57341 8.93351 -6.44951
262 2 0 5.36011 8.93351 -6.99579
321 3 0 3.57341 10.7202 -6.45213
322 2 1.7867 5.36011 10.7202 -6.98971
323 3 1.7867 3.57341 12.5069 -6.4041
324 3 0 5.36011 12.5069 -6.43736
263 1 5.36011 3.57341 8.93351 -8.33248
264 2 3.57341 5.36011 8.93351 -6.99087
325 1 3.57341 3.57341 10.7202 -8.29703
326 3 5.36011 5.36011 10.7202 -6.2624
327 1 5.36011 3.57341 12.5069 -8.37028
328 2 3.57341 5.36011 12.5069 -6.95005
265 2 8.93351 3.57341 8.93351 -7.0127
266 3 7.14681 5.36011 8.93351 -6.34768
268 2 10.7202 5.36011 8.93351 -7.02424
329 3 7.14681 3.57341 10.7202 -6.32859
330 1 8.93351 5.36011 10.7202 -8.29707
331 3 8.93351 3.57341 12.5069 -6.34407
332 3 7.14681 5.36011 12.5069 -6.18622
333 1 10.7202 3.57341 10.7202 -8.2722
336 2 10.7202 5.36011 12.5069 -6.89962
267 3 12.5069 3.57341 8.93351 -6.29815
334 1 12.5069 5.36011 10.7202 -8.37476
335 3 12.5069 3.57341 12.5069 -6.30309
269 2 16.0803 3.57341 8.93351 -6.90135
270 1 14.2936 5.36011 8.93351 -8.3918
337 1 14.2936 3.57341 10.7202 -8.44852
338 2 16.0803 5.36011 10.7202 -6.96042
339 3 16.0803 3.57341 12.5069 -6.42717
340 3 14.2936 5.36011 12.5069 -6.43079
271 2 1.7867 7.14681 8.93351 -7.07602
272 3 0 8.93351 8.93351 -6.45801
281 2 1.7867 10.7202 8.93351 -6.98755
341 1 0 7.14681 10.7202 -8.39623
342 2 1.7867 8.93351 10.7202 -7.02503
343 1 1.7867 7.14681 12.5069 -8.30625
344 1 0 8.93351 12.5069 -8.36802
361 1 0 10.7202 10.7202 -8.40428
363 3 1.7867 10.7202 12.5069 -6.22481
273 3 5.36011 7.14681 8.93351 -6.44575
274 2 3.57341 8.93351 8.93351 -6.9616
283 1 5.36011 10.7202 8.93351 -8.35203
345 1 3.57341 7.14681 10.7202 -8.40794
346 3 5.36011 8.93351 10.7202 -6.22138
347 1 5.36011 7.14681 12.5069 -8.31957
348 1 3.57341 8.93351 12.5069 -8.22561
365 1 3.57341 10.7202 10.7202 -8.15387
367 3 5.36011 10.7202 12.5069 -6.09919
275 2 8.93351 7.14681 8.93351 -7.0256
276 3 7.14681 8.93351 8.93351 -6.35619
278 2 10.7202 8.93351 8.93351 -7.10566
285 1 8.93351 10.7202 8.93351 -8.38372
349 1 7.14681 7.14681 10.7202 -8.40426
350 1 8.93351 8.93351 10.7202 -8.27584
351 1 8.93351 7.14681 12.5069 -8.29618
352 3 7.14681 8.93351 12.5069 -6.21509
353 1 10.7202 7.14681 10.7202 -8.08955
356 1 10.7202 8.93351 12.5069 -8.23027
369 3 7.14681 10.7202 10.7202 -6.20843
371 3 8.93351 10.7202 12.5069 -6.27768
373 2 10.7202 10.7202 10.7202 -6.98301
277 2 12.5069 7.14681 8.93351 -7.03523
287 2 12.5069 10.7202 8.93351 -7.02852
354 1 12.5069 8.93351 10.7202 -8.3646
355 3 12.5069 7.14681 12.5069 -6.24542
375 2 12.5069 10.7202 12.5069 -7.05042
279 1 16.0803 7.14681 8.93351 -8.41648
280 3 14.2936 8.93351 8.93351 -6.4023
289 2 16.0803 10.7202 8.93351 -7.00594
357 3 14.2936 7.14681 10.7202 -6.46353
358 2 16.0803 8.93351 10.7202 -6.94432
359 2 16.0803 7.14681 12.5069 -7.01311
360 2 14.2936 8.93351 12.5069 -6.99139
377 1 14.2936 10.7202 10.7202 -8.33394
379 3 16.0803 10.7202 12.5069 -6.38234
282 3 0 12.5069 8.93351 -6.27282
362 1 1.7867 12.5069 10.7202 -8.2248
364 3 0 12.5069 12.5069 -6.33458
284 2 3.57341 12.5069 8.93351 -7.04735
366 1 5.36011 12.5069 10.7202 -8.06256
368 1 3.57341 12.5069 12.5069 -8.21445
286 1 7.14681 12.5069 8.93351 -8.16891
288 3 10.7202 12.5069 8.93351 -6.39704
370 1 8.93351 12.5069 10.7202 -8.34656
372 1 7.14681 12.5069 12.5069 -8.28977
376 1 10.7202 12.5069 12.5069 -8.29116
374 1 12.5069 12.5069 10.7202 -8.33808
290 2 14.2936 12.5069 8.93351 -7.01381
378 1 16.0803 12.5069 10.7202 -8.34708
380 3 14.2936 12.5069 12.5069 -6.29059
291 2 1.7867 14.2936 8.93351 -7.01571
292 2 0 16.0803 8.93351 -7.04104
381 1 0 14.2936 10.7202 -8.32952
382 1 1.7867 16.0803 10.7202 -8.22457
383 2 1.7867 14.2936 12.5069 -6.9924
384 2 0 16.0803 12.5069 -7.01602
293 2 5.36011 14.2936 8.93351 -6.96542
294 2 3.57341 16.0803 8.93351 -7.08638
385 1 3.57341 14.2936 10.7202 -8.25412
386 3 5.36011 16.0803 10.7202 -6.51966
387 3 5.36011 14.2936 12.5069 -6.30297
388 2 3.57341 16.0803 12.5069 -6.98616
295 3 8.93351 14.2936 8.93351 -6.35764
296 3 7.14681 16.0803 8.93351 -6.29645
298 3 10.7202 16.0803 8.93351 -6.30429
389 2 7.14681 14.2936 10.7202 -6.97054
390 3 8.93351 16.0803 10.7202 -6.49173
391 2 8.93351 14.2936 12.5069 -7.06049
392 2 7.14681 16.0803 12.5069 -6.98914
393 3 10.7202 14.2936 10.7202 -6.32855
396 3 10.7202 16.0803 12.5069 -6.41611
297 1 12.5069 14.2936 8.93351 -8.59867
394 1 12.5069 16.0803 10.7202 -8.59343
395 3 12.5069 14.2936 12.5069 -6.29741
299 2 16.0803 14.2936 8.93351 -6.95082
300 3 14.2936 16.0803 8.93351 -6.27312
397 2 14.2936 14.2936 10.7202 -6.92327
398 1 16.0803 16.0803 10.7202 -8.31487
399 1 16.0803 14.2936 12.5069 -8.31521
400 2 14.2936 16.0803 12.5069 -6.91066
401 3 0 0 14.2936 -6.28619
402 1 1.7867 1.7867 14.2936 -8.40067
403 1 1.7867 0 16.0803 -8.15289
404 2 0 1.7867 16.0803 -6.93143
405 3 3.57341 0 14.2936 -6.23414
406 2 5.36011 1.7867 14.2936 -7.00472
407 3 5.36011 0 16.0803 -6.33675
408 1 3.57341 1.7867 16.0803 -8.24456
409 2 7.14681 0 14.2936 -6.98861
410 3 8.93351 1.7867 14.2936 -6.42435
411 2 8.93351 0 16.0803 -6.9729
412 2 7.14681 1.7867 16.0803 -6.97096
413 1 10.7202 0 14.2936 -8.65583
416 2 10.7202 1.7867 16.0803 -6.90747
414 3 12.5069 1.7867 14.2936 -6.29257
415 1 12.5069 0 16.0803 -8.37521
417 1 14.2936 0 14.2936 -8.58198
418 3 16.0803 1.7867 14.2936 -6.31879
419 3 16.0803 0 16.0803 -6.28298
420 1 14.2936 1.7867 16.0803 -8.40277
421 1 0 3.57341 14.2936 -8.68041
422 3 1.7867 5.36011 14.2936 -6.45198
423 2 1.7867 3.57341 16.0803 -7.01607
424 2 0 5.36011 16.0803 -6.9784
425 2 3.57341 3.57341 14.2936 -6.99588
426 3 5.36011 5.36011 14.2936 -6.27641
427 1 5.36011 3.57341 16.0803 -8.31747
428 1 3.57341 5.36011 16.0803 -8.2618
429 1 7.14681 3.57341 14.2936 -8.41668
430 3 8.93351 5.36011 14.2936 -6.35375
431 1 8.93351 3.57341 16.0803 -8.35971
432 2 7.14681 5.36011 16.0803 -6.9608
433 1 10.7202 3.57341 14.2936 -8.44683
436 3 10.7202 5.36011 16.0803 -6.33917
434 1 12.5069 5.36011 14.2936 -8.61438
435 1 12.5069 3.57341 16.0803 -8.26815
437 3 14.2936 3.57341 14.2936 -6.44518
438 3 16.0803 5.36011 14.2936 -6.48233
439 2 16.0803 3.57341 16.0803 -6.84955
440 3 14.2936 5.36011 16.0803 -6.31324
441 3 0 7.14681 14.2936 -6.46971
442 2 1.7867 8.93351 14.2936 -6.96028
443 2 1.7867 7.14681 16.0803 -6.98105
444 3 0 8.93351 16.0803 -6.48896
461 2 0 10.7202 14.2936 -6.94527
463 2 1.7867 10.7202 16.0803 -6.98058
445 2 3.57341 7.14681 14.2936 -6.99884
446 1 5.36011 8.93351 14.2936 -8.08216
447 1 5.36011 7.14681 16.0803 -8.1984
448 1 3.57341 8.93351 16.0803 -8.415
465 3 3.57341 10.7202 14.2936 -6.24083
467 2 5.36011 10.7202 16.0803 -7.02313
449 2 7.14681 7.14681 14.2936 -6.92496
450 2 8.93351 8.93351 14.2936 -6.96786
451 3 8.93351 7.14681 16.0803 -6.58305
452 1 7.14681 8.93351 16.0803 -8.3534
453 3 10.7202 7.14681 14.2936 -6.43424
456 2 10.7202 8.93351 16.0803 -7.02192
469 1 7.14681 10.7202 14.2936 -8.27514
471 2 8.93351 10.7202 16.0803 -7.10595
473 2 10.7202 10.7202 14.2936 -7.07094
454 1 12.5069 8.93351 14.2936 -8.35807
455 2 12.5069 7.14681 16.0803 -6.92995
475 2 12.5069 10.7202 16.0803 -7.12254
457 3 14.2936 7.14681 14.2936 -6.45171
458 2 16.0803 8.93351 14.2936 -7.02674
459 1 16.0803 7.14681 16.0803 -8.26186
460 1 14.2936 8.93351 16.0803 -8.12632
477 1 14.2936 10.7202 14.2936 -8.22245
479 2 16.0803 10.7202 16.0803 -7.01657
462 1 1.7867 12.5069 14.2936 -8.62975
464 3 0 12.5069 16.0803 -6.54873
466 1 5.36011 12.5069 14.2936 -8.2515
468 2 3.57341 12.5069 16.0803 -6.96693
470 2 8.93351 12.5069 14.2936 -7.05099
472 2 7.14681 12.5069 16.0803 -7.02024
476 2 10.7202 12.5069 16.0803 -7.03945
474 1 12.5069 12.5069 14.2936 -8.35518
478 2 16.0803 12.5069 14.2936 -6.96194
480 1 14.2936 12.5069 16.0803 -8.07488
481 3 0 14.2936 14.2936 -6.56066
482 1 1.7867 16.0803 14.2936 -8.61974
483 2 1.7867 14.2936 16.0803 -6.93617
484 3 0 16.0803 16.0803 -6.51707
485 3 3.57341 14.2936 14.2936 -6.25098
486 1 5.36011 16.0803 14.2936 -8.44611
487 1 5.36011 14.2936 16.0803 -8.22515
488 1 3.57341 16.0803 16.0803 -8.44066
489 2 7.14681 14.2936 14.2936 -7.07262
490 2 8.93351 16.0803 14.2936 -7.0085
491 1 8.93351 14.2936 16.0803 -8.35973
492 1 7.14681 16.0803 16.0803 -8.44642
493 2 10.7202 14.2936 14.2936 -7.05079
496 2 10.7202 16.0803 16.0803 -6.94559
494 1 12.5069 16.0803 14.2936 -8.69102
495 2 12.5069 14.2936 16.0803 -6.89514
497 3 14.2936 14.2936 14.2936 -6.36266
498 2 16.0803 16.0803 14.2936 -6.99311
499 1 16.0803 14.2936 16.0803 -8.3701
500 3 14.2936 16.0803 16.0803 -6.46685
501 1 0 0 17.867 -8.33316
502 1 1.7867 1.7867 17.867 -8.06217
503 2 1.7867 0 19.6537 -7.02977
504 2 0 1.7867 19.6537 -7.01585
601 2 0 0 21.4404 -7.03639
602 2 1.7867 1.7867 21.4404 -6.98231
505 1 3.57341 0 17.867 -8.23262
506 3 5.36011 1.7867 17.867 -6.31613
507 2 5.36011 0 19.6537 -7.0356
508 1 3.57341 1.7867 19.6537 -8.32756
605 3 3.57341 0 21.4404 -6.43452
606 1 5.36011 1.7867 21.4404 -8.38662
509 1 7.14681 0 17.867 -8.35983
510 2 8.93351 1.7867 17.867 -7.02224
511 3 8.93351 0 19.6537 -6.46034
512 1 7.14681 1.7867 19.6537 -8.48936
513 1 10.7202 0 17.867 -8.2286
516 1 10.7202 1.7867 19.6537 -8.25345
609 2 7.14681 0 21.4404 -7.02991
610 3 8.93351 1.7867 21.4404 -6.37125
613 2 10.7202 0 21.4404 -7.03514
514 3 12.5069 1.7867 17.867 -6.10925
515 1 12.5069 0 19.6537 -8.32427
614 3 12.5069 1.7867 21.4404 -6.27075
517 3 14.2936 0 17.867 -6.25252
518 3 16.0803 1.7867 17.867 -6.34287
519 1 16.0803 0 19.6537 -8.42775
520 2 14.2936 1.7867 19.6537 -6.83203
617 2 14.2936 0 21.4404 -7.03776
618 2 16.0803 1.7867 21.4404 -7.00582
521 1 0 3.57341 17.867 -8.39441
522 1 1.7867 5.36011 17.867 -8.1073
523 3 1.7867 3.57341 19.6537 -6.24736
524 3 0 5.36011 19.6537 -6.18662
621 1 0 3.57341 21.4404 -8.4845
622 1 1.7867 5.36011 21.4404 -8.34891
525 2 3.57341 3.57341 17.867 -6.99444
526 2 5.36011 5.36011 17.867 -7.0513
527 2 5.36011 3.57341 19.6537 -6.98655
528 1 3.57341 5.36011 19.6537 -8.12026
625 2 3.57341 3.57341 21.4404 -6.95627
626 1 5.36011 5.36011 21.4404 -8.46424
529 3 7.14681 3.57341 17.867 -6.4639
530 2 8.93351 5.36011 17.867 -7.05271
531 2 8.93351 3.57341 19.6537 -6.95539
532 1 7.14681 5.36011 19.6537 -8.55273
533 1 10.7202 3.57341 17.867 -8.21904
536 2 10.7202 5.36011 19.6537 -6.98409
629 3 7.14681 3.57341 21.4404 -6.36625
630 2 8.93351 5.36011 21.4404 -6.98209
633 1 10.7202 3.57341 21.4404 -8.28929
534 2 12.5069 5.36011 17.867 -6.89266
535 1 12.5069 3.57341 19.6537 -8.22663
634 1 12.5069 5.36011 21.4404 -8.42865
537 1 14.2936 3.57341 17.867 -8.3328
538 3 16.0803 5.36011 17.867 -6.21458
539 1 16.0803 3.57341 19.6537 -8.4627
540 3 14.2936 5.36011 19.6537 -6.25677
637 3 14.2936 3.57341 21.4404 -6.31385
638 3 16.0803 5.36011 21.4404 -6.21924
541 1 0 7.14681 17.867 -8.35665
542 3 1.7867 8.93351 17.867 -6.46042
543 2 1.7867 7.14681 19.6537 -7.0004
544 3 0 8.93351 19.6537 -6.31878
561 3 0 10.7202 17.867 -6.46687
563 1 1.7867 10.7202 19.6537 -8.70723
641 1 0 7.14681 21.4404 -8.5473
642 2 1.7867 8.93351 21.4404 -6.96105
661 2 0 10.7202 21.4404 -6.97232
545 1 3.57341 7.14681 17.867 -8.20065
546 3 5.36011 8.93351 17.867 -6.43412
547 2 5.36011 7.14681 19.6537 -7.03945
548 2 3.57341 8.93351 19.6537 -6.98798
565 3 3.57341 10.7202 17.867 -6.56926
567 2 5.36011 10.7202 19.6537 -7.03441
645 1 3.57341 7.14681 21.4404 -8.31653
646 1 5.36011 8.93351 21.4404 -8.49222
665 2 3.57341 10.7202 21.4404 -6.91875
549 2 7.14681 7.14681 17.867 -7.00741
550 2 8.93351 8.93351 17.867 -6.99987
551 3 8.93351 7.14681 19.6537 -6.55142
552 1 7.14681 8.93351 19.6537 -8.52232
553 1 10.7202 7.14681 17.867 -8.6882
556 3 10.7202 8.93351 19.6537 -6.49959
569 2 7.14681 10.7202 17.867 -7.02923
571 3 8.93351 10.7202 19.6537 -6.37208
573 1 10.7202 10.7202 17.867 -8.39546
649 3 7.14681 7.14681 21.4404 -6.48821
650 2 8.93351 8.93351 21.4404 -6.95261
653 3 10.7202 7.14681 21.4404 -6.55786
669 2 7.14681 10.7202 21.4404 -6.88271
673 2 10.7202 10.7202 21.4404 -6.91671
554 3 12.5069 8.93351 17.867 -6.35782
555 3 12.5069 7.14681 19.6537 -6.41592
575 2 12.5069 10.7202 19.6537 -6.95455
654 1 12.5069 8.93351 21.4404 -8.67193
557 1 14.2936 7.14681 17.867 -8.4314
558 2 16.0803 8.93351 17.867 -7.07457
559 1 16.0803 7.14681 19.6537 -8.3548
560 2 14.2936 8.93351 19.6537 -6.95349
577 1 14.2936 10.7202 17.867 -8.14537
579 1 16.0803 10.7202 19.6537 -8.35578
657 2 14.2936 7.14681 21.4404 -6.86355
658 3 16.0803 8.93351 21.4404 -6.34229
677 3 14.2936 10.7202 21.4404 -6.37124
562 3 1.7867 12.5069 17.867 -6.65618
564 3 0 12.5069 19.6537 -6.39029
662 1 1.7867 12.5069 21.4404 -8.22204
566 3 5.36011 12.5069 17.867 -6.67136
568 3 3.57341 12.5069 19.6537 -6.58214
666 3 5.36011 12.5069 21.4404 -6.53848
570 1 8.93351 12.5069 17.867 -8.33604
572 3 7.14681 12.5069 19.6537 -6.50073
576 1 10.7202 12.5069 19.6537 -8.14095
670 1 8.93351 12.5069 21.4404 -8.26634
574 1 12.5069 12.5069 17.867 -8.32073
674 1 12.5069 12.5069 21.4404 -8.28153
578 2 16.0803 12.5069 17.867 -7.01501
580 3 14.2936 12.5069 19.6537 -6.25597
678 2 16.0803 12.5069 21.4404 -6.97969
581 3 0 14.2936 17.867 -6.54839
582 3 1.7867 16.0803 17.867 -6.658
583 2 1.7867 14.2936 19.6537 -7.00984
584 3 0 16.0803 19.6537 -6.55909
681 2 0 14.2936 21.4404 -6.98033
682 3 1.7867 16.0803 21.4404 -6.54747
585 2 3.57341 14.2936 17.867 -7.04935
586 2 5.36011 16.0803 17.867 -7.04103
587 3 5.36011 14.2936 19.6537 -6.58811
588 2 3.57341 16.0803 19.6537 -7.05736
685 1 3.57341 14.2936 21.4404 -8.69064
686 2 5.36011 16.0803 21.4404 -6.96187
589 2 7.14681 14.2936 17.867 -7.02259
590 3 8.93351 16.0803 17.867 -6.40908
591 3 8.93351 14.2936 19.6537 -6.22983
592 2 7.14681 16.0803 19.6537 -6.98443
593 3 10.7202 14.2936 17.867 -6.2666
596 1 10.7202 16.0803 19.6537 -8.2901
689 1 7.14681 14.2936 21.4404 -8.50988
690 1 8.93351 16.0803 21.4404 -8.18514
693 1 10.7202 14.2936 21.4404 -7.99301
594 1 12.5069 16.0803 17.867 -8.61476
595 3 12.5069 14.2936 19.6537 -6.0905
694 1 12.5069 16.0803 21.4404 -8.15782
597 3 14.2936 14.2936 17.867 -6.35368
598 2 16.0803 16.0803 17.867 -7.0255
599 1 16.0803 14.2936 19.6537 -8.34813
600 3 14.2936 16.0803 19.6537 -6.35935
697 1 14.2936 14.2936 21.4404 -8.22461
698 2 16.0803 16.0803 21.4404 -6.9724
603 3 1.7867 0 23.2271 -6.51673
604 2 0 1.7867 23.2271 -6.96974
701 1 0 0 25.0138 -8.66629
702 3 1.7867 1.7867 25.0138 -6.56986
607 3 5.36011 0 23.2271 -6.39402
608 3 3.57341 1.7867 23.2271 -6.56222
703 1 3.57341 0 25.0138 -8.68771
704 2 5.36011 1.7867 25.0138 -6.9764
611 2 8.93351 0 23.2271 -7.08102
612 1 7.14681 1.7867 23.2271 -8.17806
616 3 10.7202 1.7867 23.2271 -6.49261
705 1 7.14681 0 25.0138 -8.4543
706 2 8.93351 1.7867 25.0138 -7.01182
707 3 10.7202 0 25.0138 -6.52082
615 1 12.5069 0 23.2271 -8.44256
708 2 12.5069 1.7867 25.0138 -6.91718
619 3 16.0803 0 23.2271 -6.60921
620 1 14.2936 1.7867 23.2271 -8.54537
709 1 14.2936 0 25.0138 -8.28296
710 2 16.0803 1.7867 25.0138 -6.94382
623 3 1.7867 3.57341 23.2271 -6.54607
624 3 0 5.36011 23.2271 -6.38816
711 3 0 3.57341 25.0138 -6.62248
712 3 1.7867 5.36011 25.0138 -6.55977
627 2 5.36011 3.57341 23.2271 -6.9977
628 3 3.57341 5.36011 23.2271 -6.45468
713 2 3.57341 3.57341 25.0138 -7.04948
714 2 5.36011 5.36011 25.0138 -6.99857
631 1 8.93351 3.57341 23.2271 -8.45223
632 3 7.14681 5.36011 23.2271 -6.47346
636 2 10.7202 5.36011 23.2271 -6.93786
715 1 7.14681 3.57341 25.0138 -8.44161
716 3 8.93351 5.36011 25.0138 -6.43814
717 2 10.7202 3.57341 25.0138 -6.92213
635 3 12.5069 3.57341 23.2271 -6.40919
718 3 12.5069 5.36011 25.0138 -6.36414
639 2 16.0803 3.57341 23.2271 -6.89115
640 1 14.2936 5.36011 23.2271 -8.50554
719 3 14.2936 3.57341 25.0138 -6.28883
720 1 16.0803 5.36011 25.0138 -8.29423
643 2 1.7867 7.14681 23.2271 -6.92206
644 2 0 8.93351 23.2271 -7.01097
663 1 1.7867 10.7202 23.2271 -8.38751
721 1 0 7.14681 25.0138 -8.75766
722 2 1.7867 8.93351 25.0138 -6.95473
731 2 0 10.7202 25.0138 -7.00956
647 3 5.36011 7.14681 23.2271 -6.31051
648 3 3.57341 8.93351 23.2271 -6.43258
667 3 5.36011 10.7202 23.2271 -6.47058
723 1 3.57341 7.14681 25.0138 -8.65078
724 3 5.36011 8.93351 25.0138 -6.3896
733 3 3.57341 10.7202 25.0138 -6.4633
651 2 8.93351 7.14681 23.2271 -6.95683
652 3 7.14681 8.93351 23.2271 -6.40675
656 3 10.7202 8.93351 23.2271 -6.42241
671 1 8.93351 10.7202 23.2271 -8.27981
725 1 7.14681 7.14681 25.0138 -8.79531
726 3 8.93351 8.93351 25.0138 -6.24804
727 1 10.7202 7.14681 25.0138 -8.82773
735 1 7.14681 10.7202 25.0138 -8.68442
737 1 10.7202 10.7202 25.0138 -8.27096
655 3 12.5069 7.14681 23.2271 -6.33717
675 3 12.5069 10.7202 23.2271 -6.26487
728 2 12.5069 8.93351 25.0138 -6.89196
659 3 16.0803 7.14681 23.2271 -6.16406
660 1 14.2936 8.93351 23.2271 -8.59725
679 2 16.0803 10.7202 23.2271 -6.91975
729 1 14.2936 7.14681 25.0138 -8.41602
730 3 16.0803 8.93351 25.0138 -6.24913
739 3 14.2936 10.7202 25.0138 -6.3627
664 1 0 12.5069 23.2271 -8.04452
732 1 1.7867 12.5069 25.0138 -8.26175
668 3 3.57341 12.5069 23.2271 -6.47988
734 3 5.36011 12.5069 25.0138 -6.41994
672 3 7.14681 12.5069 23.2271 -6.31136
676 1 10.7202 12.5069 23.2271 -8.13141
736 2 8.93351 12.5069 25.0138 -6.91855
738 2 12.5069 12.5069 25.0138 -6.94473
680 1 14.2936 12.5069 23.2271 -8.37183
740 3 16.0803 12.5069 25.0138 -6.28357
683 2 1.7867 14.2936 23.2271 -6.99687
684 1 0 16.0803 23.2271 -8.61675
741 2 0 14.2936 25.0138 -6.95852
742 3 1.7867 16.0803 25.0138 -6.65149
687 2 5.36011 14.2936 23.2271 -6.91172
688 3 3.57341 16.0803 23.2271 -6.58648
743 2 3.57341 14.2936 25.0138 -6.95624
744 3 5.36011 16.0803 25.0138 -6.59956
691 3 8.93351 14.2936 23.2271 -6.13448
692 1 7.14681 16.0803 23.2271 -8.26876
696 1 10.7202 16.0803 23.2271 -8.1623
745 1 7.14681 14.2936 25.0138 -8.65652
746 1 8.93351 16.0803 25.0138 -8.26752
747 3 10.7202 14.2936 25.0138 -6.42215
695 1 12.5069 14.2936 23.2271 -7.97348
748 2 12.5069 16.0803 25.0138 -7.01739
699 3 16.0803 14.2936 23.2271 -6.26628
700 3 14.2936 16.0803 23.2271 -6.2483
749 1 14.2936 14.2936 25.0138 -8.37642
750 1 16.0803 16.0803 25.0138 -8.44475
751 2 1.7867 0 26.8005 -6.86493
752 3 0 1.7867 26.8005 -6.51296
801 3 0 0 28.5872 -6.48803
802 1 1.7867 1.7867 28.5872 -8.45484
803 2 1.7867 0 30.374 -6.98642
804 3 0 1.7867 30.374 -6.43559
753 1 5.36011 0 26.8005 -8.26426
754 2 3.57341 1.7867 26.8005 -7.06016
805 1 3.57341 0 28.5872 -8.28476
806 1 5.36011 1.7867 28.5872 -8.30593
807 1 5.36011 0 30.374 -8.3116
808 2 3.57341 1.7867 30.374 -7.06061
755 3 8.93351 0 26.8005 -6.46886
756 3 7.14681 1.7867 26.8005 -6.52039
758 1 10.7202 1.7867 26.8005 -8.44196
809 2 7.14681 0 28.5872 -7.0102
810 2 8.93351 1.7867 28.5872 -7.02687
811 2 8.93351 0 30.374 -7.02702
812 3 7.14681 1.7867 30.374 -6.37815
813 3 10.7202 0 28.5872 -6.35269
816 3 10.7202 1.7867 30.374 -6.50102
757 3 12.5069 0 26.8005 -6.25843
814 1 12.5069 1.7867 28.5872 -8.39653
815 2 12.5069 0 30.374 -6.86908
759 2 16.0803 0 26.8005 -7.03005
760 1 14.2936 1.7867 26.8005 -8.22084
817 1 14.2936 0 28.5872 -8.0147
818 1 16.0803 1.7867 28.5872 -8.51888
819 1 16.0803 0 30.374 -8.369
820 3 14.2936 1.7867 30.374 -6.21611
761 3 1.7867 3.57341 26.8005 -6.59181
762 2 0 5.36011 26.8005 -6.9811
821 3 0 3.57341 28.5872 -6.4394
822 2 1.7867 5.36011 28.5872 -6.99567
823 1 1.7867 3.57341 30.374 -8.2523
824 3 0 5.36011 30.374 -6.35829
763 2 5.36011 3.57341 26.8005 -7.0782
764 1 3.57341 5.36011 26.8005 -8.46854
825 2 3.57341 3.57341 28.5872 -7.0755
826 2 5.36011 5.36011 28.5872 -7.06889
827 1 5.36011 3.57341 30.374 -8.0869
828 1 3.57341 5.36011 30.374 -8.01437
765 2 8.93351 3.57341 26.8005 -7.01867
766 2 7.14681 5.36011 26.8005 -6.99974
768 3 10.7202 5.36011 26.8005 -6.46114
829 3 7.14681 3.57341 28.5872 -6.53103
830 3 8.93351 5.36011 28.5872 -6.44917
831 2 8.93351 3.57341 30.374 -7.00438
832 1 7.14681 5.36011 30.374 -8.20145
833 2 10.7202 3.57341 28.5872 -6.98585
836 1 10.7202 5.36011 30.374 -8.45602
767 1 12.5069 3.57341 26.8005 -8.49746
834 3 12.5069 5.36011 28.5872 -6.29533
835 2 12.5069 3.57341 30.374 -6.92852
769 3 16.0803 3.57341 26.8005 -6.22965
770 3 14.2936 5.36011 26.8005 -6.26636
837 3 14.2936 3.57341 28.5872 -6.20057
838 1 16.0803 5.36011 28.5872 -8.2624
839 3 16.0803 3.57341 30.374 -6.22732