ITEM: TIMESTEP
0
ITEM: NUMBER OF ATOMS
4000
ITEM: BOX BOUNDS pp pp pp
0.0000000000000000e+00 3.6030929999999998e+01
0.0000000000000000e+00 3.6030929999999998e+01
0.0000000000000000e+00 3.6030929999999998e+01
ITEM: ATOMS id type x y z c_peratom
1 1 0 0 0 -8.21887
2 3 1.80155 1.80155 0 -6.26528
3 3 1.80155 0 1.80155 -6.30998
4 1 0 1.80155 1.80155 -7.9619
101 2 0 0 3.60309 -7.07128
102 1 1.80155 1.80155 3.60309 -8.17248
5 1 3.60309 0 0 -8.3476
6 3 5.40464 1.80155 0 -6.3305
7 3 5.40464 0 1.80155 -6.41391
8 3 3.60309 1.80155 1.80155 -6.27961
105 2 3.60309 0 3.60309 -6.94464
106 1 5.40464 1.80155 3.60309 -8.29184
9 1 7.20619 0 0 -8.42629
10 3 9.00773 1.80155 0 -6.40717
11 2 9.00773 0 1.80155 -7.01299
12 3 7.20619 1.80155 1.80155 -6.45789
109 3 7.20619 0 3.60309 -6.58992
110 2 9.00773 1.80155 3.60309 -7.14132
13 2 10.8093 0 0 -6.99688
14 2 12.6108 1.80155 0 -6.97924
15 3 12.6108 0 1.80155 -6.55838
16 3 10.8093 1.80155 1.80155 -6.60394
113 2 10.8093 0 3.60309 -7.10029
114 1 12.6108 1.80155 3.60309 -8.44102
17 3 14.4124 0 0 -6.49449
18 1 16.2139 1.80155 0 -8.29922
19 2 16.2139 0 1.80155 -7.03518
20 2 14.4124 1.80155 1.80155 -6.95475
117 2 14.4124 0 3.60309 -7.07486
118 1 16.2139 1.80155 3.60309 -8.04239
21 1 0 3.60309 0 -8.231
22 3 1.80155 5.40464 0 -6.27585
23 1 1.80155 3.60309 1.80155 -8.10445
24 1 0 5.40464 1.80155 -7.99296
121 1 0 3.60309 3.60309 -8.01665
122 2 1.80155 5.40464 3.60309 -7.02946
25 2 3.60309 3.60309 0 -6.85814
26 1 5.40464 5.40464 0 -8.16136
27 1 5.40464 3.60309 1.80155 -8.12736
28 2 3.60309 5.40464 1.80155 -7.05947
125 1 3.60309 3.60309 3.60309 -8.0397
126 1 5.40464 5.40464 3.60309 -8.17138
29 1 7.20619 3.60309 0 -8.2242
30 2 9.00773 5.40464 0 -7.01004
31 3 9.00773 3.60309 1.80155 -6.51704
32 2 7.20619 5.40464 1.80155 -7.03172
129 2 7.20619 3.60309 3.60309 -7.05083
130 3 9.00773 5.40464 3.60309 -6.54015
33 1 10.8093 3.60309 0 -8.28353
34 3 12.6108 5.40464 0 -6.28119
35 3 12.6108 3.60309 1.80155 -6.34759
36 1 10.8093 5.40464 1.80155 -8.27455
133 2 10.8093 3.60309 3.60309 -6.99971
134 3 12.6108 5.40464 3.60309 -6.3248
37 1 14.4124 3.60309 0 -8.2758
38 3 16.2139 5.40464 0 -6.3291
39 3 16.2139 3.60309 1.80155 -6.25137
40 1 14.4124 5.40464 1.80155 -8.14471
137 1 14.4124 3.60309 3.60309 -8.14697
138 2 16.2139 5.40464 3.60309 -7.09872
41 1 0 7.20619 0 -8.19241
42 3 1.80155 9.00773 0 -6.23762
43 3 1.80155 7.20619 1.80155 -6.28975
44 3 0 9.00773 1.80155 -6.36199
141 1 0 7.20619 3.60309 -8.16705
142 1 1.80155 9.00773 3.60309 -8.3842
45 3 3.60309 7.20619 0 -6.352
46 3 5.40464 9.00773 0 -6.22521
47 2 5.40464 7.20619 1.80155 -6.91177
48 1 3.60309 9.00773 1.80155 -8.40792
145 1 3.60309 7.20619 3.60309 -8.19603
146 3 5.40464 9.00773 3.60309 -6.37192
49 1 7.20619 7.20619 0 -8.06876
50 1 9.00773 9.00773 0 -8.05577
51 1 9.00773 7.20619 1.80155 -8.22189
52 3 7.20619 9.00773 1.80155 -6.35008
149 3 7.20619 7.20619 3.60309 -6.31264
150 1 9.00773 9.00773 3.60309 -8.49513
53 2 10.8093 7.20619 0 -6.93644
54 2 12.6108 9.00773 0 -7.03287
55 1 12.6108 7.20619 1.80155 -8.19651
56 3 10.8093 9.00773 1.80155 -6.34664
153 3 10.8093 7.20619 3.60309 -6.32592
154 2 12.6108 9.00773 3.60309 -6.97961
57 1 14.4124 7.20619 0 -8.33957
58 3 16.2139 9.00773 0 -6.39887
59 1 16.2139 7.20619 1.80155 -8.10374
60 2 14.4124 9.00773 1.80155 -7.00508
157 1 14.4124 7.20619 3.60309 -8.06085
158 2 16.2139 9.00773 3.60309 -7.02183
61 3 0 10.8093 0 -6.44261
62 2 1.80155 12.6108 0 -7.03258
63 3 1.80155 10.8093 1.80155 -6.39705
64 1 0 12.6108 1.80155 -8.26373
161 3 0 10.8093 3.60309 -6.36484
162 2 1.80155 12.6108 3.60309 -7.03259
65 1 3.60309 10.8093 0 -8.17582
66 1 5.40464 12.6108 0 -8.09829
67 3 5.40464 10.8093 1.80155 -6.32999
68 2 3.60309 12.6108 1.80155 -6.95674
165 3 3.60309 10.8093 3.60309 -6.45558
166 3 5.40464 12.6108 3.60309 -6.43666
69 1 7.20619 10.8093 0 -8.09245
70 3 9.00773 12.6108 0 -6.36412
71 2 9.00773 10.8093 1.80155 -6.92573
72 1 7.20619 12.6108 1.80155 -8.41521
169 3 7.20619 10.8093 3.60309 -6.43924
170 2 9.00773 12.6108 3.60309 -6.99028
73 1 10.8093 10.8093 0 -8.31246
74 3 12.6108 12.6108 0 -6.43424
75 1 12.6108 10.8093 1.80155 -8.40051
76 2 10.8093 12.6108 1.80155 -7.09575
173 3 10.8093 10.8093 3.60309 -6.52552
174 2 12.6108 12.6108 3.60309 -7.03776
77 2 14.4124 10.8093 0 -7.00825
78 2 16.2139 12.6108 0 -7.01093
79 1 16.2139 10.8093 1.80155 -8.23297
80 2 14.4124 12.6108 1.80155 -7.04258
177 3 14.4124 10.8093 3.60309 -6.55074
178 1 16.2139 12.6108 3.60309 -8.22204
81 2 0 14.4124 0 -7.095
82 2 1.80155 16.2139 0 -7.03223
83 2 1.80155 14.4124 1.80155 -7.12999
84 1 0 16.2139 1.80155 -8.2118
181 2 0 14.4124 3.60309 -7.10962
182 2 1.80155 16.2139 3.60309 -7.02525
85 1 3.60309 14.4124 0 -8.09684
86 1 5.40464 16.2139 0 -8.17793
87 2 5.40464 14.4124 1.80155 -7.03372
88 1 3.60309 16.2139 1.80155 -8.1378
185 1 3.60309 14.4124 3.60309 -8.26367
186 2 5.40464 16.2139 3.60309 -6.96182
89 3 7.20619 14.4124 0 -6.28342
90 1 9.00773 16.2139 0 -8.15381
91 2 9.00773 14.4124 1.80155 -7.03054
92 1 7.20619 16.2139 1.80155 -8.20433
189 3 7.20619 14.4124 3.60309 -6.44965
190 2 9.00773 16.2139 3.60309 -6.96932
93 2 10.8093 14.4124 0 -7.00091
94 3 12.6108 16.2139 0 -6.37943
95 2 12.6108 14.4124 1.80155 -7.02707
96 1 10.8093 16.2139 1.80155 -8.28603
193 2 10.8093 14.4124 3.60309 -7.1329
194 2 12.6108 16.2139 3.60309 -7.05959
97 1 14.4124 14.4124 0 -8.36333
98 2 16.2139 16.2139 0 -7.00355
99 3 16.2139 14.4124 1.80155 -6.32803
100 3 14.4124 16.2139 1.80155 -6.40781
197 1 14.4124 14.4124 3.60309 -8.14058
198 1 16.2139 16.2139 3.60309 -8.09747
103 2 1.80155 0 5.40464 -6.97216
104 3 0 1.80155 5.40464 -6.39673
201 2 0 0 7.20619 -7.05372
202 3 1.80155 1.80155 7.20619 -6.56468
107 1 5.40464 0 5.40464 -8.25196
108 3 3.60309 1.80155 5.40464 -6.37072
203 1 3.60309 0 7.20619 -8.28488
204 2 5.40464 1.80155 7.20619 -7.02923
111 2 9.00773 0 5.40464 -7.02757
112 2 7.20619 1.80155 5.40464 -7.10229
205 1 7.20619 0 7.20619 -8.04951
206 3 9.00773 1.80155 7.20619 -6.59528
115 2 12.6108 0 5.40464 -7.01775
116 3 10.8093 1.80155 5.40464 -6.67499
207 3 10.8093 0 7.20619 -6.50654
208 1 12.6108 1.80155 7.20619 -8.29772
119 1 16.2139 0 5.40464 -7.9771
120 2 14.4124 1.80155 5.40464 -7.03151
209 3 14.4124 0 7.20619 -6.38696
210 1 16.2139 1.80155 7.20619 -8.15981
123 1 1.80155 3.60309 5.40464 -8.25729
124 2 0 5.40464 5.40464 -7.04693
211 2 0 3.60309 7.20619 -7.0074
212 2 1.80155 5.40464 7.20619 -7.11151
127 2 5.40464 3.60309 5.40464 -6.95899
128 2 3.60309 5.40464 5.40464 -7.09409
213 3 3.60309 3.60309 7.20619 -6.58505
214 1 5.40464 5.40464 7.20619 -8.32559
131 2 9.00773 3.60309 5.40464 -7.17454
132 3 7.20619 5.40464 5.40464 -6.4776
215 3 7.20619 3.60309 7.20619 -6.60015
216 2 9.00773 5.40464 7.20619 -7.08332
135 3 12.6108 3.60309 5.40464 -6.50255
136 2 10.8093 5.40464 5.40464 -7.07003
217 2 10.8093 3.60309 7.20619 -7.14249
218 2 12.6108 5.40464 7.20619 -7.09965
139 2 16.2139 3.60309 5.40464 -7.08853
140 1 14.4124 5.40464 5.40464 -8.16607
219 1 14.4124 3.60309 7.20619 -8.1334
220 3 16.2139 5.40464 7.20619 -6.48855
143 3 1.80155 7.20619 5.40464 -6.49923
144 2 0 9.00773 5.40464 -7.00254
221 2 0 7.20619 7.20619 -7.09923
222 1 1.80155 9.00773 7.20619 -8.42463
147 1 5.40464 7.20619 5.40464 -8.27077
148 3 3.60309 9.00773 5.40464 -6.2763
223 2 3.60309 7.20619 7.20619 -7.0067
224 1 5.40464 9.00773 7.20619 -8.1569
151 1 9.00773 7.20619 5.40464 -8.56757
152 3 7.20619 9.00773 5.40464 -6.27628
225 3 7.20619 7.20619 7.20619 -6.32911
226 3 9.00773 9.00773 7.20619 -6.41989
155 1 12.6108 7.20619 5.40464 -8.33916
156 3 10.8093 9.00773 5.40464 -6.46104
227 2 10.8093 7.20619 7.20619 -6.99277
228 3 12.6108 9.00773 7.20619 -6.49558
159 2 16.2139 7.20619 5.40464 -7.04733
160 2 14.4124 9.00773 5.40464 -7.0403
229 2 14.4124 7.20619 7.20619 -7.0138
230 1 16.2139 9.00773 7.20619 -8.34205
163 3 1.80155 10.8093 5.40464 -6.41221
164 1 0 12.6108 5.40464 -8.23319
231 2 0 10.8093 7.20619 -7.06197
232 1 1.80155 12.6108 7.20619 -8.31866
167 1 5.40464 10.8093 5.40464 -8.46721
168 2 3.60309 12.6108 5.40464 -7.01941
233 1 3.60309 10.8093 7.20619 -8.19742
234 2 5.40464 12.6108 7.20619 -6.85522
171 3 9.00773 10.8093 5.40464 -6.46448
172 3 7.20619 12.6108 5.40464 -6.4299
235 3 7.20619 10.8093 7.20619 -6.40671
236 3 9.00773 12.6108 7.20619 -6.43068
175 3 12.6108 10.8093 5.40464 -6.58191
176 1 10.8093 12.6108 5.40464 -8.20482
237 1 10.8093 10.8093 7.20619 -8.4625
238 2 12.6108 12.6108 7.20619 -7.05827
179 3 16.2139 10.8093 5.40464 -6.46548
180 3 14.4124 12.6108 5.40464 -6.4432
239 2 14.4124 10.8093 7.20619 -6.9757
240 3 16.2139 12.6108 7.20619 -6.46492
183 2 1.80155 14.4124 5.40464 -7.10724
184 1 0 16.2139 5.40464 -8.1611
241 2 0 14.4124 7.20619 -7.00083
242 1 1.80155 16.2139 7.20619 -8.54738
187 1 5.40464 14.4124 5.40464 -8.39947
188 3 3.60309 16.2139 5.40464 -6.43087
243 2 3.60309 14.4124 7.20619 -6.93544
244 1 5.40464 16.2139 7.20619 -8.39472
191 1 9.00773 14.4124 5.40464 -8.28766
192 3 7.20619 16.2139 5.40464 -6.39813
245 3 7.20619 14.4124 7.20619 -6.38819
246 1 9.00773 16.2139 7.20619 -8.28508
195 1 12.6108 14.4124 5.40464 -7.9973
196 1 10.8093 16.2139 5.40464 -8.23611
247 2 10.8093 14.4124 7.20619 -7.0635
248 2 12.6108 16.2139 7.20619 -7.04691
199 1 16.2139 14.4124 5.40464 -8.13812
200 1 14.4124 16.2139 5.40464 -7.98094
249 1 14.4124 14.4124 7.20619 -8.18791
250 2 16.2139 16.2139 7.20619 -7.00047
251 3 1.80155 0 9.00773 -6.51358
252 2 0 1.80155 9.00773 -7.03694
301 1 0 0 10.8093 -8.3811
302 3 1.80155 1.80155 10.8093 -6.55185
303 1 1.80155 0 12.6108 -8.31947
304 3 0 1.80155 12.6108 -6.37866
253 1 5.40464 0 9.00773 -8.28695
254 3 3.60309 1.80155 9.00773 -6.58475
305 3 3.60309 0 10.8093 -6.46318
306 2 5.40464 1.80155 10.8093 -7.03
307 2 5.40464 0 12.6108 -6.97828
308 3 3.60309 1.80155 12.6108 -6.55881
255 1 9.00773 0 9.00773 -8.2296
256 1 7.20619 1.80155 9.00773 -8.29686
309 3 7.20619 0 10.8093 -6.52106
310 3 9.00773 1.80155 10.8093 -6.44201
311 2 9.00773 0 12.6108 -6.99313
312 3 7.20619 1.80155 12.6108 -6.53952
257 1 12.6108 0 9.00773 -8.18142
258 2 10.8093 1.80155 9.00773 -7.04694
313 1 10.8093 0 10.8093 -8.19221
314 2 12.6108 1.80155 10.8093 -7.10029
315 2 12.6108 0 12.6108 -7.14716
316 2 10.8093 1.80155 12.6108 -7.02427
259 3 16.2139 0 9.00773 -6.41848
260 2 14.4124 1.80155 9.00773 -7.02769
317 3 14.4124 0 10.8093 -6.55727
318 1 16.2139 1.80155 10.8093 -8.25099
319 1 16.2139 0 12.6108 -8.18503
320 2 14.4124 1.80155 12.6108 -7.16002
261 3 1.80155 3.60309 9.00773 -6.71653
262 2 0 5.40464 9.00773 -7.05386
321 1 0 3.60309 10.8093 -8.37656
322 2 1.80155 5.40464 10.8093 -7.10829
323 2 1.80155 3.60309 12.6108 -7.0364
324 2 0 5.40464 12.6108 -7.08863
263 2 5.40464 3.60309 9.00773 -6.99611
264 3 3.60309 5.40464 9.00773 -6.65931
325 2 3.60309 3.60309 10.8093 -7.17345
326 2 5.40464 5.40464 10.8093 -7.05666
327 2 5.40464 3.60309 12.6108 -7.02043
328 2 3.60309 5.40464 12.6108 -7.16331
265 2 9.00773 3.60309 9.00773 -6.98078
266 1 7.20619 5.40464 9.00773 -8.20416
329 3 7.20619 3.60309 10.8093 -6.54585
330 3 9.00773 5.40464 10.8093 -6.40849
331 1 9.00773 3.60309 12.6108 -8.60968
332 3 7.20619 5.40464 12.6108 -6.4874
267 2 12.6108 3.60309 9.00773 -7.04839
268 3 10.8093 5.40464 9.00773 -6.60369
333 1 10.8093 3.60309 10.8093 -8.28611
334 1 12.6108 5.40464 10.8093 -8.21628
335 2 12.6108 3.60309 12.6108 -7.06618
336 3 10.8093 5.40464 12.6108 -6.45653
269 2 16.2139 3.60309 9.00773 -7.09995
270 2 14.4124 5.40464 9.00773 -7.09549
337 3 14.4124 3.60309 10.8093 -6.55983
338 1 16.2139 5.40464 10.8093 -8.3033
339 3 16.2139 3.60309 12.6108 -6.53236
340 3 14.4124 5.40464 12.6108 -6.45044
271 3 1.80155 7.20619 9.00773 -6.66717
272 2 0 9.00773 9.00773 -7.01314
341 3 0 7.20619 10.8093 -6.55727
342 1 1.80155 9.00773 10.8093 -8.51572
343 2 1.80155 7.20619 12.6108 -7.06271
344 3 0 9.00773 12.6108 -6.53387
273 1 5.40464 7.20619 9.00773 -8.05955
274 2 3.60309 9.00773 9.00773 -6.98786
345 2 3.60309 7.20619 10.8093 -7.13062
346 1 5.40464 9.00773 10.8093 -8.20823
347 2 5.40464 7.20619 12.6108 -7.05201
348 2 3.60309 9.00773 12.6108 -7.04219
275 2 9.00773 7.20619 9.00773 -6.98174
276 1 7.20619 9.00773 9.00773 -8.1892
349 1 7.20619 7.20619 10.8093 -8.03249
350 2 9.00773 9.00773 10.8093 -7.01681
351 1 9.00773 7.20619 12.6108 -8.40628
352 1 7.20619 9.00773 12.6108 -7.98678
277 1 12.6108 7.20619 9.00773 -8.26223
278 3 10.8093 9.00773 9.00773 -6.45479
353 2 10.8093 7.20619 10.8093 -6.94891
354 1 12.6108 9.00773 10.8093 -7.96628
355 1 12.6108 7.20619 12.6108 -8.19312
356 3 10.8093 9.00773 12.6108 -6.27709
279 2 16.2139 7.20619 9.00773 -7.00939
280 1 14.4124 9.00773 9.00773 -8.2263
357 2 14.4124 7.20619 10.8093 -7.03507
358 3 16.2139 9.00773 10.8093 -6.48795
359 3 16.2139 7.20619 12.6108 -6.38419
360 1 14.4124 9.00773 12.6108 -8.24211
281 2 1.80155 10.8093 9.00773 -6.99237
282 2 0 12.6108 9.00773 -6.96839
361 3 0 10.8093 10.8093 -6.53098
362 1 1.80155 12.6108 10.8093 -8.34035
363 3 1.80155 10.8093 12.6108 -6.49991
364 2 0 12.6108 12.6108 -6.93173
283 3 5.40464 10.8093 9.00773 -6.34952
284 3 3.60309 12.6108 9.00773 -6.42043
365 3 3.60309 10.8093 10.8093 -6.42286
366 3 5.40464 12.6108 10.8093 -6.4185
367 3 5.40464 10.8093 12.6108 -6.39303
368 1 3.60309 12.6108 12.6108 -8.51444
285 3 9.00773 10.8093 9.00773 -6.29651
286 3 7.20619 12.6108 9.00773 -6.42613
369 1 7.20619 10.8093 10.8093 -8.17902
370 1 9.00773 12.6108 10.8093 -8.1419
371 1 9.00773 10.8093 12.6108 -7.9452
372 3 7.20619 12.6108 12.6108 -6.29441
287 2 12.6108 10.8093 9.00773 -6.98457
288 1 10.8093 12.6108 9.00773 -8.20952
373 1 10.8093 10.8093 10.8093 -8.15633
374 3 12.6108 12.6108 10.8093 -6.44023
375 1 12.6108 10.8093 12.6108 -8.09721
376 3 10.8093 12.6108 12.6108 -6.21676
289 3 16.2139 10.8093 9.00773 -6.44851
290 1 14.4124 12.6108 9.00773 -8.3727
377 2 14.4124 10.8093 10.8093 -7.05026
378 2 16.2139 12.6108 10.8093 -7.06845
379 2 16.2139 10.8093 12.6108 -7.01732
380 2 14.4124 12.6108 12.6108 -7.04367
291 3 1.80155 14.4124 9.00773 -6.41852
292 3 0 16.2139 9.00773 -6.38892
381 1 0 14.4124 10.8093 -8.48822
382 3 1.80155 16.2139 10.8093 -6.45888
383 2 1.80155 14.4124 12.6108 -6.99842
384 2 0 16.2139 12.6108 -7.02651
293 1 5.40464 14.4124 9.00773 -8.52518
294 3 3.60309 16.2139 9.00773 -6.39145
385 3 3.60309 14.4124 10.8093 -6.50306
386 2 5.40464 16.2139 10.8093 -6.95003
387 3 5.40464 14.4124 12.6108 -6.53265
388 2 3.60309 16.2139 12.6108 -7.04238
295 2 9.00773 14.4124 9.00773 -6.97383
296 2 7.20619 16.2139 9.00773 -7.0139
389 3 7.20619 14.4124 10.8093 -6.43109
390 2 9.00773 16.2139 10.8093 -7.05149
391 1 9.00773 14.4124 12.6108 -7.98991
392 1 7.20619 16.2139 12.6108 -8.34407
297 2 12.6108 14.4124 9.00773 -7.09946
298 2 10.8093 16.2139 9.00773 -7.09736
393 2 10.8093 14.4124 10.8093 -7.03765
394 3 12.6108 16.2139 10.8093 -6.4864
395 1 12.6108 14.4124 12.6108 -8.37139
396 1 10.8093 16.2139 12.6108 -8.14045
299 2 16.2139 14.4124 9.00773 -7.01763
300 3 14.4124 16.2139 9.00773 -6.4366
397 2 14.4124 14.4124 10.8093 -7.02264
398 1 16.2139 16.2139 10.8093 -8.27427
399 1 16.2139 14.4124 12.6108 -8.33898
400 3 14.4124 16.2139 12.6108 -6.33676
401 3 0 0 14.4124 -6.47797
402 1 1.80155 1.80155 14.4124 -8.31871
403 2 1.80155 0 16.2139 -6.95753
404 2 0 1.80155 16.2139 -6.9256
405 2 3.60309 0 14.4124 -6.97079
406 1 5.40464 1.80155 14.4124 -8.33171
407 3 5.40464 0 16.2139 -6.48252
408 1 3.60309 1.80155 16.2139 -8.17973
409 1 7.20619 0 14.4124 -8.37264
410 3 9.00773 1.80155 14.4124 -6.48698
411 2 9.00773 0 16.2139 -6.90392
412 1 7.20619 1.80155 16.2139 -8.29259
413 1 10.8093 0 14.4124 -8.43325
414 3 12.6108 1.80155 14.4124 -6.71788
415 3 12.6108 0 16.2139 -6.56764
416 3 10.8093 1.80155 16.2139 -6.56907
417 2 14.4124 0 14.4124 -7.12133
418 2 16.2139 1.80155 14.4124 -7.07452
419 2 16.2139 0 16.2139 -7.02279
420 3 14.4124 1.80155 16.2139 -6.66249
421 2 0 3.60309 14.4124 -6.97438
422 1 1.80155 5.40464 14.4124 -8.54001
423 3 1.80155 3.60309 16.2139 -6.43771
424 3 0 5.40464 16.2139 -6.42622
425 3 3.60309 3.60309 14.4124 -6.42031
426 1 5.40464 5.40464 14.4124 -8.47213
427 3 5.40464 3.60309 16.2139 -6.34316
428 2 3.60309 5.40464 16.2139 -6.9584
429 3 7.20619 3.60309 14.4124 -6.43697
430 2 9.00773 5.40464 14.4124 -6.94958
431 2 9.00773 3.60309 16.2139 -6.91341
432 1 7.20619 5.40464 16.2139 -8.35188
433 3 10.8093 3.60309 14.4124 -6.59674
434 2 12.6108 5.40464 14.4124 -7.01741
435 2 12.6108 3.60309 16.2139 -7.02407
436 1 10.8093 5.40464 16.2139 -8.45483
437 2 14.4124 3.60309 14.4124 -7.1564
438 1 16.2139 5.40464 14.4124 -8.47621
439 2 16.2139 3.60309 16.2139 -7.03257
440 2 14.4124 5.40464 16.2139 -6.98214
441 3 0 7.20619 14.4124 -6.54206
442 3 1.80155 9.00773 14.4124 -6.63481
443 3 1.80155 7.20619 16.2139 -6.56856
444 3 0 9.00773 16.2139 -6.3782
445 3 3.60309 7.20619 14.4124 -6.6734
446 2 5.40464 9.00773 14.4124 -7.05783
447 2 5.40464 7.20619 16.2139 -7.03609
448 3 3.60309 9.00773 16.2139 -6.61429
449 3 7.20619 7.20619 14.4124 -6.41144
450 2 9.00773 9.00773 14.4124 -7.0315
451 1 9.00773 7.20619 16.2139 -8.23329
452 1 7.20619 9.00773 16.2139 -8.23582
453 2 10.8093 7.20619 14.4124 -7.02585
454 1 12.6108 9.00773 14.4124 -8.11839
455 3 12.6108 7.20619 16.2139 -6.49127
456 2 10.8093 9.00773 16.2139 -6.97967
457 3 14.4124 7.20619 14.4124 -6.38468
458 3 16.2139 9.00773 14.4124 -6.36293
459 3 16.2139 7.20619 16.2139 -6.34904
460 1 14.4124 9.00773 16.2139 -8.40299
461 1 0 10.8093 14.4124 -8.43995
462 3 1.80155 12.6108 14.4124 -6.48559
463 2 1.80155 10.8093 16.2139 -6.8842
464 3 0 12.6108 16.2139 -6.24036
465 2 3.60309 10.8093 14.4124 -6.99749
466 2 5.40464 12.6108 14.4124 -6.96583
467 1 5.40464 10.8093 16.2139 -8.08921
468 3 3.60309 12.6108 16.2139 -6.44904
469 1 7.20619 10.8093 14.4124 -8.10162
470 1 9.00773 12.6108 14.4124 -8.02656
471 3 9.00773 10.8093 16.2139 -6.52301
472 2 7.20619 12.6108 16.2139 -7.02688
473 1 10.8093 10.8093 14.4124 -8.23187
474 2 12.6108 12.6108 14.4124 -7.01007
475 3 12.6108 10.8093 16.2139 -6.60319
476 2 10.8093 12.6108 16.2139 -7.02922
477 2 14.4124 10.8093 14.4124 -7.04492
478 2 16.2139 12.6108 14.4124 -7.03506
479 2 16.2139 10.8093 16.2139 -7.00684
480 3 14.4124 12.6108 16.2139 -6.69484
481 1 0 14.4124 14.4124 -8.34126
482 3 1.80155 16.2139 14.4124 -6.51705
483 1 1.80155 14.4124 16.2139 -8.37162
484 2 0 16.2139 16.2139 -7.03285
485 2 3.60309 14.4124 14.4124 -7.02887
486 2 5.40464 16.2139 14.4124 -7.13416
487 3 5.40464 14.4124 16.2139 -6.55009
488 3 3.60309 16.2139 16.2139 -6.48936
489 1 7.20619 14.4124 14.4124 -8.20803
490 2 9.00773 16.2139 14.4124 -7.08428
491 1 9.00773 14.4124 16.2139 -8.03565
492 2 7.20619 16.2139 16.2139 -7.10865
493 1 10.8093 14.4124 14.4124 -8.01345
494 2 12.6108 16.2139 14.4124 -6.93492
495 3 12.6108 14.4124 16.2139 -6.54781
496 1 10.8093 16.2139 16.2139 -8.3074
497 3 14.4124 14.4124 14.4124 -6.52637
498 3 16.2139 16.2139 14.4124 -6.46567
499 3 16.2139 14.4124 16.2139 -6.60559
500 1 14.4124 16.2139 16.2139 -8.68587
501 3 0 0 18.0155 -6.27452
502 1 1.80155 1.80155 18.0155 -8.2015
503 1 1.80155 0 19.817 -8.19283
504 1 0 1.80155 19.817 -8.05331
601 1 0 0 21.6186 -8.11167
602 1 1.80155 1.80155 21.6186 -8.06864
505 2 3.60309 0 18.0155 -6.95234
506 2 5.40464 1.80155 18.0155 -6.86247
507 3 5.40464 0 19.817 -6.43953
508 3 3.60309 1.80155 19.817 -6.40148
605 2 3.60309 0 21.6186 -6.96975
606 1 5.40464 1.80155 21.6186 -8.19733
509 3 7.20619 0 18.0155 -6.47641
510 1 9.00773 1.80155 18.0155 -8.38657
511 3 9.00773 0 19.817 -6.39983
512 1 7.20619 1.80155 19.817 -8.31624
609 3 7.20619 0 21.6186 -6.26829
610 2 9.00773 1.80155 21.6186 -6.96823
513 2 10.8093 0 18.0155 -6.94883
514 1 12.6108 1.80155 18.0155 -8.51212
515 2 12.6108 0 19.817 -7.03893
516 2 10.8093 1.80155 19.817 -7.01635
613 1 10.8093 0 21.6186 -8.13896
614 2 12.6108 1.80155 21.6186 -7.09562
517 3 14.4124 0 18.0155 -6.5279
518 1 16.2139 1.80155 18.0155 -8.44554
519 1 16.2139 0 19.817 -8.30334
520 2 14.4124 1.80155 19.817 -7.01299
617 1 14.4124 0 21.6186 -8.12189
618 3 16.2139 1.80155 21.6186 -6.59758
521 2 0 3.60309 18.0155 -7.01327
522 2 1.80155 5.40464 18.0155 -7.03864
523 2 1.80155 3.60309 19.817 -7.0399
524 1 0 5.40464 19.817 -8.26729
621 3 0 3.60309 21.6186 -6.31198
622 2 1.80155 5.40464 21.6186 -7.06547
525 1 3.60309 3.60309 18.0155 -8.32688
526 3 5.40464 5.40464 18.0155 -6.41813
527 3 5.40464 3.60309 19.817 -6.36318
528 1 3.60309 5.40464 19.817 -8.13993
625 2 3.60309 3.60309 21.6186 -7.08854
626 2 5.40464 5.40464 21.6186 -7.0869
529 2 7.20619 3.60309 18.0155 -6.91239
530 3 9.00773 5.40464 18.0155 -6.44872
531 3 9.00773 3.60309 19.817 -6.42929
532 1 7.20619 5.40464 19.817 -8.25466
629 1 7.20619 3.60309 21.6186 -8.18361
630 3 9.00773 5.40464 21.6186 -6.43284
533 3 10.8093 3.60309 18.0155 -6.5633
534 3 12.6108 5.40464 18.0155 -6.56512
535 2 12.6108 3.60309 19.817 -7.07153
536 2 10.8093 5.40464 19.817 -6.95953
633 1 10.8093 3.60309 21.6186 -8.28606
634 3 12.6108 5.40464 21.6186 -6.4335
537 3 14.4124 3.60309 18.0155 -6.6026
538 3 16.2139 5.40464 18.0155 -6.48893
539 2 16.2139 3.60309 19.817 -6.92341
540 1 14.4124 5.40464 19.817 -8.31659
637 1 14.4124 3.60309 21.6186 -8.23915
638 2 16.2139 5.40464 21.6186 -7.01335
541 1 0 7.20619 18.0155 -8.27193
542 2 1.80155 9.00773 18.0155 -7.01957
543 1 1.80155 7.20619 19.817 -7.99958
544 2 0 9.00773 19.817 -6.99402
641 2 0 7.20619 21.6186 -7.12362
642 1 1.80155 9.00773 21.6186 -8.18356
545 2 3.60309 7.20619 18.0155 -7.07121
546 2 5.40464 9.00773 18.0155 -7.06062
547 1 5.40464 7.20619 19.817 -8.15372
548 1 3.60309 9.00773 19.817 -8.07248
645 2 3.60309 7.20619 21.6186 -7.09001
646 3 5.40464 9.00773 21.6186 -6.55579
549 2 7.20619 7.20619 18.0155 -7.01464
550 3 9.00773 9.00773 18.0155 -6.54565
551 1 9.00773 7.20619 19.817 -8.28284
552 2 7.20619 9.00773 19.817 -7.06273
649 2 7.20619 7.20619 21.6186 -7.04723
650 2 9.00773 9.00773 21.6186 -7.07083
553 2 10.8093 7.20619 18.0155 -6.99444
554 3 12.6108 9.00773 18.0155 -6.5505
555 2 12.6108 7.20619 19.817 -6.99068
556 1 10.8093 9.00773 19.817 -8.33816
653 2 10.8093 7.20619 21.6186 -7.01928
654 1 12.6108 9.00773 21.6186 -8.44138
557 1 14.4124 7.20619 18.0155 -8.24677
558 2 16.2139 9.00773 18.0155 -7.00277
559 1 16.2139 7.20619 19.817 -8.09523
560 2 14.4124 9.00773 19.817 -6.9664
657 3 14.4124 7.20619 21.6186 -6.39718
658 1 16.2139 9.00773 21.6186 -8.22402
561 1 0 10.8093 18.0155 -8.24702
562 1 1.80155 12.6108 18.0155 -8.24938
563 1 1.80155 10.8093 19.817 -8.15407
564 3 0 12.6108 19.817 -6.41383
661 3 0 10.8093 21.6186 -6.36606
662 3 1.80155 12.6108 21.6186 -6.40746
565 1 3.60309 10.8093 18.0155 -8.11922
566 1 5.40464 12.6108 18.0155 -8.21819
567 3 5.40464 10.8093 19.817 -6.52427
568 2 3.60309 12.6108 19.817 -6.93688
665 3 3.60309 10.8093 21.6186 -6.38362
666 1 5.40464 12.6108 21.6186 -8.11708
569 2 7.20619 10.8093 18.0155 -7.05423
570 3 9.00773 12.6108 18.0155 -6.66229
571 3 9.00773 10.8093 19.817 -6.72769
572 2 7.20619 12.6108 19.817 -7.11152
669 2 7.20619 10.8093 21.6186 -7.11821
670 2 9.00773 12.6108 21.6186 -7.11859
573 2 10.8093 10.8093 18.0155 -7.06624
574 2 12.6108 12.6108 18.0155 -7.09871
575 2 12.6108 10.8093 19.817 -7.06373
576 3 10.8093 12.6108 19.817 -6.72075
673 3 10.8093 10.8093 21.6186 -6.59996
674 2 12.6108 12.6108 21.6186 -7.10783
577 3 14.4124 10.8093 18.0155 -6.66384
578 3 16.2139 12.6108 18.0155 -6.54417
579 3 16.2139 10.8093 19.817 -6.5382
580 2 14.4124 12.6108 19.817 -7.10187
677 3 14.4124 10.8093 21.6186 -6.60563
678 2 16.2139 12.6108 21.6186 -7.00648
581 3 0 14.4124 18.0155 -6.46949
582 3 1.80155 16.2139 18.0155 -6.43286
583 3 1.80155 14.4124 19.817 -6.41844
584 3 0 16.2139 19.817 -6.50249
681 3 0 14.4124 21.6186 -6.48877
682 3 1.80155 16.2139 21.6186 -6.34615
585 2 3.60309 14.4124 18.0155 -6.89316
586 1 5.40464 16.2139 18.0155 -8.14744
587 1 5.40464 14.4124 19.817 -7.92582
588 1 3.60309 16.2139 19.817 -8.13971
685 1 3.60309 14.4124 21.6186 -8.26241
686 3 5.40464 16.2139 21.6186 -6.36252
589 2 7.20619 14.4124 18.0155 -7.04607
590 1 9.00773 16.2139 18.0155 -8.22501
591 2 9.00773 14.4124 19.817 -7.07545
592 2 7.20619 16.2139 19.817 -7.11251
689 1 7.20619 14.4124 21.6186 -8.15461
690 2 9.00773 16.2139 21.6186 -7.10587
593 3 10.8093 14.4124 18.0155 -6.53115
594 3 12.6108 16.2139 18.0155 -6.4827
595 1 12.6108 14.4124 19.817 -8.4801
596 2 10.8093 16.2139 19.817 -7.06398
693 2 10.8093 14.4124 21.6186 -7.06445
694 2 12.6108 16.2139 21.6186 -7.06636
597 2 14.4124 14.4124 18.0155 -6.93515
598 3 16.2139 16.2139 18.0155 -6.54526
599 1 16.2139 14.4124 19.817 -8.57575
600 3 14.4124 16.2139 19.817 -6.53367
697 2 14.4124 14.4124 21.6186 -6.99193
698 2 16.2139 16.2139 21.6186 -6.99126
603 3 1.80155 0 23.4201 -6.43437
604 1 0 1.80155 23.4201 -8.108
701 2 0 0 25.2217 -7.08997
702 1 1.80155 1.80155 25.2217 -8.06504
607 1 5.40464 0 23.4201 -7.98252
608 1 3.60309 1.80155 23.4201 -8.03326
703 2 3.60309 0 25.2217 -7.13003
704 2 5.40464 1.80155 25.2217 -7.09246
611 2 9.00773 0 23.4201 -7.03565
612 1 7.20619 1.80155 23.4201 -8.23787
705 3 7.20619 0 25.2217 -6.42627
706 2 9.00773 1.80155 25.2217 -7.12992
615 2 12.6108 0 23.4201 -7.14791
616 1 10.8093 1.80155 23.4201 -8.26619
707 2 10.8093 0 25.2217 -7.06455
708 3 12.6108 1.80155 25.2217 -6.59766
619 2 16.2139 0 23.4201 -7.08577
620 2 14.4124 1.80155 23.4201 -7.03563
709 2 14.4124 0 25.2217 -7.04984
710 2 16.2139 1.80155 25.2217 -7.14026
623 1 1.80155 3.60309 23.4201 -8.01256
624 1 0 5.40464 23.4201 -8.24753
711 2 0 3.60309 25.2217 -7.03242
712 3 1.80155 5.40464 25.2217 -6.57057
627 2 5.40464 3.60309 23.4201 -7.05301
628 1 3.60309 5.40464 23.4201 -8.14604
713 2 3.60309 3.60309 25.2217 -7.11021
714 1 5.40464 5.40464 25.2217 -8.27143
631 2 9.00773 3.60309 23.4201 -7.0961
632 2 7.20619 5.40464 23.4201 -7.05686
715 3 7.20619 3.60309 25.2217 -6.69421
716 2 9.00773 5.40464 25.2217 -7.15711
635 2 12.6108 3.60309 23.4201 -7.06825
636 1 10.8093 5.40464 23.4201 -8.10198
717 2 10.8093 3.60309 25.2217 -7.07069
718 1 12.6108 5.40464 25.2217 -8.14633
639 3 16.2139 3.60309 23.4201 -6.61653
640 1 14.4124 5.40464 23.4201 -8.08872
719 1 14.4124 3.60309 25.2217 -8.27563
720 2 16.2139 5.40464 25.2217 -7.0763
643 2 1.80155 7.20619 23.4201 -7.03239
644 1 0 9.00773 23.4201 -8.20957
721 2 0 7.20619 25.2217 -7.00652
722 1 1.80155 9.00773 25.2217 -8.22531
647 1 5.40464 7.20619 23.4201 -8.3075
648 3 3.60309 9.00773 23.4201 -6.46196
723 2 3.60309 7.20619 25.2217 -6.93265
724 3 5.40464 9.00773 25.2217 -6.59007
651 1 9.00773 7.20619 23.4201 -8.27421
652 2 7.20619 9.00773 23.4201 -7.11053
725 2 7.20619 7.20619 25.2217 -7.14518
726 2 9.00773 9.00773 25.2217 -7.11409
655 2 12.6108 7.20619 23.4201 -7.01086
656 3 10.8093 9.00773 23.4201 -6.48578
727 1 10.8093 7.20619 25.2217 -8.16244
728 1 12.6108 9.00773 25.2217 -8.20334
659 1 16.2139 7.20619 23.4201 -8.18493
660 3 14.4124 9.00773 23.4201 -6.35014
729 1 14.4124 7.20619 25.2217 -8.10801
730 3 16.2139 9.00773 25.2217 -6.37287
663 3 1.80155 10.8093 23.4201 -6.29416
664 1 0 12.6108 23.4201 -8.67347
731 3 0 10.8093 25.2217 -6.29077
732 1 1.80155 12.6108 25.2217 -8.07751
667 2 5.40464 10.8093 23.4201 -7.01294
668 2 3.60309 12.6108 23.4201 -6.92105
733 1 3.60309 10.8093 25.2217 -8.26525
734 3 5.40464 12.6108 25.2217 -6.35766
671 1 9.00773 10.8093 23.4201 -8.36212
672 1 7.20619 12.6108 23.4201 -8.168
735 2 7.20619 10.8093 25.2217 -7.04902
736 3 9.00773 12.6108 25.2217 -6.34651
675 2 12.6108 10.8093 23.4201 -6.97043
676 2 10.8093 12.6108 23.4201 -7.04828
737 2 10.8093 10.8093 25.2217 -6.97438
738 3 12.6108 12.6108 25.2217 -6.32353
679 2 16.2139 10.8093 23.4201 -6.90664
680 3 14.4124 12.6108 23.4201 -6.47389
739 1 14.4124 10.8093 25.2217 -8.37887
740 3 16.2139 12.6108 25.2217 -6.33772
683 3 1.80155 14.4124 23.4201 -6.39123
684 1 0 16.2139 23.4201 -8.39723
741 3 0 14.4124 25.2217 -6.45207
742 2 1.80155 16.2139 25.2217 -7.03326
687 1 5.40464 14.4124 23.4201 -8.18492
688 2 3.60309 16.2139 23.4201 -6.97268
743 1 3.60309 14.4124 25.2217 -8.10701
744 3 5.40464 16.2139 25.2217 -6.38462
691 1 9.00773 14.4124 23.4201 -8.28511
692 3 7.20619 16.2139 23.4201 -6.39072
745 3 7.20619 14.4124 25.2217 -6.295
746 3 9.00773 16.2139 25.2217 -6.28738
695 1 12.6108 14.4124 23.4201 -8.26331
696 3 10.8093 16.2139 23.4201 -6.40361
747 1 10.8093 14.4124 25.2217 -8.52008
748 3 12.6108 16.2139 25.2217 -6.27825
699 1 16.2139 14.4124 23.4201 -8.1596
700 1 14.4124 16.2139 23.4201 -8.02014
749 1 14.4124 14.4124 25.2217 -8.45639
750 2 16.2139 16.2139 25.2217 -6.9817
751 2 1.80155 0 27.0232 -7.05731
752 1 0 1.80155 27.0232 -8.28173
801 3 0 0 28.8247 -6.32793
802 3 1.80155 1.80155 28.8247 -6.34951
803 1 1.80155 0 30.6263 -8.24436
804 1 0 1.80155 30.6263 -8.31881
753 2 5.40464 0 27.0232 -7.08162
754 2 3.60309 1.80155 27.0232 -7.08551
805 1 3.60309 0 28.8247 -8.24172
806 3 5.40464 1.80155 28.8247 -6.44816
807 2 5.40464 0 30.6263 -7.01452
808 1 3.60309 1.80155 30.6263 -8.14561
755 1 9.00773 0 27.0232 -8.29541
756 2 7.20619 1.80155 27.0232 -7.13636
809 1 7.20619 0 28.8247 -8.20696
810 3 9.00773 1.80155 28.8247 -6.54205
811 1 9.00773 0 30.6263 -8.06709
812 1 7.20619 1.80155 30.6263 -8.21516
757 3 12.6108 0 27.0232 -6.63278
758 2 10.8093 1.80155 27.0232 -7.09258
813 2 10.8093 0 28.8247 -7.08537
814 1 12.6108 1.80155 28.8247 -8.31501
815 2 12.6108 0 30.6263 -7.12333
816 1 10.8093 1.80155 30.6263 -8.35004
759 1 16.2139 0 27.0232 -8.27482
760 3 14.4124 1.80155 27.0232 -6.50859
817 2 14.4124 0 28.8247 -7.08626
818 2 16.2139 1.80155 28.8247 -7.05821
819 2 16.2139 0 30.6263 -7.05538
820 3 14.4124 1.80155 30.6263 -6.42156
761 2 1.80155 3.60309 27.0232 -7.00865
762 2 0 5.40464 27.0232 -6.98096
821 3 0 3.60309 28.8247 -6.29758
822 3 1.80155 5.40464 28.8247 -6.39517
823 1 1.80155 3.60309 30.6263 -8.23027
824 1 0 5.40464 30.6263 -8.272
763 2 5.40464 3.60309 27.0232 -7.12558
764 3 3.60309 5.40464 27.0232 -6.51569
825 1 3.60309 3.60309 28.8247 -8.23536
826 1 5.40464 5.40464 28.8247 -8.17907
827 1 5.40464 3.60309 30.6263 -8.13873
828 3 3.60309 5.40464 30.6263 -6.32474
765 2 9.00773 3.60309 27.0232 -7.2612
766 2 7.20619 5.40464 27.0232 -7.16532
829 2 7.20619 3.60309 28.8247 -7.07823
830 2 9.00773 5.40464 28.8247 -7.08827
831 3 9.00773 3.60309 30.6263 -6.45797
832 1 7.20619 5.40464 30.6263 -8.13406
767 3 12.6108 3.60309 27.0232 -6.39591
768 3 10.8093 5.40464 27.0232 -6.56199
833 2 10.8093 3.60309 28.8247 -6.99842
834 1 12.6108 5.40464 28.8247 -8.50165
835 3 12.6108 3.60309 30.6263 -6.347