ITEM: TIMESTEP
0
ITEM: NUMBER OF ATOMS
4000
ITEM: BOX BOUNDS pp pp pp
0.0000000000000000e+00 3.5907429999999998e+01
0.0000000000000000e+00 3.5907429999999998e+01
0.0000000000000000e+00 3.5907429999999998e+01
ITEM: ATOMS id type x y z c_peratom
1 1 0 0 0 -8.25081
2 1 1.79537 1.79537 0 -8.18874
3 3 1.79537 0 1.79537 -6.42946
4 2 0 1.79537 1.79537 -6.93289
101 1 0 0 3.59074 -8.5074
102 2 1.79537 1.79537 3.59074 -7.03752
5 3 3.59074 0 0 -6.42557
6 1 5.38611 1.79537 0 -8.27217
7 2 5.38611 0 1.79537 -6.92317
8 2 3.59074 1.79537 1.79537 -6.99405
105 1 3.59074 0 3.59074 -8.63093
106 3 5.38611 1.79537 3.59074 -6.59428
9 1 7.18149 0 0 -8.02345
10 2 8.97686 1.79537 0 -6.92815
11 1 8.97686 0 1.79537 -8.21554
12 1 7.18149 1.79537 1.79537 -8.2717
109 3 7.18149 0 3.59074 -6.42335
110 2 8.97686 1.79537 3.59074 -6.99072
13 3 10.7722 0 0 -6.24995
14 1 12.5676 1.79537 0 -8.39834
15 3 12.5676 0 1.79537 -6.24152
16 1 10.7722 1.79537 1.79537 -8.21977
113 1 10.7722 0 3.59074 -8.2151
114 3 12.5676 1.79537 3.59074 -6.33665
17 1 14.363 0 0 -8.32731
18 2 16.1583 1.79537 0 -7.0008
19 2 16.1583 0 1.79537 -6.90984
20 3 14.363 1.79537 1.79537 -6.47853
117 1 14.363 0 3.59074 -8.51723
118 3 16.1583 1.79537 3.59074 -6.52506
21 2 0 3.59074 0 -7.01664
22 2 1.79537 5.38611 0 -7.055
23 1 1.79537 3.59074 1.79537 -8.35098
24 2 0 5.38611 1.79537 -7.04796
121 1 0 3.59074 3.59074 -8.46329
122 3 1.79537 5.38611 3.59074 -6.51384
25 3 3.59074 3.59074 0 -6.37469
26 1 5.38611 5.38611 0 -8.30898
27 2 5.38611 3.59074 1.79537 -6.98528
28 3 3.59074 5.38611 1.79537 -6.54976
125 2 3.59074 3.59074 3.59074 -7.06396
126 2 5.38611 5.38611 3.59074 -6.98714
29 3 7.18149 3.59074 0 -6.19951
30 3 8.97686 5.38611 0 -6.26269
31 1 8.97686 3.59074 1.79537 -8.40235
32 1 7.18149 5.38611 1.79537 -8.19672
129 3 7.18149 3.59074 3.59074 -6.45385
130 2 8.97686 5.38611 3.59074 -6.97876
33 3 10.7722 3.59074 0 -6.35745
34 2 12.5676 5.38611 0 -6.97292
35 2 12.5676 3.59074 1.79537 -6.90311
36 3 10.7722 5.38611 1.79537 -6.40085
133 3 10.7722 3.59074 3.59074 -6.33342
134 1 12.5676 5.38611 3.59074 -8.45927
37 2 14.363 3.59074 0 -7.01954
38 1 16.1583 5.38611 0 -8.6014
39 3 16.1583 3.59074 1.79537 -6.61616
40 2 14.363 5.38611 1.79537 -7.00485
137 3 14.363 3.59074 3.59074 -6.50376
138 1 16.1583 5.38611 3.59074 -8.65553
41 2 0 7.18149 0 -7.16784
42 2 1.79537 8.97686 0 -7.10683
43 1 1.79537 7.18149 1.79537 -8.42188
44 3 0 8.97686 1.79537 -6.67684
141 2 0 7.18149 3.59074 -6.99862
142 2 1.79537 8.97686 3.59074 -6.94659
45 2 3.59074 7.18149 0 -7.05577
46 2 5.38611 8.97686 0 -6.99508
47 3 5.38611 7.18149 1.79537 -6.32143
48 1 3.59074 8.97686 1.79537 -8.19327
145 3 3.59074 7.18149 3.59074 -6.3804
146 1 5.38611 8.97686 3.59074 -8.27321
49 3 7.18149 7.18149 0 -6.24649
50 1 8.97686 8.97686 0 -8.01198
51 1 8.97686 7.18149 1.79537 -8.20754
52 3 7.18149 8.97686 1.79537 -6.18898
149 1 7.18149 7.18149 3.59074 -8.12751
150 3 8.97686 8.97686 3.59074 -6.16062
53 1 10.7722 7.18149 0 -8.23634
54 3 12.5676 8.97686 0 -6.32867
55 2 12.5676 7.18149 1.79537 -6.99994
56 3 10.7722 8.97686 1.79537 -6.21106
153 1 10.7722 7.18149 3.59074 -8.35228
154 2 12.5676 8.97686 3.59074 -6.96062
57 3 14.363 7.18149 0 -6.52816
58 2 16.1583 8.97686 0 -6.97476
59 3 16.1583 7.18149 1.79537 -6.57603
60 1 14.363 8.97686 1.79537 -8.41879
157 2 14.363 7.18149 3.59074 -6.95887
158 2 16.1583 8.97686 3.59074 -7.05087
61 2 0 10.7722 0 -7.15773
62 2 1.79537 12.5676 0 -7.14196
63 3 1.79537 10.7722 1.79537 -6.67031
64 2 0 12.5676 1.79537 -7.1238
161 3 0 10.7722 3.59074 -6.63801
162 3 1.79537 12.5676 3.59074 -6.67395
65 2 3.59074 10.7722 0 -7.05689
66 3 5.38611 12.5676 0 -6.34758
67 1 5.38611 10.7722 1.79537 -8.20232
68 2 3.59074 12.5676 1.79537 -7.06403
165 1 3.59074 10.7722 3.59074 -8.3077
166 2 5.38611 12.5676 3.59074 -6.96328
69 1 7.18149 10.7722 0 -8.07572
70 1 8.97686 12.5676 0 -8.18742
71 1 8.97686 10.7722 1.79537 -8.20687
72 3 7.18149 12.5676 1.79537 -6.27885
169 2 7.18149 10.7722 3.59074 -6.83639
170 2 8.97686 12.5676 3.59074 -6.9412
73 1 10.7722 10.7722 0 -8.21471
74 3 12.5676 12.5676 0 -6.4256
75 3 12.5676 10.7722 1.79537 -6.39146
76 2 10.7722 12.5676 1.79537 -6.99298
173 1 10.7722 10.7722 3.59074 -8.46423
174 3 12.5676 12.5676 3.59074 -6.40927
77 2 14.363 10.7722 0 -6.87594
78 3 16.1583 12.5676 0 -6.40325
79 1 16.1583 10.7722 1.79537 -8.43205
80 3 14.363 12.5676 1.79537 -6.42135
177 1 14.363 10.7722 3.59074 -8.38072
178 2 16.1583 12.5676 3.59074 -6.97033
81 2 0 14.363 0 -7.14857
82 3 1.79537 16.1583 0 -6.69336
83 3 1.79537 14.363 1.79537 -6.78896
84 2 0 16.1583 1.79537 -7.0846
181 3 0 14.363 3.59074 -6.62062
182 3 1.79537 16.1583 3.59074 -6.59631
85 2 3.59074 14.363 0 -7.06261
86 2 5.38611 16.1583 0 -6.98948
87 1 5.38611 14.363 1.79537 -8.43429
88 3 3.59074 16.1583 1.79537 -6.68254
185 2 3.59074 14.363 3.59074 -6.96469
186 3 5.38611 16.1583 3.59074 -6.49505
89 3 7.18149 14.363 0 -6.32289
90 1 8.97686 16.1583 0 -8.40149
91 3 8.97686 14.363 1.79537 -6.429
92 1 7.18149 16.1583 1.79537 -8.30826
189 1 7.18149 14.363 3.59074 -8.34146
190 2 8.97686 16.1583 3.59074 -6.90372
93 2 10.7722 14.363 0 -7.03852
94 2 12.5676 16.1583 0 -6.99258
95 3 12.5676 14.363 1.79537 -6.5846
96 1 10.7722 16.1583 1.79537 -8.57555
193 3 10.7722 14.363 3.59074 -6.53631
194 2 12.5676 16.1583 3.59074 -7.04041
97 3 14.363 14.363 0 -6.38179
98 1 16.1583 16.1583 0 -8.16674
99 1 16.1583 14.363 1.79537 -8.15902
100 2 14.363 16.1583 1.79537 -6.95781
197 1 14.363 14.363 3.59074 -8.35518
198 2 16.1583 16.1583 3.59074 -6.98921
103 2 1.79537 0 5.38611 -7.03095
104 2 0 1.79537 5.38611 -7.00203
201 3 0 0 7.18149 -6.57477
202 3 1.79537 1.79537 7.18149 -6.65449
107 3 5.38611 0 5.38611 -6.51102
108 3 3.59074 1.79537 5.38611 -6.62733
203 2 3.59074 0 7.18149 -6.94992
204 1 5.38611 1.79537 7.18149 -8.5338
111 2 8.97686 0 5.38611 -6.99059
112 2 7.18149 1.79537 5.38611 -6.93604
205 3 7.18149 0 7.18149 -6.37114
206 1 8.97686 1.79537 7.18149 -8.33041
115 3 12.5676 0 5.38611 -6.29145
116 1 10.7722 1.79537 5.38611 -8.20272
207 2 10.7722 0 7.18149 -6.98972
208 1 12.5676 1.79537 7.18149 -8.34105
119 1 16.1583 0 5.38611 -8.2307
120 3 14.363 1.79537 5.38611 -6.36387
209 1 14.363 0 7.18149 -8.45924
210 2 16.1583 1.79537 7.18149 -6.99564
123 2 1.79537 3.59074 5.38611 -7.01517
124 3 0 5.38611 5.38611 -6.33433
211 1 0 3.59074 7.18149 -8.37556
212 1 1.79537 5.38611 7.18149 -8.33786
127 2 5.38611 3.59074 5.38611 -7.05224
128 1 3.59074 5.38611 5.38611 -8.34392
213 2 3.59074 3.59074 7.18149 -6.97397
214 2 5.38611 5.38611 7.18149 -7.01218
131 3 8.97686 3.59074 5.38611 -6.3793
132 1 7.18149 5.38611 5.38611 -8.4019
215 3 7.18149 3.59074 7.18149 -6.42021
216 3 8.97686 5.38611 7.18149 -6.30675
135 1 12.5676 3.59074 5.38611 -8.32716
136 3 10.7722 5.38611 5.38611 -6.24493
217 1 10.7722 3.59074 7.18149 -8.44388
218 3 12.5676 5.38611 7.18149 -6.35055
139 3 16.1583 3.59074 5.38611 -6.63414
140 3 14.363 5.38611 5.38611 -6.47198
219 2 14.363 3.59074 7.18149 -6.89987
220 2 16.1583 5.38611 7.18149 -6.99077
143 3 1.79537 7.18149 5.38611 -6.43337
144 2 0 8.97686 5.38611 -6.93591
221 2 0 7.18149 7.18149 -6.81624
222 1 1.79537 8.97686 7.18149 -8.4969
147 2 5.38611 7.18149 5.38611 -7.02537
148 1 3.59074 8.97686 5.38611 -8.24638
223 1 3.59074 7.18149 7.18149 -8.23887
224 2 5.38611 8.97686 7.18149 -6.93344
151 1 8.97686 7.18149 5.38611 -8.1424
152 3 7.18149 8.97686 5.38611 -6.27711
225 2 7.18149 7.18149 7.18149 -6.99624
226 1 8.97686 8.97686 7.18149 -7.96389
155 3 12.5676 7.18149 5.38611 -6.32984
156 2 10.7722 8.97686 5.38611 -6.95386
227 1 10.7722 7.18149 7.18149 -8.40784
228 3 12.5676 8.97686 7.18149 -6.23957
159 2 16.1583 7.18149 5.38611 -6.98647
160 1 14.363 8.97686 5.38611 -8.43096
229 1 14.363 7.18149 7.18149 -8.50227
230 3 16.1583 8.97686 7.18149 -6.48989
163 2 1.79537 10.7722 5.38611 -6.9704
164 3 0 12.5676 5.38611 -6.51883
231 3 0 10.7722 7.18149 -6.41345
232 1 1.79537 12.5676 7.18149 -8.44961
167 3 5.38611 10.7722 5.38611 -6.35392
168 3 3.59074 12.5676 5.38611 -6.50679
233 3 3.59074 10.7722 7.18149 -6.43371
234 1 5.38611 12.5676 7.18149 -8.45352
171 1 8.97686 10.7722 5.38611 -8.18219
172 3 7.18149 12.5676 5.38611 -6.31747
235 1 7.18149 10.7722 7.18149 -8.19891
236 1 8.97686 12.5676 7.18149 -8.11364
175 3 12.5676 10.7722 5.38611 -6.38094
176 2 10.7722 12.5676 5.38611 -6.97035
237 1 10.7722 10.7722 7.18149 -8.27781
238 3 12.5676 12.5676 7.18149 -6.34638
179 2 16.1583 10.7722 5.38611 -6.98274
180 2 14.363 12.5676 5.38611 -6.92309
239 3 14.363 10.7722 7.18149 -6.40417
240 1 16.1583 12.5676 7.18149 -8.46198
183 2 1.79537 14.363 5.38611 -6.88304
184 1 0 16.1583 5.38611 -8.38924
241 3 0 14.363 7.18149 -6.2815
242 3 1.79537 16.1583 7.18149 -6.35785
187 2 5.38611 14.363 5.38611 -6.89594
188 1 3.59074 16.1583 5.38611 -8.68742
243 3 3.59074 14.363 7.18149 -6.37914
244 3 5.38611 16.1583 7.18149 -6.39289
191 1 8.97686 14.363 5.38611 -8.45548
192 3 7.18149 16.1583 5.38611 -6.51576
245 3 7.18149 14.363 7.18149 -6.28025
246 3 8.97686 16.1583 7.18149 -6.28753
195 1 12.5676 14.363 5.38611 -8.52365
196 2 10.7722 16.1583 5.38611 -6.88161
247 3 10.7722 14.363 7.18149 -6.25937
248 3 12.5676 16.1583 7.18149 -6.34637
199 3 16.1583 14.363 5.38611 -6.39222
200 2 14.363 16.1583 5.38611 -7.01969
249 3 14.363 14.363 7.18149 -6.39035
250 1 16.1583 16.1583 7.18149 -8.43716
251 3 1.79537 0 8.97686 -6.55559
252 2 0 1.79537 8.97686 -7.00728
301 3 0 0 10.7722 -6.469
302 1 1.79537 1.79537 10.7722 -8.49688
303 2 1.79537 0 12.5676 -6.99606
304 1 0 1.79537 12.5676 -8.31591
253 3 5.38611 0 8.97686 -6.58965
254 3 3.59074 1.79537 8.97686 -6.5449
305 2 3.59074 0 10.7722 -7.07101
306 2 5.38611 1.79537 10.7722 -6.99396
307 3 5.38611 0 12.5676 -6.60194
308 2 3.59074 1.79537 12.5676 -7.016
255 1 8.97686 0 8.97686 -8.23976
256 2 7.18149 1.79537 8.97686 -6.8868
309 3 7.18149 0 10.7722 -6.53917
310 3 8.97686 1.79537 10.7722 -6.49191
311 1 8.97686 0 12.5676 -8.43776
312 3 7.18149 1.79537 12.5676 -6.49078
257 3 12.5676 0 8.97686 -6.53283
258 2 10.7722 1.79537 8.97686 -6.95739
313 2 10.7722 0 10.7722 -7.10374
314 1 12.5676 1.79537 10.7722 -8.45307
315 2 12.5676 0 12.5676 -7.06398
316 1 10.7722 1.79537 12.5676 -8.2513
259 3 16.1583 0 8.97686 -6.39144
260 3 14.363 1.79537 8.97686 -6.4422
317 1 14.363 0 10.7722 -8.47333
318 3 16.1583 1.79537 10.7722 -6.38519
319 3 16.1583 0 12.5676 -6.30414
320 3 14.363 1.79537 12.5676 -6.39004
261 3 1.79537 3.59074 8.97686 -6.50687
262 3 0 5.38611 8.97686 -6.36115
321 2 0 3.59074 10.7722 -6.99018
322 3 1.79537 5.38611 10.7722 -6.60693
323 2 1.79537 3.59074 12.5676 -7.04202
324 2 0 5.38611 12.5676 -7.00622
263 1 5.38611 3.59074 8.97686 -8.29519
264 2 3.59074 5.38611 8.97686 -6.93309
325 3 3.59074 3.59074 10.7722 -6.59106
326 3 5.38611 5.38611 10.7722 -6.48813
327 2 5.38611 3.59074 12.5676 -6.99338
328 3 3.59074 5.38611 12.5676 -6.46859
265 3 8.97686 3.59074 8.97686 -6.40966
266 1 7.18149 5.38611 8.97686 -8.40179
329 1 7.18149 3.59074 10.7722 -8.47621
330 3 8.97686 5.38611 10.7722 -6.48564
331 3 8.97686 3.59074 12.5676 -6.54402
332 2 7.18149 5.38611 12.5676 -6.99901
267 3 12.5676 3.59074 8.97686 -6.49901
268 3 10.7722 5.38611 8.97686 -6.4458
333 2 10.7722 3.59074 10.7722 -6.98595
334 2 12.5676 5.38611 10.7722 -6.9804
335 3 12.5676 3.59074 12.5676 -6.403
336 2 10.7722 5.38611 12.5676 -7.03299
269 3 16.1583 3.59074 8.97686 -6.69725
270 3 14.363 5.38611 8.97686 -6.63867
337 3 14.363 3.59074 10.7722 -6.49076
338 2 16.1583 5.38611 10.7722 -7.01912
339 1 16.1583 3.59074 12.5676 -8.34495
340 1 14.363 5.38611 12.5676 -8.3154
271 3 1.79537 7.18149 8.97686 -6.36247
272 3 0 8.97686 8.97686 -6.37527
341 3 0 7.18149 10.7722 -6.46584
342 1 1.79537 8.97686 10.7722 -8.206
343 2 1.79537 7.18149 12.5676 -7.03448
344 1 0 8.97686 12.5676 -8.22155
273 3 5.38611 7.18149 8.97686 -6.46374
274 2 3.59074 8.97686 8.97686 -6.96907
345 1 3.59074 7.18149 10.7722 -8.44485
346 1 5.38611 8.97686 10.7722 -8.27954
347 3 5.38611 7.18149 12.5676 -6.49097
348 2 3.59074 8.97686 12.5676 -7.04075
275 1 8.97686 7.18149 8.97686 -8.26085
276 2 7.18149 8.97686 8.97686 -7.04293
349 2 7.18149 7.18149 10.7722 -6.96712
350 2 8.97686 8.97686 10.7722 -6.94227
351 1 8.97686 7.18149 12.5676 -8.35029
352 3 7.18149 8.97686 12.5676 -6.3978
277 2 12.5676 7.18149 8.97686 -6.89859
278 1 10.7722 8.97686 8.97686 -8.32585
353 3 10.7722 7.18149 10.7722 -6.34224
354 3 12.5676 8.97686 10.7722 -6.17399
355 1 12.5676 7.18149 12.5676 -8.16778
356 1 10.7722 8.97686 12.5676 -8.09609
279 3 16.1583 7.18149 8.97686 -6.5494
280 1 14.363 8.97686 8.97686 -8.47927
357 3 14.363 7.18149 10.7722 -6.44467
358 2 16.1583 8.97686 10.7722 -7.02765
359 2 16.1583 7.18149 12.5676 -6.9662
360 1 14.363 8.97686 12.5676 -8.10402
281 2 1.79537 10.7722 8.97686 -6.98202
282 1 0 12.5676 8.97686 -8.24751
361 1 0 10.7722 10.7722 -8.15027
362 3 1.79537 12.5676 10.7722 -6.37108
363 2 1.79537 10.7722 12.5676 -7.04313
364 2 0 12.5676 12.5676 -6.97808
283 3 5.38611 10.7722 8.97686 -6.36937
284 2 3.59074 12.5676 8.97686 -6.93788
365 1 3.59074 10.7722 10.7722 -8.24572
366 3 5.38611 12.5676 10.7722 -6.35678
367 2 5.38611 10.7722 12.5676 -6.95421
368 1 3.59074 12.5676 12.5676 -8.30477
285 1 8.97686 10.7722 8.97686 -8.13041
286 2 7.18149 12.5676 8.97686 -6.98099
369 1 7.18149 10.7722 10.7722 -8.28773
370 3 8.97686 12.5676 10.7722 -6.1654
371 1 8.97686 10.7722 12.5676 -8.2773
372 2 7.18149 12.5676 12.5676 -6.95592
287 3 12.5676 10.7722 8.97686 -6.21725
288 3 10.7722 12.5676 8.97686 -6.17122
373 3 10.7722 10.7722 10.7722 -6.2155
374 3 12.5676 12.5676 10.7722 -6.18015
375 1 12.5676 10.7722 12.5676 -8.26206
376 3 10.7722 12.5676 12.5676 -6.20042
289 2 16.1583 10.7722 8.97686 -6.98317
290 1 14.363 12.5676 8.97686 -8.26897
377 1 14.363 10.7722 10.7722 -8.04435
378 1 16.1583 12.5676 10.7722 -8.12401
379 1 16.1583 10.7722 12.5676 -8.15524
380 1 14.363 12.5676 12.5676 -8.15887
291 1 1.79537 14.363 8.97686 -8.44299
292 3 0 16.1583 8.97686 -6.30272
381 3 0 14.363 10.7722 -6.35659
382 2 1.79537 16.1583 10.7722 -6.95123
383 1 1.79537 14.363 12.5676 -8.29738
384 3 0 16.1583 12.5676 -6.29186
293 1 5.38611 14.363 8.97686 -8.21483
294 1 3.59074 16.1583 8.97686 -8.26784
385 2 3.59074 14.363 10.7722 -6.95927
386 1 5.38611 16.1583 10.7722 -8.17537
387 3 5.38611 14.363 12.5676 -6.34501
388 2 3.59074 16.1583 12.5676 -6.93027
295 1 8.97686 14.363 8.97686 -8.22102
296 1 7.18149 16.1583 8.97686 -8.30577
389 1 7.18149 14.363 10.7722 -8.19049
390 3 8.97686 16.1583 10.7722 -6.17107
391 1 8.97686 14.363 12.5676 -8.37007
392 2 7.18149 16.1583 12.5676 -6.90188
297 1 12.5676 14.363 8.97686 -8.41915
298 1 10.7722 16.1583 8.97686 -8.25741
393 1 10.7722 14.363 10.7722 -8.20263
394 2 12.5676 16.1583 10.7722 -7.05675
395 1 12.5676 14.363 12.5676 -8.39293
396 2 10.7722 16.1583 12.5676 -6.95704
299 3 16.1583 14.363 8.97686 -6.26814
300 3 14.363 16.1583 8.97686 -6.37706
397 2 14.363 14.363 10.7722 -7.00035
398 1 16.1583 16.1583 10.7722 -8.37021
399 1 16.1583 14.363 12.5676 -8.16148
400 2 14.363 16.1583 12.5676 -7.03466
401 3 0 0 14.363 -6.59223
402 2 1.79537 1.79537 14.363 -7.00039
403 1 1.79537 0 16.1583 -8.41481
404 2 0 1.79537 16.1583 -7.03161
405 3 3.59074 0 14.363 -6.54316
406 1 5.38611 1.79537 14.363 -8.36771
407 2 5.38611 0 16.1583 -6.95968
408 3 3.59074 1.79537 16.1583 -6.3128
409 2 7.18149 0 14.363 -6.98993
410 2 8.97686 1.79537 14.363 -6.9783
411 2 8.97686 0 16.1583 -6.98221
412 1 7.18149 1.79537 16.1583 -8.30538
413 2 10.7722 0 14.363 -7.07932
414 1 12.5676 1.79537 14.363 -8.45492
415 2 12.5676 0 16.1583 -6.97707
416 3 10.7722 1.79537 16.1583 -6.52865
417 1 14.363 0 14.363 -8.51951
418 2 16.1583 1.79537 14.363 -6.99585
419 2 16.1583 0 16.1583 -7.0887
420 3 14.363 1.79537 16.1583 -6.52558
421 1 0 3.59074 14.363 -8.19791
422 1 1.79537 5.38611 14.363 -8.26619
423 2 1.79537 3.59074 16.1583 -7.02629
424 2 0 5.38611 16.1583 -7.07072
425 1 3.59074 3.59074 14.363 -8.19178
426 1 5.38611 5.38611 14.363 -8.31048
427 3 5.38611 3.59074 16.1583 -6.20399
428 1 3.59074 5.38611 16.1583 -8.01724
429 1 7.18149 3.59074 14.363 -8.26549
430 2 8.97686 5.38611 14.363 -7.00623
431 1 8.97686 3.59074 16.1583 -8.40714
432 3 7.18149 5.38611 16.1583 -6.43418
433 2 10.7722 3.59074 14.363 -7.01048
434 1 12.5676 5.38611 14.363 -8.33503
435 3 12.5676 3.59074 16.1583 -6.43127
436 2 10.7722 5.38611 16.1583 -7.00949
437 3 14.363 3.59074 14.363 -6.33119
438 2 16.1583 5.38611 14.363 -6.89546
439 1 16.1583 3.59074 16.1583 -8.31524
440 1 14.363 5.38611 16.1583 -8.26027
441 3 0 7.18149 14.363 -6.56664
442 2 1.79537 8.97686 14.363 -6.97262
443 2 1.79537 7.18149 16.1583 -7.06535
444 3 0 8.97686 16.1583 -6.54791
445 2 3.59074 7.18149 14.363 -7.03909
446 3 5.38611 8.97686 14.363 -6.56146
447 2 5.38611 7.18149 16.1583 -6.95209
448 1 3.59074 8.97686 16.1583 -8.38826
449 2 7.18149 7.18149 14.363 -6.95979
450 1 8.97686 8.97686 14.363 -8.43989
451 3 8.97686 7.18149 16.1583 -6.44562
452 3 7.18149 8.97686 16.1583 -6.32661
453 2 10.7722 7.18149 14.363 -7.07933
454 1 12.5676 8.97686 14.363 -8.13892
455 2 12.5676 7.18149 16.1583 -6.98945
456 3 10.7722 8.97686 16.1583 -6.22897
457 2 14.363 7.18149 14.363 -7.09877
458 1 16.1583 8.97686 14.363 -8.33027
459 3 16.1583 7.18149 16.1583 -6.38295
460 2 14.363 8.97686 16.1583 -6.98966
461 1 0 10.7722 14.363 -8.18795
462 1 1.79537 12.5676 14.363 -8.32536
463 3 1.79537 10.7722 16.1583 -6.32959
464 2 0 12.5676 16.1583 -6.96705
465 3 3.59074 10.7722 14.363 -6.41542
466 1 5.38611 12.5676 14.363 -8.47369
467 1 5.38611 10.7722 16.1583 -8.22049
468 2 3.59074 12.5676 16.1583 -6.92041
469 3 7.18149 10.7722 14.363 -6.30095
470 1 8.97686 12.5676 14.363 -8.46571
471 3 8.97686 10.7722 16.1583 -6.27056
472 3 7.18149 12.5676 16.1583 -6.33116
473 2 10.7722 10.7722 14.363 -6.92856
474 3 12.5676 12.5676 14.363 -6.30317
475 1 12.5676 10.7722 16.1583 -8.27399
476 3 10.7722 12.5676 16.1583 -6.36205
477 3 14.363 10.7722 14.363 -6.17469
478 3 16.1583 12.5676 14.363 -6.25773
479 1 16.1583 10.7722 16.1583 -8.33139
480 2 14.363 12.5676 16.1583 -6.97763
481 2 0 14.363 14.363 -6.93024
482 1 1.79537 16.1583 14.363 -8.22205
483 3 1.79537 14.363 16.1583 -6.24289
484 1 0 16.1583 16.1583 -8.12469
485 3 3.59074 14.363 14.363 -6.29697
486 1 5.38611 16.1583 14.363 -8.55619
487 3 5.38611 14.363 16.1583 -6.33058
488 3 3.59074 16.1583 16.1583 -6.24822
489 3 7.18149 14.363 14.363 -6.43778
490 3 8.97686 16.1583 14.363 -6.56087
491 2 8.97686 14.363 16.1583 -7.00248
492 2 7.18149 16.1583 16.1583 -7.02085
493 3 10.7722 14.363 14.363 -6.43202
494 2 12.5676 16.1583 14.363 -7.04356
495 1 12.5676 14.363 16.1583 -8.43289
496 2 10.7722 16.1583 16.1583 -7.07707
497 2 14.363 14.363 14.363 -7.05064
498 2 16.1583 16.1583 14.363 -7.05095
499 3 16.1583 14.363 16.1583 -6.57163
500 2 14.363 16.1583 16.1583 -7.04136
501 2 0 0 17.9537 -7.10243
502 1 1.79537 1.79537 17.9537 -8.11237
503 1 1.79537 0 19.7491 -7.98349
504 1 0 1.79537 19.7491 -8.13064
601 2 0 0 21.5445 -6.99476
602 2 1.79537 1.79537 21.5445 -6.98187
505 1 3.59074 0 17.9537 -8.05245
506 2 5.38611 1.79537 17.9537 -6.93467
507 1 5.38611 0 19.7491 -8.05821
508 3 3.59074 1.79537 19.7491 -6.22142
605 1 3.59074 0 21.5445 -8.13761
606 2 5.38611 1.79537 21.5445 -6.96009
509 3 7.18149 0 17.9537 -6.26648
510 3 8.97686 1.79537 17.9537 -6.36508
511 3 8.97686 0 19.7491 -6.26375
512 1 7.18149 1.79537 19.7491 -8.43232
609 3 7.18149 0 21.5445 -6.26696
610 3 8.97686 1.79537 21.5445 -6.33809
513 1 10.7722 0 17.9537 -8.31798
514 3 12.5676 1.79537 17.9537 -6.52866
515 1 12.5676 0 19.7491 -8.38558
516 1 10.7722 1.79537 19.7491 -8.32045
613 2 10.7722 0 21.5445 -6.92027
614 2 12.5676 1.79537 21.5445 -6.98814
517 2 14.363 0 17.9537 -7.01214
518 2 16.1583 1.79537 17.9537 -7.01661
519 1 16.1583 0 19.7491 -8.35247
520 3 14.363 1.79537 19.7491 -6.41598
617 3 14.363 0 21.5445 -6.30647
618 2 16.1583 1.79537 21.5445 -7.00803
521 3 0 3.59074 17.9537 -6.46645
522 1 1.79537 5.38611 17.9537 -8.30459
523 1 1.79537 3.59074 19.7491 -8.13267
524 2 0 5.38611 19.7491 -7.02377
621 3 0 3.59074 21.5445 -6.43218
622 2 1.79537 5.38611 21.5445 -7.00232
525 1 3.59074 3.59074 17.9537 -8.14879
526 1 5.38611 5.38611 17.9537 -8.3946
527 2 5.38611 3.59074 19.7491 -6.99237
528 3 3.59074 5.38611 19.7491 -6.35403
625 1 3.59074 3.59074 21.5445 -8.25892
626 2 5.38611 5.38611 21.5445 -6.90117
529 3 7.18149 3.59074 17.9537 -6.35391
530 3 8.97686 5.38611 17.9537 -6.41148
531 2 8.97686 3.59074 19.7491 -6.95947
532 1 7.18149 5.38611 19.7491 -8.26716
629 1 7.18149 3.59074 21.5445 -8.32312
630 1 8.97686 5.38611 21.5445 -8.13447
533 2 10.7722 3.59074 17.9537 -6.9384
534 1 12.5676 5.38611 17.9537 -8.22569
535 2 12.5676 3.59074 19.7491 -6.96656
536 1 10.7722 5.38611 19.7491 -8.22324
633 1 10.7722 3.59074 21.5445 -8.28515
634 3 12.5676 5.38611 21.5445 -6.33868
537 3 14.363 3.59074 17.9537 -6.37441
538 1 16.1583 5.38611 17.9537 -8.0662
539 1 16.1583 3.59074 19.7491 -8.11328
540 2 14.363 5.38611 19.7491 -6.95334
637 1 14.363 3.59074 21.5445 -8.15703
638 1 16.1583 5.38611 21.5445 -7.89268
541 2 0 7.18149 17.9537 -7.12607
542 3 1.79537 8.97686 17.9537 -6.55386
543 3 1.79537 7.18149 19.7491 -6.55416
544 2 0 8.97686 19.7491 -7.05585
641 1 0 7.18149 21.5445 -8.49729
642 2 1.79537 8.97686 21.5445 -7.11222
545 3 3.59074 7.18149 17.9537 -6.4174
546 1 5.38611 8.97686 17.9537 -8.35138
547 2 5.38611 7.18149 19.7491 -6.97089
548 2 3.59074 8.97686 19.7491 -6.99994
645 1 3.59074 7.18149 21.5445 -8.48116
646 3 5.38611 8.97686 21.5445 -6.45439
549 3 7.18149 7.18149 17.9537 -6.35996
550 1 8.97686 8.97686 17.9537 -8.45409
551 3 8.97686 7.18149 19.7491 -6.20479
552 3 7.18149 8.97686 19.7491 -6.30177
649 1 7.18149 7.18149 21.5445 -8.52066
650 3 8.97686 8.97686 21.5445 -6.38435
553 1 10.7722 7.18149 17.9537 -8.23465
554 1 12.5676 8.97686 17.9537 -8.20781
555 1 12.5676 7.18149 19.7491 -8.30796
556 3 10.7722 8.97686 19.7491 -6.38365
653 3 10.7722 7.18149 21.5445 -6.32403
654 2 12.5676 8.97686 21.5445 -7.00856
557 3 14.363 7.18149 17.9537 -6.32352
558 3 16.1583 8.97686 17.9537 -6.46826
559 1 16.1583 7.18149 19.7491 -8.17179
560 2 14.363 8.97686 19.7491 -7.04959
657 2 14.363 7.18149 21.5445 -7.03704
658 3 16.1583 8.97686 21.5445 -6.46949
561 1 0 10.7722 17.9537 -8.36546
562 1 1.79537 12.5676 17.9537 -8.20878
563 2 1.79537 10.7722 19.7491 -7.09693
564 1 0 12.5676 19.7491 -8.21131
661 3 0 10.7722 21.5445 -6.57654
662 3 1.79537 12.5676 21.5445 -6.62822
565 1 3.59074 10.7722 17.9537 -8.23294
566 2 5.38611 12.5676 17.9537 -6.85028
567 3 5.38611 10.7722 19.7491 -6.42996
568 2 3.59074 12.5676 19.7491 -7.04905
665 2 3.59074 10.7722 21.5445 -7.12659
666 2 5.38611 12.5676 21.5445 -7.0416
569 1 7.18149 10.7722 17.9537 -8.43847
570 3 8.97686 12.5676 17.9537 -6.45339
571 3 8.97686 10.7722 19.7491 -6.37672
572 3 7.18149 12.5676 19.7491 -6.45038
669 1 7.18149 10.7722 21.5445 -8.63622
670 2 8.97686 12.5676 21.5445 -7.01847
573 1 10.7722 10.7722 17.9537 -8.34065
574 1 12.5676 12.5676 17.9537 -8.01191
575 2 12.5676 10.7722 19.7491 -7.02699
576 2 10.7722 12.5676 19.7491 -7.04658
673 3 10.7722 10.7722 21.5445 -6.61208
674 2 12.5676 12.5676 21.5445 -7.07242
577 2 14.363 10.7722 17.9537 -7.0692
578 1 16.1583 12.5676 17.9537 -8.25414
579 2 16.1583 10.7722 19.7491 -7.04219
580 1 14.363 12.5676 19.7491 -8.10768
677 1 14.363 10.7722 21.5445 -8.30314
678 2 16.1583 12.5676 21.5445 -7.0135
581 2 0 14.363 17.9537 -6.97033
582 1 1.79537 16.1583 17.9537 -8.18524
583 3 1.79537 14.363 19.7491 -6.26953
584 1 0 16.1583 19.7491 -8.25855
681 1 0 14.363 21.5445 -8.13207
682 1 1.79537 16.1583 21.5445 -8.10555
585 1 3.59074 14.363 17.9537 -8.21914
586 1 5.38611 16.1583 17.9537 -8.30479
587 1 5.38611 14.363 19.7491 -8.16614
588 1 3.59074 16.1583 19.7491 -8.17846
685 2 3.59074 14.363 21.5445 -7.07348
686 2 5.38611 16.1583 21.5445 -6.98318
589 1 7.18149 14.363 17.9537 -8.40024
590 2 8.97686 16.1583 17.9537 -7.10908
591 2 8.97686 14.363 19.7491 -7.06809
592 2 7.18149 16.1583 19.7491 -7.00043
689 3 7.18149 14.363 21.5445 -6.57347
690 2 8.97686 16.1583 21.5445 -7.06288
593 2 10.7722 14.363 17.9537 -7.04408
594 3 12.5676 16.1583 17.9537 -6.3969
595 1 12.5676 14.363 19.7491 -8.19652
596 1 10.7722 16.1583 19.7491 -8.22228
693 3 10.7722 14.363 21.5445 -6.50311
694 3 12.5676 16.1583 21.5445 -6.25967
597 2 14.363 14.363 17.9537 -7.10033
598 2 16.1583 16.1583 17.9537 -7.05083
599 2 16.1583 14.363 19.7491 -7.06048
600 1 14.363 16.1583 19.7491 -8.19265
697 2 14.363 14.363 21.5445 -7.02144
698 2 16.1583 16.1583 21.5445 -7.03292
603 2 1.79537 0 23.3398 -7.03291
604 3 0 1.79537 23.3398 -6.39816
701 3 0 0 25.1352 -6.42366
702 1 1.79537 1.79537 25.1352 -8.27413
607 1 5.38611 0 23.3398 -8.31162
608 2 3.59074 1.79537 23.3398 -7.01467
703 2 3.59074 0 25.1352 -7.10144
704 1 5.38611 1.79537 25.1352 -8.31156
611 1 8.97686 0 23.3398 -8.37695
612 3 7.18149 1.79537 23.3398 -6.31207
705 3 7.18149 0 25.1352 -6.32443
706 1 8.97686 1.79537 25.1352 -8.45792
615 1 12.5676 0 23.3398 -8.27683
616 3 10.7722 1.79537 23.3398 -6.34802
707 2 10.7722 0 25.1352 -6.85937
708 1 12.5676 1.79537 25.1352 -8.38895
619 3 16.1583 0 23.3398 -6.24206
620 1 14.363 1.79537 23.3398 -8.24701
709 1 14.363 0 25.1352 -7.99629
710 3 16.1583 1.79537 25.1352 -6.35371
623 1 1.79537 3.59074 23.3398 -8.22586
624 2 0 5.38611 23.3398 -7.07503
711 3 0 3.59074 25.1352 -6.44856
712 1 1.79537 5.38611 25.1352 -8.30824
627 3 5.38611 3.59074 23.3398 -6.34263
628 1 3.59074 5.38611 23.3398 -8.13673
713 3 3.59074 3.59074 25.1352 -6.14873
714 1 5.38611 5.38611 25.1352 -8.34397
631 3 8.97686 3.59074 23.3398 -6.34028
632 2 7.18149 5.38611 23.3398 -6.88423
715 3 7.18149 3.59074 25.1352 -6.31263
716 2 8.97686 5.38611 25.1352 -6.91628
635 2 12.5676 3.59074 23.3398 -6.97845
636 1 10.7722 5.38611 23.3398 -8.50665
717 3 10.7722 3.59074 25.1352 -6.37276
718 2 12.5676 5.38611 25.1352 -6.90889
639 2 16.1583 3.59074 23.3398 -7.00842
640 1 14.363 5.38611 23.3398 -8.38589
719 3 14.363 3.59074 25.1352 -6.33636
720 2 16.1583 5.38611 25.1352 -7.02692
643 2 1.79537 7.18149 23.3398 -7.0515
644 3 0 8.97686 23.3398 -6.58402
721 2 0 7.18149 25.1352 -6.99726
722 2 1.79537 8.97686 25.1352 -6.93782
647 3 5.38611 7.18149 23.3398 -6.3485
648 3 3.59074 8.97686 23.3398 -6.5683
723 3 3.59074 7.18149 25.1352 -6.2656
724 1 5.38611 8.97686 25.1352 -8.46229
651 3 8.97686 7.18149 23.3398 -6.37612
652 3 7.18149 8.97686 23.3398 -6.40973
725 3 7.18149 7.18149 25.1352 -6.41559
726 3 8.97686 8.97686 25.1352 -6.32952
655 3 12.5676 7.18149 23.3398 -6.42391
656 1 10.7722 8.97686 23.3398 -8.52575
727 3 10.7722 7.18149 25.1352 -6.37948
728 1 12.5676 8.97686 25.1352 -8.32042
659 2 16.1583 7.18149 23.3398 -7.13477
660 2 14.363 8.97686 23.3398 -7.07383
729 2 14.363 7.18149 25.1352 -7.10641
730 2 16.1583 8.97686 25.1352 -7.13023
663 2 1.79537 10.7722 23.3398 -7.07711
664 2 0 12.5676 23.3398 -6.96882
731 3 0 10.7722 25.1352 -6.42186
732 1 1.79537 12.5676 25.1352 -8.23227
667 3 5.38611 10.7722 23.3398 -6.51445
668 2 3.59074 12.5676 23.3398 -7.09577
733 3 3.59074 10.7722 25.1352 -6.39245
734 2 5.38611 12.5676 25.1352 -6.93575
671 3 8.97686 10.7722 23.3398 -6.34523
672 1 7.18149 12.5676 23.3398 -8.54748
735 3 7.18149 10.7722 25.1352 -6.31102
736 3 8.97686 12.5676 25.1352 -6.29898
675 2 12.5676 10.7722 23.3398 -6.99676
676 3 10.7722 12.5676 23.3398 -6.53921
737 1 10.7722 10.7722 25.1352 -8.28109
738 2 12.5676 12.5676 25.1352 -6.96384
679 3 16.1583 10.7722 23.3398 -6.54026
680 1 14.363 12.5676 23.3398 -8.32479
739 3 14.363 10.7722 25.1352 -6.55423
740 2 16.1583 12.5676 25.1352 -6.94119
683 2 1.79537 14.363 23.3398 -7.02646
684 2 0 16.1583 23.3398 -6.99102
741 1 0 14.363 25.1352 -8.23718
742 3 1.79537 16.1583 25.1352 -6.46111
687 3 5.38611 14.363 23.3398 -6.60592
688 2 3.59074 16.1583 23.3398 -7.02202
743 3 3.59074 14.363 25.1352 -6.51147
744 3 5.38611 16.1583 25.1352 -6.51987
691 2 8.97686 14.363 23.3398 -6.9813
692 1 7.18149 16.1583 23.3398 -8.35921
745 2 7.18149 14.363 25.1352 -6.91825
746 1 8.97686 16.1583 25.1352 -8.24914
695 1 12.5676 14.363 23.3398 -8.22223
696 3 10.7722 16.1583 23.3398 -6.33744
747 1 10.7722 14.363 25.1352 -8.1977
748 1 12.5676 16.1583 25.1352 -8.29417
699 3 16.1583 14.363 23.3398 -6.40881
700 1 14.363 16.1583 23.3398 -8.28798
749 2 14.363 14.363 25.1352 -6.96993
750 1 16.1583 16.1583 25.1352 -8.50071
751 2 1.79537 0 26.9306 -7.00681
752 1 0 1.79537 26.9306 -8.36472
801 3 0 0 28.7259 -6.40323
802 3 1.79537 1.79537 28.7259 -6.48001
803 1 1.79537 0 30.5213 -8.43489
804 2 0 1.79537 30.5213 -6.9453
753 2 5.38611 0 26.9306 -6.95838
754 1 3.59074 1.79537 26.9306 -8.27981
805 2 3.59074 0 28.7259 -7.07021
806 2 5.38611 1.79537 28.7259 -6.98952
807 1 5.38611 0 30.5213 -8.43238
808 3 3.59074 1.79537 30.5213 -6.44054
755 3 8.97686 0 26.9306 -6.42213
756 1 7.18149 1.79537 26.9306 -8.27065
809 3 7.18149 0 28.7259 -6.40025
810 3 8.97686 1.79537 28.7259 -6.2768
811 1 8.97686 0 30.5213 -8.58155
812 1 7.18149 1.79537 30.5213 -8.25001
757 1 12.5676 0 26.9306 -8.36851
758 3 10.7722 1.79537 26.9306 -6.22724
813 3 10.7722 0 28.7259 -6.29709
814 1 12.5676 1.79537 28.7259 -8.27246
815 1 12.5676 0 30.5213 -8.42254
816 3 10.7722 1.79537 30.5213 -6.33741
759 1 16.1583 0 26.9306 -8.2272
760 2 14.363 1.79537 26.9306 -6.91454
817 3 14.363 0 28.7259 -6.21517
818 1 16.1583 1.79537 28.7259 -8.17801
819 1 16.1583 0 30.5213 -8.4659
820 1 14.363 1.79537 30.5213 -8.25405
761 3 1.79537 3.59074 26.9306 -6.31042
762 1 0 5.38611 26.9306 -8.51491
821 2 0 3.59074 28.7259 -7.04269
822 2 1.79537 5.38611 28.7259 -7.01359
823 1 1.79537 3.59074 30.5213 -8.51087
824 2 0 5.38611 30.5213 -6.97525
763 1 5.38611 3.59074 26.9306 -8.03348
764 1 3.59074 5.38611 26.9306 -8.24354
825 2 3.59074 3.59074 28.7259 -7.07849
826 1 5.38611 5.38611 28.7259 -8.23798
827 1 5.38611 3.59074 30.5213 -8.27868
828 2 3.59074 5.38611 30.5213 -6.97632
765 1 8.97686 3.59074 26.9306 -8.26254
766 2 7.18149 5.38611 26.9306 -6.97428
829 2 7.18149 3.59074 28.7259 -7.03616
830 1 8.97686 5.38611 28.7259 -8.1585
831 1 8.97686 3.59074 30.5213 -8.1867
832 3 7.18149 5.38611 30.5213 -6.32132
767 3 12.5676 3.59074 26.9306 -6.37856
768 3 10.7722 5.38611 26.9306 -6.37847
833 1 10.7722 3.59074 28.7259 -8.26979
834 3 12.5676 5.38611 28.7259 -6.31683
835 3 12.5676 3.59074 30.5213 -6.37471
836 1 10.7722 5.38611 30.5213 -7.94941
769 1 16.1583 3.59074 26.9306 -8.2422
770 1 14.363 5.38611 26.9306 -8.23261