ITEM: TIMESTEP
0
ITEM: NUMBER OF ATOMS
4000
ITEM: BOX BOUNDS pp pp pp
0.0000000000000000e+00 3.5848190000000002e+01
0.0000000000000000e+00 3.5848190000000002e+01
0.0000000000000000e+00 3.5848190000000002e+01
ITEM: ATOMS id type x y z c_peratom
1 3 0 0 0 -6.53847
2 2 1.79241 1.79241 0 -7.03251
3 2 1.79241 0 1.79241 -7.13386
4 1 0 1.79241 1.79241 -8.37478
101 2 0 0 3.58482 -7.03784
102 1 1.79241 1.79241 3.58482 -8.3
5 2 3.58482 0 0 -7.12074
6 1 5.37723 1.79241 0 -8.26095
7 3 5.37723 0 1.79241 -6.58838
8 2 3.58482 1.79241 1.79241 -7.03645
105 3 3.58482 0 3.58482 -6.52405
106 2 5.37723 1.79241 3.58482 -6.99961
9 2 7.16964 0 0 -7.00042
10 1 8.96205 1.79241 0 -8.48445
11 1 8.96205 0 1.79241 -8.38514
12 2 7.16964 1.79241 1.79241 -6.93737
109 3 7.16964 0 3.58482 -6.39635
110 2 8.96205 1.79241 3.58482 -6.91158
13 3 10.7545 0 0 -6.46777
14 2 12.5469 1.79241 0 -7.09649
15 2 12.5469 0 1.79241 -6.96726
16 3 10.7545 1.79241 1.79241 -6.56859
113 3 10.7545 0 3.58482 -6.38652
114 3 12.5469 1.79241 3.58482 -6.59174
17 2 14.3393 0 0 -7.04771
18 2 16.1317 1.79241 0 -7.09016
19 3 16.1317 0 1.79241 -6.69516
20 3 14.3393 1.79241 1.79241 -6.73258
117 2 14.3393 0 3.58482 -7.06832
118 2 16.1317 1.79241 3.58482 -7.03946
21 2 0 3.58482 0 -7.01377
22 2 1.79241 5.37723 0 -6.98936
23 2 1.79241 3.58482 1.79241 -7.04389
24 1 0 5.37723 1.79241 -8.67313
121 3 0 3.58482 3.58482 -6.3043
122 2 1.79241 5.37723 3.58482 -6.91444
25 1 3.58482 3.58482 0 -8.20776
26 2 5.37723 5.37723 0 -6.99449
27 2 5.37723 3.58482 1.79241 -7.01997
28 3 3.58482 5.37723 1.79241 -6.66033
125 3 3.58482 3.58482 3.58482 -6.5337
126 2 5.37723 5.37723 3.58482 -6.97949
29 3 7.16964 3.58482 0 -6.46907
30 3 8.96205 5.37723 0 -6.4967
31 3 8.96205 3.58482 1.79241 -6.5507
32 3 7.16964 5.37723 1.79241 -6.55226
129 1 7.16964 3.58482 3.58482 -8.36798
130 3 8.96205 5.37723 3.58482 -6.43003
33 3 10.7545 3.58482 0 -6.65452
34 2 12.5469 5.37723 0 -7.0271
35 3 12.5469 3.58482 1.79241 -6.68538
36 2 10.7545 5.37723 1.79241 -6.94049
133 3 10.7545 3.58482 3.58482 -6.46774
134 1 12.5469 5.37723 3.58482 -8.58166
37 2 14.3393 3.58482 0 -7.13322
38 3 16.1317 5.37723 0 -6.68395
39 1 16.1317 3.58482 1.79241 -8.48316
40 2 14.3393 5.37723 1.79241 -7.04446
137 3 14.3393 3.58482 3.58482 -6.58123
138 2 16.1317 5.37723 3.58482 -6.95007
41 3 0 7.16964 0 -6.333
42 3 1.79241 8.96205 0 -6.27752
43 3 1.79241 7.16964 1.79241 -6.53741
44 1 0 8.96205 1.79241 -8.52346
141 3 0 7.16964 3.58482 -6.40024
142 2 1.79241 8.96205 3.58482 -6.8691
45 3 3.58482 7.16964 0 -6.50821
46 3 5.37723 8.96205 0 -6.39927
47 2 5.37723 7.16964 1.79241 -7.00947
48 3 3.58482 8.96205 1.79241 -6.48193
145 3 3.58482 7.16964 3.58482 -6.55485
146 3 5.37723 8.96205 3.58482 -6.58608
49 3 7.16964 7.16964 0 -6.47637
50 2 8.96205 8.96205 0 -6.99652
51 1 8.96205 7.16964 1.79241 -8.59513
52 2 7.16964 8.96205 1.79241 -7.01181
149 3 7.16964 7.16964 3.58482 -6.57134
150 3 8.96205 8.96205 3.58482 -6.6191
53 1 10.7545 7.16964 0 -8.13483
54 1 12.5469 8.96205 0 -8.23943
55 2 12.5469 7.16964 1.79241 -6.98892
56 2 10.7545 8.96205 1.79241 -7.0197
153 3 10.7545 7.16964 3.58482 -6.51177
154 1 12.5469 8.96205 3.58482 -8.45237
57 3 14.3393 7.16964 0 -6.60957
58 2 16.1317 8.96205 0 -6.99692
59 3 16.1317 7.16964 1.79241 -6.50974
60 3 14.3393 8.96205 1.79241 -6.39662
157 2 14.3393 7.16964 3.58482 -6.99974
158 1 16.1317 8.96205 3.58482 -8.40646
61 3 0 10.7545 0 -6.30962
62 1 1.79241 12.5469 0 -8.03643
63 1 1.79241 10.7545 1.79241 -8.2653
64 2 0 12.5469 1.79241 -6.96548
161 3 0 10.7545 3.58482 -6.49199
162 3 1.79241 12.5469 3.58482 -6.43442
65 1 3.58482 10.7545 0 -8.15316
66 1 5.37723 12.5469 0 -7.94853
67 2 5.37723 10.7545 1.79241 -6.97372
68 2 3.58482 12.5469 1.79241 -7.0178
165 1 3.58482 10.7545 3.58482 -8.3687
166 2 5.37723 12.5469 3.58482 -7.05901
69 1 7.16964 10.7545 0 -8.09216
70 2 8.96205 12.5469 0 -7.05752
71 1 8.96205 10.7545 1.79241 -8.24785
72 1 7.16964 12.5469 1.79241 -7.96751
169 2 7.16964 10.7545 3.58482 -7.07741
170 1 8.96205 12.5469 3.58482 -8.11109
73 2 10.7545 10.7545 0 -7.01409
74 1 12.5469 12.5469 0 -8.22625
75 2 12.5469 10.7545 1.79241 -7.06775
76 1 10.7545 12.5469 1.79241 -8.07035
173 3 10.7545 10.7545 3.58482 -6.45718
174 1 12.5469 12.5469 3.58482 -8.00342
77 1 14.3393 10.7545 0 -8.21438
78 3 16.1317 12.5469 0 -6.3416
79 3 16.1317 10.7545 1.79241 -6.26897
80 1 14.3393 12.5469 1.79241 -8.05257
177 1 14.3393 10.7545 3.58482 -8.10668
178 2 16.1317 12.5469 3.58482 -6.95918
81 1 0 14.3393 0 -8.02152
82 2 1.79241 16.1317 0 -6.97502
83 3 1.79241 14.3393 1.79241 -6.25341
84 1 0 16.1317 1.79241 -8.20102
181 1 0 14.3393 3.58482 -8.2737
182 1 1.79241 16.1317 3.58482 -8.0989
85 1 3.58482 14.3393 0 -7.9868
86 2 5.37723 16.1317 0 -6.92294
87 1 5.37723 14.3393 1.79241 -8.03621
88 1 3.58482 16.1317 1.79241 -8.25133
185 3 3.58482 14.3393 3.58482 -6.53515
186 2 5.37723 16.1317 3.58482 -6.91717
89 1 7.16964 14.3393 0 -8.02847
90 1 8.96205 16.1317 0 -8.07876
91 2 8.96205 14.3393 1.79241 -7.07287
92 3 7.16964 16.1317 1.79241 -6.20529
189 1 7.16964 14.3393 3.58482 -8.10852
190 1 8.96205 16.1317 3.58482 -8.06542
93 2 10.7545 14.3393 0 -6.94641
94 3 12.5469 16.1317 0 -6.33558
95 2 12.5469 14.3393 1.79241 -7.08749
96 1 10.7545 16.1317 1.79241 -8.0117
193 1 10.7545 14.3393 3.58482 -7.98571
194 2 12.5469 16.1317 3.58482 -7.05464
97 1 14.3393 14.3393 0 -8.37945
98 3 16.1317 16.1317 0 -6.70511
99 2 16.1317 14.3393 1.79241 -7.08183
100 2 14.3393 16.1317 1.79241 -7.07866
197 1 14.3393 14.3393 3.58482 -8.11858
198 2 16.1317 16.1317 3.58482 -7.08969
103 3 1.79241 0 5.37723 -6.19309
104 1 0 1.79241 5.37723 -8.11417
201 2 0 0 7.16964 -7.00492
202 1 1.79241 1.79241 7.16964 -8.20809
107 2 5.37723 0 5.37723 -7.01632
108 1 3.58482 1.79241 5.37723 -8.32094
203 1 3.58482 0 7.16964 -8.08278
204 2 5.37723 1.79241 7.16964 -6.90589
111 1 8.96205 0 5.37723 -8.37231
112 1 7.16964 1.79241 5.37723 -8.27699
205 1 7.16964 0 7.16964 -8.18234
206 3 8.96205 1.79241 7.16964 -6.35409
115 1 12.5469 0 5.37723 -8.65327
116 3 10.7545 1.79241 5.37723 -6.40492
207 2 10.7545 0 7.16964 -6.86256
208 3 12.5469 1.79241 7.16964 -6.43211
119 2 16.1317 0 5.37723 -7.07163
120 3 14.3393 1.79241 5.37723 -6.62611
209 1 14.3393 0 7.16964 -8.36597
210 2 16.1317 1.79241 7.16964 -7.07704
123 1 1.79241 3.58482 5.37723 -8.1354
124 1 0 5.37723 5.37723 -8.22976
211 2 0 3.58482 7.16964 -7.04022
212 1 1.79241 5.37723 7.16964 -8.4087
127 3 5.37723 3.58482 5.37723 -6.41948
128 3 3.58482 5.37723 5.37723 -6.35993
213 3 3.58482 3.58482 7.16964 -6.212
214 1 5.37723 5.37723 7.16964 -8.45836
131 1 8.96205 3.58482 5.37723 -8.27899
132 2 7.16964 5.37723 5.37723 -6.8801
215 3 7.16964 3.58482 7.16964 -6.42783
216 1 8.96205 5.37723 7.16964 -8.35422
135 3 12.5469 3.58482 5.37723 -6.49952
136 1 10.7545 5.37723 5.37723 -8.3154
217 2 10.7545 3.58482 7.16964 -6.90777
218 1 12.5469 5.37723 7.16964 -8.5838
139 3 16.1317 3.58482 5.37723 -6.67678
140 3 14.3393 5.37723 5.37723 -6.60477
219 3 14.3393 3.58482 7.16964 -6.61624
220 2 16.1317 5.37723 7.16964 -7.10751
143 1 1.79241 7.16964 5.37723 -8.52678
144 3 0 8.96205 5.37723 -6.38788
221 3 0 7.16964 7.16964 -6.34439
222 2 1.79241 8.96205 7.16964 -6.89612
147 1 5.37723 7.16964 5.37723 -8.42991
148 3 3.58482 8.96205 5.37723 -6.38484
223 2 3.58482 7.16964 7.16964 -6.95453
224 1 5.37723 8.96205 7.16964 -8.21471
151 3 8.96205 7.16964 5.37723 -6.50502
152 2 7.16964 8.96205 5.37723 -7.03775
225 1 7.16964 7.16964 7.16964 -8.36516
226 3 8.96205 8.96205 7.16964 -6.53603
155 2 12.5469 7.16964 5.37723 -7.07572
156 2 10.7545 8.96205 5.37723 -7.09036
227 2 10.7545 7.16964 7.16964 -7.00613
228 2 12.5469 8.96205 7.16964 -7.10878
159 3 16.1317 7.16964 5.37723 -6.51762
160 2 14.3393 8.96205 5.37723 -7.04501
229 2 14.3393 7.16964 7.16964 -7.09363
230 1 16.1317 8.96205 7.16964 -8.49147
163 1 1.79241 10.7545 5.37723 -8.50383
164 2 0 12.5469 5.37723 -6.98114
231 1 0 10.7545 7.16964 -8.37189
232 3 1.79241 12.5469 7.16964 -6.57303
167 2 5.37723 10.7545 5.37723 -7.04406
168 2 3.58482 12.5469 5.37723 -7.07666
233 3 3.58482 10.7545 7.16964 -6.55422
234 2 5.37723 12.5469 7.16964 -7.136
171 2 8.96205 10.7545 5.37723 -7.10105
172 2 7.16964 12.5469 5.37723 -7.0785
235 1 7.16964 10.7545 7.16964 -8.45665
236 2 8.96205 12.5469 7.16964 -7.11022
175 2 12.5469 10.7545 5.37723 -7.09034
176 2 10.7545 12.5469 5.37723 -7.05013
237 3 10.7545 10.7545 7.16964 -6.69601
238 3 12.5469 12.5469 7.16964 -6.48437
179 3 16.1317 10.7545 5.37723 -6.31326
180 1 14.3393 12.5469 5.37723 -8.11368
239 1 14.3393 10.7545 7.16964 -8.21277
240 2 16.1317 12.5469 7.16964 -6.84772
183 2 1.79241 14.3393 5.37723 -7.06706
184 1 0 16.1317 5.37723 -8.28586
241 2 0 14.3393 7.16964 -7.00783
242 2 1.79241 16.1317 7.16964 -7.06455
187 3 5.37723 14.3393 5.37723 -6.62571
188 2 3.58482 16.1317 5.37723 -7.02877
243 3 3.58482 14.3393 7.16964 -6.70033
244 3 5.37723 16.1317 7.16964 -6.63619
191 3 8.96205 14.3393 5.37723 -6.49549
192 1 7.16964 16.1317 5.37723 -8.38776
245 2 7.16964 14.3393 7.16964 -7.12078
246 2 8.96205 16.1317 7.16964 -7.0878
195 1 12.5469 14.3393 5.37723 -8.31299
196 2 10.7545 16.1317 5.37723 -7.04256
247 2 10.7545 14.3393 7.16964 -7.05417
248 3 12.5469 16.1317 7.16964 -6.42305
199 1 16.1317 14.3393 5.37723 -8.08109
200 3 14.3393 16.1317 5.37723 -6.38537
249 3 14.3393 14.3393 7.16964 -6.37364
250 1 16.1317 16.1317 7.16964 -8.54105
251 1 1.79241 0 8.96205 -8.1949
252 3 0 1.79241 8.96205 -6.48849
301 3 0 0 10.7545 -6.37679
302 2 1.79241 1.79241 10.7545 -6.90691
303 1 1.79241 0 12.5469 -8.27879
304 1 0 1.79241 12.5469 -8.28217
253 3 5.37723 0 8.96205 -6.30602
254 1 3.58482 1.79241 8.96205 -8.25788
305 3 3.58482 0 10.7545 -6.29421
306 2 5.37723 1.79241 10.7545 -6.96391
307 1 5.37723 0 12.5469 -8.49701
308 1 3.58482 1.79241 12.5469 -8.13061
255 3 8.96205 0 8.96205 -6.29618
256 3 7.16964 1.79241 8.96205 -6.51344
309 3 7.16964 0 10.7545 -6.38101
310 1 8.96205 1.79241 10.7545 -8.49453
311 3 8.96205 0 12.5469 -6.40381
312 3 7.16964 1.79241 12.5469 -6.46673
257 1 12.5469 0 8.96205 -8.19184
258 1 10.7545 1.79241 8.96205 -8.32205
313 2 10.7545 0 10.7545 -6.94781
314 2 12.5469 1.79241 10.7545 -6.94697
315 3 12.5469 0 12.5469 -6.45872
316 2 10.7545 1.79241 12.5469 -6.99756
259 2 16.1317 0 8.96205 -7.02112
260 3 14.3393 1.79241 8.96205 -6.45637
317 1 14.3393 0 10.7545 -8.45307
318 2 16.1317 1.79241 10.7545 -6.96684
319 3 16.1317 0 12.5469 -6.48477
320 2 14.3393 1.79241 12.5469 -7.03191
261 3 1.79241 3.58482 8.96205 -6.28485
262 3 0 5.37723 8.96205 -6.45838
321 3 0 3.58482 10.7545 -6.47514
322 1 1.79241 5.37723 10.7545 -8.38695
323 2 1.79241 3.58482 12.5469 -6.98189
324 1 0 5.37723 12.5469 -8.3061
263 2 5.37723 3.58482 8.96205 -7.04738
264 1 3.58482 5.37723 8.96205 -8.20951
325 1 3.58482 3.58482 10.7545 -8.21116
326 2 5.37723 5.37723 10.7545 -6.9408
327 3 5.37723 3.58482 12.5469 -6.40643
328 3 3.58482 5.37723 12.5469 -6.40917
265 2 8.96205 3.58482 8.96205 -6.97467
266 3 7.16964 5.37723 8.96205 -6.39365
329 2 7.16964 3.58482 10.7545 -6.96921
330 1 8.96205 5.37723 10.7545 -8.45221
331 2 8.96205 3.58482 12.5469 -7.02759
332 3 7.16964 5.37723 12.5469 -6.55612
267 3 12.5469 3.58482 8.96205 -6.37919
268 3 10.7545 5.37723 8.96205 -6.35863
333 1 10.7545 3.58482 10.7545 -8.17923
334 1 12.5469 5.37723 10.7545 -8.33344
335 1 12.5469 3.58482 12.5469 -8.08237
336 2 10.7545 5.37723 12.5469 -7.06854
269 2 16.1317 3.58482 8.96205 -7.07101
270 3 14.3393 5.37723 8.96205 -6.52968
337 1 14.3393 3.58482 10.7545 -8.31062
338 2 16.1317 5.37723 10.7545 -6.94752
339 1 16.1317 3.58482 12.5469 -8.27893
340 3 14.3393 5.37723 12.5469 -6.26628
271 3 1.79241 7.16964 8.96205 -6.42234
272 3 0 8.96205 8.96205 -6.50052
341 3 0 7.16964 10.7545 -6.36646
342 2 1.79241 8.96205 10.7545 -6.9988
343 1 1.79241 7.16964 12.5469 -8.11662
344 1 0 8.96205 12.5469 -8.32086
273 3 5.37723 7.16964 8.96205 -6.32646
274 1 3.58482 8.96205 8.96205 -8.45449
345 2 3.58482 7.16964 10.7545 -6.95001
346 3 5.37723 8.96205 10.7545 -6.3991
347 2 5.37723 7.16964 12.5469 -6.9556
348 1 3.58482 8.96205 12.5469 -8.15928
275 3 8.96205 7.16964 8.96205 -6.36091
276 3 7.16964 8.96205 8.96205 -6.30074
349 1 7.16964 7.16964 10.7545 -8.63218
350 2 8.96205 8.96205 10.7545 -6.92489
351 2 8.96205 7.16964 12.5469 -6.99376
352 3 7.16964 8.96205 12.5469 -6.42283
277 2 12.5469 7.16964 8.96205 -7.09671
278 1 10.7545 8.96205 8.96205 -8.46601
353 2 10.7545 7.16964 10.7545 -6.96864
354 2 12.5469 8.96205 10.7545 -7.00994
355 3 12.5469 7.16964 12.5469 -6.3896
356 1 10.7545 8.96205 12.5469 -8.30132
279 2 16.1317 7.16964 8.96205 -7.12693
280 2 14.3393 8.96205 8.96205 -7.02059
357 1 14.3393 7.16964 10.7545 -8.40789
358 3 16.1317 8.96205 10.7545 -6.46899
359 3 16.1317 7.16964 12.5469 -6.35955
360 1 14.3393 8.96205 12.5469 -8.64811
281 2 1.79241 10.7545 8.96205 -7.02054
282 2 0 12.5469 8.96205 -7.05572
361 3 0 10.7545 10.7545 -6.49437
362 2 1.79241 12.5469 10.7545 -7.02757
363 1 1.79241 10.7545 12.5469 -8.32546
364 3 0 12.5469 12.5469 -6.42859
283 2 5.37723 10.7545 8.96205 -7.0337
284 1 3.58482 12.5469 8.96205 -8.4447
365 2 3.58482 10.7545 10.7545 -7.01525
366 2 5.37723 12.5469 10.7545 -7.02501
367 1 5.37723 10.7545 12.5469 -8.4829
368 3 3.58482 12.5469 12.5469 -6.34324
285 3 8.96205 10.7545 8.96205 -6.39928
286 2 7.16964 12.5469 8.96205 -7.05186
369 1 7.16964 10.7545 10.7545 -8.39278
370 1 8.96205 12.5469 10.7545 -8.25465
371 1 8.96205 10.7545 12.5469 -8.2507
372 3 7.16964 12.5469 12.5469 -6.31469
287 2 12.5469 10.7545 8.96205 -6.98789
288 3 10.7545 12.5469 8.96205 -6.53283
373 1 10.7545 10.7545 10.7545 -8.26813
374 3 12.5469 12.5469 10.7545 -6.51865
375 2 12.5469 10.7545 12.5469 -7.00577
376 3 10.7545 12.5469 12.5469 -6.38135
289 3 16.1317 10.7545 8.96205 -6.37079
290 1 14.3393 12.5469 8.96205 -8.49581
377 3 14.3393 10.7545 10.7545 -6.49185
378 1 16.1317 12.5469 10.7545 -8.46853
379 3 16.1317 10.7545 12.5469 -6.34139
380 2 14.3393 12.5469 12.5469 -6.89299
291 2 1.79241 14.3393 8.96205 -7.06214
292 3 0 16.1317 8.96205 -6.55322
381 1 0 14.3393 10.7545 -8.30466
382 2 1.79241 16.1317 10.7545 -7.05829
383 1 1.79241 14.3393 12.5469 -8.25642
384 3 0 16.1317 12.5469 -6.57544
293 2 5.37723 14.3393 8.96205 -7.09772
294 1 3.58482 16.1317 8.96205 -8.43429
385 1 3.58482 14.3393 10.7545 -8.06628
386 2 5.37723 16.1317 10.7545 -7.04044
387 1 5.37723 14.3393 12.5469 -8.4222
388 1 3.58482 16.1317 12.5469 -8.22571
295 3 8.96205 14.3393 8.96205 -6.53215
296 2 7.16964 16.1317 8.96205 -7.06934
389 1 7.16964 14.3393 10.7545 -8.4333
390 3 8.96205 16.1317 10.7545 -6.35622
391 3 8.96205 14.3393 12.5469 -6.35464
392 3 7.16964 16.1317 12.5469 -6.32281
297 2 12.5469 14.3393 8.96205 -6.96312
298 1 10.7545 16.1317 8.96205 -8.36202
393 1 10.7545 14.3393 10.7545 -8.56894
394 2 12.5469 16.1317 10.7545 -6.99741
395 3 12.5469 14.3393 12.5469 -6.54035
396 3 10.7545 16.1317 12.5469 -6.33189
299 3 16.1317 14.3393 8.96205 -6.41677
300 2 14.3393 16.1317 8.96205 -6.92448
397 2 14.3393 14.3393 10.7545 -7.00466
398 1 16.1317 16.1317 10.7545 -8.61672
399 3 16.1317 14.3393 12.5469 -6.50813
400 3 14.3393 16.1317 12.5469 -6.52951
401 2 0 0 14.3393 -6.93865
402 2 1.79241 1.79241 14.3393 -7.0161
403 2 1.79241 0 16.1317 -7.03201
404 3 0 1.79241 16.1317 -6.54461
405 3 3.58482 0 14.3393 -6.49135
406 2 5.37723 1.79241 14.3393 -6.90104
407 2 5.37723 0 16.1317 -6.99448
408 3 3.58482 1.79241 16.1317 -6.45605
409 1 7.16964 0 14.3393 -8.62422
410 3 8.96205 1.79241 14.3393 -6.5389
411 3 8.96205 0 16.1317 -6.48873
412 3 7.16964 1.79241 16.1317 -6.523
413 3 10.7545 0 14.3393 -6.42918
414 1 12.5469 1.79241 14.3393 -8.34306
415 3 12.5469 0 16.1317 -6.36759
416 3 10.7545 1.79241 16.1317 -6.4419
417 1 14.3393 0 14.3393 -8.37958
418 2 16.1317 1.79241 14.3393 -6.95297
419 3 16.1317 0 16.1317 -6.43557
420 2 14.3393 1.79241 16.1317 -6.95444
421 1 0 3.58482 14.3393 -8.42128
422 2 1.79241 5.37723 14.3393 -7.00521
423 3 1.79241 3.58482 16.1317 -6.36154
424 2 0 5.37723 16.1317 -6.99392
425 1 3.58482 3.58482 14.3393 -8.45908
426 3 5.37723 5.37723 14.3393 -6.34934
427 3 5.37723 3.58482 16.1317 -6.32142
428 1 3.58482 5.37723 16.1317 -8.14723
429 1 7.16964 3.58482 14.3393 -8.59371
430 2 8.96205 5.37723 14.3393 -7.0056
431 2 8.96205 3.58482 16.1317 -6.90532
432 1 7.16964 5.37723 16.1317 -8.33963
433 2 10.7545 3.58482 14.3393 -7.02067
434 1 12.5469 5.37723 14.3393 -8.40642
435 1 12.5469 3.58482 16.1317 -8.1736
436 3 10.7545 5.37723 16.1317 -6.28536
437 3 14.3393 3.58482 14.3393 -6.33774
438 1 16.1317 5.37723 14.3393 -8.41382
439 2 16.1317 3.58482 16.1317 -7.08725
440 2 14.3393 5.37723 16.1317 -6.99121
441 2 0 7.16964 14.3393 -6.9965
442 3 1.79241 8.96205 14.3393 -6.20553
443 1 1.79241 7.16964 16.1317 -8.13422
444 1 0 8.96205 16.1317 -8.23292
445 1 3.58482 7.16964 14.3393 -8.18856
446 2 5.37723 8.96205 14.3393 -7.06761
447 2 5.37723 7.16964 16.1317 -6.99207
448 1 3.58482 8.96205 16.1317 -8.45298
449 3 7.16964 7.16964 14.3393 -6.54854
450 1 8.96205 8.96205 14.3393 -8.28674
451 1 8.96205 7.16964 16.1317 -8.25658
452 2 7.16964 8.96205 16.1317 -7.0708
453 3 10.7545 7.16964 14.3393 -6.40403
454 2 12.5469 8.96205 14.3393 -6.92599
455 1 12.5469 7.16964 16.1317 -8.21744
456 2 10.7545 8.96205 16.1317 -7.00445
457 3 14.3393 7.16964 14.3393 -6.32726
458 3 16.1317 8.96205 14.3393 -6.32272
459 1 16.1317 7.16964 16.1317 -8.40158
460 1 14.3393 8.96205 16.1317 -8.51535
461 3 0 10.7545 14.3393 -6.24067
462 1 1.79241 12.5469 14.3393 -8.31183
463 3 1.79241 10.7545 16.1317 -6.36598
464 2 0 12.5469 16.1317 -7.01372
465 2 3.58482 10.7545 14.3393 -7.00718
466 3 5.37723 12.5469 14.3393 -6.4349
467 2 5.37723 10.7545 16.1317 -7.06623
468 2 3.58482 12.5469 16.1317 -7.05603
469 3 7.16964 10.7545 14.3393 -6.43943
470 3 8.96205 12.5469 14.3393 -6.4941
471 1 8.96205 10.7545 16.1317 -8.46196
472 2 7.16964 12.5469 16.1317 -6.9646
473 2 10.7545 10.7545 14.3393 -7.01089
474 1 12.5469 12.5469 14.3393 -8.59774
475 2 12.5469 10.7545 16.1317 -6.99379
476 3 10.7545 12.5469 16.1317 -6.47538
477 3 14.3393 10.7545 14.3393 -6.43545
478 1 16.1317 12.5469 14.3393 -8.54046
479 3 16.1317 10.7545 16.1317 -6.38361
480 3 14.3393 12.5469 16.1317 -6.51827
481 2 0 14.3393 14.3393 -6.99584
482 3 1.79241 16.1317 14.3393 -6.4369
483 1 1.79241 14.3393 16.1317 -8.20687
484 1 0 16.1317 16.1317 -8.35978
485 2 3.58482 14.3393 14.3393 -6.89813
486 3 5.37723 16.1317 14.3393 -6.3325
487 1 5.37723 14.3393 16.1317 -8.60266
488 3 3.58482 16.1317 16.1317 -6.50466
489 3 7.16964 14.3393 14.3393 -6.42071
490 1 8.96205 16.1317 14.3393 -8.36511
491 2 8.96205 14.3393 16.1317 -6.94549
492 1 7.16964 16.1317 16.1317 -8.52634
493 2 10.7545 14.3393 14.3393 -6.91029
494 2 12.5469 16.1317 14.3393 -6.89218
495 1 12.5469 14.3393 16.1317 -8.4283
496 2 10.7545 16.1317 16.1317 -7.04111
497 3 14.3393 14.3393 14.3393 -6.50491
498 3 16.1317 16.1317 14.3393 -6.58595
499 2 16.1317 14.3393 16.1317 -6.91508
500 3 14.3393 16.1317 16.1317 -6.37185
501 2 0 0 17.9241 -6.98758
502 1 1.79241 1.79241 17.9241 -8.36026
503 3 1.79241 0 19.7165 -6.5417
504 1 0 1.79241 19.7165 -8.4065
601 3 0 0 21.5089 -6.39585
602 3 1.79241 1.79241 21.5089 -6.41182
505 2 3.58482 0 17.9241 -7.03298
506 1 5.37723 1.79241 17.9241 -8.61881
507 2 5.37723 0 19.7165 -7.06763
508 2 3.58482 1.79241 19.7165 -7.02857
605 2 3.58482 0 21.5089 -7.0412
606 2 5.37723 1.79241 21.5089 -7.0108
509 3 7.16964 0 17.9241 -6.65555
510 2 8.96205 1.79241 17.9241 -6.92058
511 2 8.96205 0 19.7165 -6.95054
512 3 7.16964 1.79241 19.7165 -6.5317
609 3 7.16964 0 21.5089 -6.5146
610 2 8.96205 1.79241 21.5089 -6.98281
513 3 10.7545 0 17.9241 -6.45642
514 1 12.5469 1.79241 17.9241 -8.46704
515 3 12.5469 0 19.7165 -6.29462
516 3 10.7545 1.79241 19.7165 -6.31332
613 1 10.7545 0 21.5089 -8.38669
614 3 12.5469 1.79241 21.5089 -6.31126
517 3 14.3393 0 17.9241 -6.3755
518 1 16.1317 1.79241 17.9241 -8.54015
519 3 16.1317 0 19.7165 -6.39376
520 2 14.3393 1.79241 19.7165 -6.91337
617 1 14.3393 0 21.5089 -8.21295
618 1 16.1317 1.79241 21.5089 -8.29758
521 2 0 3.58482 17.9241 -7.03284
522 1 1.79241 5.37723 17.9241 -8.09417
523 1 1.79241 3.58482 19.7165 -8.20913
524 2 0 5.37723 19.7165 -6.90941
621 3 0 3.58482 21.5089 -6.2889
622 3 1.79241 5.37723 21.5089 -6.38683
525 1 3.58482 3.58482 17.9241 -8.20868
526 2 5.37723 5.37723 17.9241 -6.99427
527 3 5.37723 3.58482 19.7165 -6.47362
528 2 3.58482 5.37723 19.7165 -6.97797
625 2 3.58482 3.58482 21.5089 -6.92418
626 3 5.37723 5.37723 21.5089 -6.27817
529 3 7.16964 3.58482 17.9241 -6.514
530 3 8.96205 5.37723 17.9241 -6.23986
531 1 8.96205 3.58482 19.7165 -8.29619
532 2 7.16964 5.37723 19.7165 -6.95292
629 1 7.16964 3.58482 21.5089 -8.23099
630 1 8.96205 5.37723 21.5089 -8.049
533 1 10.7545 3.58482 17.9241 -8.20062
534 1 12.5469 5.37723 17.9241 -8.12115
535 1 12.5469 3.58482 19.7165 -8.25693
536 1 10.7545 5.37723 19.7165 -8.06247
633 1 10.7545 3.58482 21.5089 -8.29018
634 3 12.5469 5.37723 21.5089 -6.30964
537 2 14.3393 3.58482 17.9241 -7.10602
538 2 16.1317 5.37723 17.9241 -7.08086
539 2 16.1317 3.58482 19.7165 -7.00348
540 2 14.3393 5.37723 19.7165 -6.91817
637 3 14.3393 3.58482 21.5089 -6.36859
638 1 16.1317 5.37723 21.5089 -8.26075
541 3 0 7.16964 17.9241 -6.21237
542 3 1.79241 8.96205 17.9241 -6.22731
543 1 1.79241 7.16964 19.7165 -8.27231
544 2 0 8.96205 19.7165 -6.99756
641 2 0 7.16964 21.5089 -7.03081
642 2 1.79241 8.96205 21.5089 -7.07823
545 2 3.58482 7.16964 17.9241 -6.99749
546 2 5.37723 8.96205 17.9241 -7.11158
547 1 5.37723 7.16964 19.7165 -8.12465
548 1 3.58482 8.96205 19.7165 -8.19172
645 1 3.58482 7.16964 21.5089 -8.20716
646 1 5.37723 8.96205 21.5089 -8.14091
549 1 7.16964 7.16964 17.9241 -8.21292
550 2 8.96205 8.96205 17.9241 -7.00363
551 2 8.96205 7.16964 19.7165 -6.97934
552 2 7.16964 8.96205 19.7165 -7.05915
649 1 7.16964 7.16964 21.5089 -8.05573
650 1 8.96205 8.96205 21.5089 -8.53944
553 1 10.7545 7.16964 17.9241 -8.2043
554 2 12.5469 8.96205 17.9241 -6.94732
555 3 12.5469 7.16964 19.7165 -6.39358
556 3 10.7545 8.96205 19.7165 -6.50641
653 2 10.7545 7.16964 21.5089 -6.84697
654 3 12.5469 8.96205 21.5089 -6.44541
557 3 14.3393 7.16964 17.9241 -6.35628
558 3 16.1317 8.96205 17.9241 -6.41736
559 1 16.1317 7.16964 19.7165 -8.28387
560 1 14.3393 8.96205 19.7165 -8.65499
657 3 14.3393 7.16964 21.5089 -6.28836
658 2 16.1317 8.96205 21.5089 -6.93865
561 1 0 10.7545 17.9241 -8.06614
562 1 1.79241 12.5469 17.9241 -8.21019
563 1 1.79241 10.7545 19.7165 -8.12117
564 2 0 12.5469 19.7165 -7.03615
661 1 0 10.7545 21.5089 -8.16031
662 2 1.79241 12.5469 21.5089 -6.97813
565 3 3.58482 10.7545 17.9241 -6.48357
566 2 5.37723 12.5469 17.9241 -7.042
567 2 5.37723 10.7545 19.7165 -7.05136
568 2 3.58482 12.5469 19.7165 -6.97845
665 2 3.58482 10.7545 21.5089 -7.05175
666 1 5.37723 12.5469 21.5089 -8.23685
569 1 7.16964 10.7545 17.9241 -8.40802
570 3 8.96205 12.5469 17.9241 -6.38349
571 3 8.96205 10.7545 19.7165 -6.41387
572 3 7.16964 12.5469 19.7165 -6.38551
669 2 7.16964 10.7545 21.5089 -6.93454
670 1 8.96205 12.5469 21.5089 -8.35905
573 3 10.7545 10.7545 17.9241 -6.54781
574 2 12.5469 12.5469 17.9241 -6.9551
575 3 12.5469 10.7545 19.7165 -6.46127
576 1 10.7545 12.5469 19.7165 -8.29016
673 3 10.7545 10.7545 21.5089 -6.30639
674 1 12.5469 12.5469 21.5089 -8.60863
577 3 14.3393 10.7545 17.9241 -6.59018
578 2 16.1317 12.5469 17.9241 -7.03742
579 2 16.1317 10.7545 19.7165 -7.06784
580 2 14.3393 12.5469 19.7165 -6.99734
677 3 14.3393 10.7545 21.5089 -6.4424
678 2 16.1317 12.5469 21.5089 -7.04571
581 1 0 14.3393 17.9241 -8.12402
582 3 1.79241 16.1317 17.9241 -6.4664
583 3 1.79241 14.3393 19.7165 -6.5298
584 2 0 16.1317 19.7165 -6.99798
681 3 0 14.3393 21.5089 -6.40845
682 2 1.79241 16.1317 21.5089 -6.96351
585 2 3.58482 14.3393 17.9241 -6.96245
586 3 5.37723 16.1317 17.9241 -6.44094
587 1 5.37723 14.3393 19.7165 -8.3425
588 1 3.58482 16.1317 19.7165 -8.43288
685 3 3.58482 14.3393 21.5089 -6.31373
686 1 5.37723 16.1317 21.5089 -8.13548
589 3 7.16964 14.3393 17.9241 -6.41984
590 2 8.96205 16.1317 17.9241 -6.95414
591 1 8.96205 14.3393 19.7165 -8.30875
592 2 7.16964 16.1317 19.7165 -6.92922
689 2 7.16964 14.3393 21.5089 -7.08435
690 1 8.96205 16.1317 21.5089 -8.3507
593 1 10.7545 14.3393 17.9241 -8.18761
594 1 12.5469 16.1317 17.9241 -8.18637
595 2 12.5469 14.3393 19.7165 -6.89896
596 3 10.7545 16.1317 19.7165 -6.24415
693 3 10.7545 14.3393 21.5089 -6.14299
694 1 12.5469 16.1317 21.5089 -8.41629
597 3 14.3393 14.3393 17.9241 -6.47246
598 1 16.1317 16.1317 17.9241 -8.45404
599 3 16.1317 14.3393 19.7165 -6.55083
600 1 14.3393 16.1317 19.7165 -8.20267
697 3 14.3393 14.3393 21.5089 -6.35836
698 3 16.1317 16.1317 21.5089 -6.36416
603 3 1.79241 0 23.3013 -6.48543
604 1 0 1.79241 23.3013 -8.69578
701 3 0 0 25.0937 -6.53576
702 3 1.79241 1.79241 25.0937 -6.47425
703 2 1.79241 0 26.8861 -7.04902
704 2 0 1.79241 26.8861 -6.9624
607 1 5.37723 0 23.3013 -8.10306
608 1 3.58482 1.79241 23.3013 -8.53408
705 2 3.58482 0 25.0937 -6.97634
706 1 5.37723 1.79241 25.0937 -8.28168
707 3 5.37723 0 26.8861 -6.29335
708 3 3.58482 1.79241 26.8861 -6.4151
611 2 8.96205 0 23.3013 -6.92194
612 1 7.16964 1.79241 23.3013 -8.07403
709 1 7.16964 0 25.0937 -8.26467
710 2 8.96205 1.79241 25.0937 -6.97183
711 2 8.96205 0 26.8861 -7.04391
712 3 7.16964 1.79241 26.8861 -6.22704
615 2 12.5469 0 23.3013 -6.99608
616 3 10.7545 1.79241 23.3013 -6.34826
713 3 10.7545 0 25.0937 -6.54596
714 1 12.5469 1.79241 25.0937 -8.15652
715 1 12.5469 0 26.8861 -8.32118
716 2 10.7545 1.79241 26.8861 -7.00907
619 2 16.1317 0 23.3013 -7.01133
620 1 14.3393 1.79241 23.3013 -8.25378
717 1 14.3393 0 25.0937 -8.18643
718 2 16.1317 1.79241 25.0937 -6.96998
719 1 16.1317 0 26.8861 -8.38068
720 3 14.3393 1.79241 26.8861 -6.44758
623 3 1.79241 3.58482 23.3013 -6.32461
624 1 0 5.37723 23.3013 -8.59253
721 3 0 3.58482 25.0937 -6.3947
722 2 1.79241 5.37723 25.0937 -6.90482
723 1 1.79241 3.58482 26.8861 -8.41987
724 1 0 5.37723 26.8861 -8.51425
627 3 5.37723 3.58482 23.3013 -6.22952
628 1 3.58482 5.37723 23.3013 -8.56343
725 3 3.58482 3.58482 25.0937 -6.30033
726 3 5.37723 5.37723 25.0937 -6.27038
727 2 5.37723 3.58482 26.8861 -6.86994
728 1 3.58482 5.37723 26.8861 -8.56604
631 1 8.96205 3.58482 23.3013 -8.08097
632 1 7.16964 5.37723 23.3013 -8.31186
729 1 7.16964 3.58482 25.0937 -8.35448
730 3 8.96205 5.37723 25.0937 -6.29356
731 3 8.96205 3.58482 26.8861 -6.32042
732 3 7.16964 5.37723 26.8861 -6.46577
635 2 12.5469 3.58482 23.3013 -6.86979
636 3 10.7545 5.37723 23.3013 -6.28496
733 1 10.7545 3.58482 25.0937 -8.29191
734 3 12.5469 5.37723 25.0937 -6.32775
735 1 12.5469 3.58482 26.8861 -8.32545
736 1 10.7545 5.37723 26.8861 -8.38996
639 3 16.1317 3.58482 23.3013 -6.21666
640 1 14.3393 5.37723 23.3013 -8.52801
737 2 14.3393 3.58482 25.0937 -6.99724
738 3 16.1317 5.37723 25.0937 -6.37932
739 2 16.1317 3.58482 26.8861 -6.98654
740 2 14.3393 5.37723 26.8861 -6.95465
643 3 1.79241 7.16964 23.3013 -6.41321
644 1 0 8.96205 23.3013 -8.3121
741 2 0 7.16964 25.0937 -7.00898
742 2 1.79241 8.96205 25.0937 -7.0613
743 3 1.79241 7.16964 26.8861 -6.4249
744 2 0 8.96205 26.8861 -6.98815
647 2 5.37723 7.16964 23.3013 -6.99159
648 2 3.58482 8.96205 23.3013 -6.97391
745 1 3.58482 7.16964 25.0937 -8.31238
746 1 5.37723 8.96205 25.0937 -8.40253
747 3 5.37723 7.16964 26.8861 -6.38559
748 2 3.58482 8.96205 26.8861 -6.96617
651 3 8.96205 7.16964 23.3013 -6.27483
652 1 7.16964 8.96205 23.3013 -8.2166
749 3 7.16964 7.16964 25.0937 -6.36294
750 1 8.96205 8.96205 25.0937 -8.638
751 3 8.96205 7.16964 26.8861 -6.4379
752 3 7.16964 8.96205 26.8861 -6.34341
655 1 12.5469 7.16964 23.3013 -8.54918
656 3 10.7545 8.96205 23.3013 -6.42347
753 3 10.7545 7.16964 25.0937 -6.3779
754 3 12.5469 8.96205 25.0937 -6.48955
755 1 12.5469 7.16964 26.8861 -8.5581
756 2 10.7545 8.96205 26.8861 -6.97807
659 3 16.1317 7.16964 23.3013 -6.25922
660 1 14.3393 8.96205 23.3013 -8.67058
757 2 14.3393 7.16964 25.0937 -6.90425
758 3 16.1317 8.96205 25.0937 -6.45137
759 1 16.1317 7.16964 26.8861 -8.3043
760 2 14.3393 8.96205 26.8861 -6.96022
663 1 1.79241 10.7545 23.3013 -8.15176
664 3 0 12.5469 23.3013 -6.19878
761 1 0 10.7545 25.0937 -8.38163
762 3 1.79241 12.5469 25.0937 -6.27205
763 1 1.79241 10.7545 26.8861 -8.07678
764 2 0 12.5469 26.8861 -7.00422
667 3 5.37723 10.7545 23.3013 -6.3232
668 1 3.58482 12.5469 23.3013 -8.27997
765 2 3.58482 10.7545 25.0937 -7.00931
766 3 5.37723 12.5469 25.0937 -6.38332
767 2 5.37723 10.7545 26.8861 -6.98852
768 1 3.58482 12.5469 26.8861 -8.39055
671 3 8.96205 10.7545 23.3013 -6.23374
672 1 7.16964 12.5469 23.3013 -8.17428
769 2 7.16964 10.7545 25.0937 -6.95083
770 1 8.96205 12.5469 25.0937 -8.35052
771 2 8.96205 10.7545 26.8861 -6.93137
772 3 7.16964 12.5469 26.8861 -6.40353
675 3 12.5469 10.7545 23.3013 -6.35804
676 3 10.7545 12.5469 23.3013 -6.17318
773 3 10.7545 10.7545 25.0937 -6.35062
774 1 12.5469 12.5469 25.0937 -8.45422
775 2 12.5469 10.7545 26.8861 -6.94942
776 3 10.7545 12.5469 26.8861 -6.16689
679 2 16.1317 10.7545 23.3013 -6.96744
680 1 14.3393 12.5469 23.3013 -8.42352
777 3 14.3393 10.7545 25.0937 -6.41219
778 1 16.1317 12.5469 25.0937 -8.49445
779 3 16.1317 10.7545 26.8861 -6.33147
780 3 14.3393 12.5469 26.8861 -6.24181
683 1 1.79241 14.3393 23.3013 -8.38096
684 3 0 16.1317 23.3013 -6.41357
781 1 0 14.3393 25.0937 -8.29766
782 1 1.79241 16.1317 25.0937 -8.55897
783 2 1.79241 14.3393 26.8861 -6.90231
784 3 0 16.1317 26.8861 -6.32715
687 1 5.37723 14.3393 23.3013 -8.11126
688 2 3.58482 16.1317 23.3013 -6.89634
785 3 3.58482 14.3393 25.0937 -6.29282
786 1 5.37723 16.1317 25.0937 -8.44901
787 3 5.37723 14.3393 26.8861 -6.43063
788 3 3.58482 16.1317 26.8861 -6.39913
691 1 8.96205 14.3393 23.3013 -8.05464
692 1 7.16964 16.1317 23.3013 -8.05439
789 3 7.16964 14.3393 25.0937 -6.18964
790 1 8.96205 16.1317 25.0937 -8.28032
791 1 8.96205 14.3393 26.8861 -8.12661
792 2 7.16964 16.1317 26.8861 -6.91642
695 3 12.5469 14.3393 23.3013 -6.20403
696 3 10.7545 16.1317 23.3013 -6.18644
793 1 10.7545 14.3393 25.0937 -8.15469
794 3 12.5469 16.1317 25.0937 -6.2964
795 1 12.5469 14.3393 26.8861 -8.23909
796 2 10.7545 16.1317 26.8861 -7.01548
699 2 16.1317 14.3393 23.3013 -6.88815
700 1 14.3393 16.1317 23.3013 -8.47575
797 3 14.3393 14.3393 25.0937 -6.33343
798 3 16.1317 16.1317 25.0937 -6.38272
799 2 16.1317 14.3393 26.8861 -6.97305
800 3 14.3393 16.1317 26.8861 -6.33861