ITEM: TIMESTEP
0
ITEM: NUMBER OF ATOMS
4000
ITEM: BOX BOUNDS pp pp pp
0.0000000000000000e+00 3.5576430000000002e+01
0.0000000000000000e+00 3.5576430000000002e+01
0.0000000000000000e+00 3.5576430000000002e+01
ITEM: ATOMS id type x y z c_peratom
1 2 0 0 0 -7.01685
2 1 1.77882 1.77882 0 -8.40277
3 3 1.77882 0 1.77882 -6.38203
4 1 0 1.77882 1.77882 -8.61307
101 2 0 0 3.55764 -6.97103
102 2 1.77882 1.77882 3.55764 -6.9052
5 1 3.55764 0 0 -8.38722
6 2 5.33646 1.77882 0 -6.87753
7 3 5.33646 0 1.77882 -6.38958
8 1 3.55764 1.77882 1.77882 -8.42958
105 3 3.55764 0 3.55764 -6.36743
106 3 5.33646 1.77882 3.55764 -6.32889
9 1 7.11529 0 0 -8.32512
10 1 8.89411 1.77882 0 -8.17365
11 2 8.89411 0 1.77882 -6.99648
12 2 7.11529 1.77882 1.77882 -7.05011
109 2 7.11529 0 3.55764 -6.92691
110 1 8.89411 1.77882 3.55764 -8.43093
13 1 10.6729 0 0 -8.05274
14 1 12.4518 1.77882 0 -8.48003
15 2 12.4518 0 1.77882 -6.97806
16 2 10.6729 1.77882 1.77882 -7.05505
113 1 10.6729 0 3.55764 -8.39216
114 1 12.4518 1.77882 3.55764 -8.52547
17 3 14.2306 0 0 -6.31436
18 1 16.0094 1.77882 0 -8.6538
19 3 16.0094 0 1.77882 -6.39011
20 2 14.2306 1.77882 1.77882 -6.91446
117 1 14.2306 0 3.55764 -8.63328
118 3 16.0094 1.77882 3.55764 -6.38913
21 2 0 3.55764 0 -6.99173
22 3 1.77882 5.33646 0 -6.40282
23 3 1.77882 3.55764 1.77882 -6.23188
24 1 0 5.33646 1.77882 -8.63946
121 3 0 3.55764 3.55764 -6.38654
122 3 1.77882 5.33646 3.55764 -6.20299
25 3 3.55764 3.55764 0 -6.2825
26 3 5.33646 5.33646 0 -6.17812
27 1 5.33646 3.55764 1.77882 -8.22656
28 1 3.55764 5.33646 1.77882 -8.57467
125 1 3.55764 3.55764 3.55764 -8.37961
126 2 5.33646 5.33646 3.55764 -6.9572
29 1 7.11529 3.55764 0 -8.25009
30 2 8.89411 5.33646 0 -7.08122
31 1 8.89411 3.55764 1.77882 -8.08465
32 2 7.11529 5.33646 1.77882 -6.98948
129 1 7.11529 3.55764 3.55764 -8.50615
130 2 8.89411 5.33646 3.55764 -6.98218
33 2 10.6729 3.55764 0 -7.0373
34 2 12.4518 5.33646 0 -6.99242
35 2 12.4518 3.55764 1.77882 -6.98811
36 1 10.6729 5.33646 1.77882 -8.32391
133 2 10.6729 3.55764 3.55764 -6.93389
134 3 12.4518 5.33646 3.55764 -6.19076
37 3 14.2306 3.55764 0 -6.27308
38 2 16.0094 5.33646 0 -6.91844
39 1 16.0094 3.55764 1.77882 -8.41311
40 1 14.2306 5.33646 1.77882 -8.49749
137 2 14.2306 3.55764 3.55764 -6.96202
138 2 16.0094 5.33646 3.55764 -7.00167
41 2 0 7.11529 0 -6.98353
42 1 1.77882 8.89411 0 -8.58023
43 3 1.77882 7.11529 1.77882 -6.40307
44 3 0 8.89411 1.77882 -6.43177
141 1 0 7.11529 3.55764 -8.42851
142 2 1.77882 8.89411 3.55764 -6.92214
45 3 3.55764 7.11529 0 -6.388
46 2 5.33646 8.89411 0 -6.92918
47 1 5.33646 7.11529 1.77882 -8.53405
48 3 3.55764 8.89411 1.77882 -6.41415
145 3 3.55764 7.11529 3.55764 -6.36683
146 3 5.33646 8.89411 3.55764 -6.42267
49 1 7.11529 7.11529 0 -8.36547
50 2 8.89411 8.89411 0 -7.05172
51 1 8.89411 7.11529 1.77882 -8.25628
52 2 7.11529 8.89411 1.77882 -7.0208
149 2 7.11529 7.11529 3.55764 -6.93719
150 2 8.89411 8.89411 3.55764 -7.0465
53 1 10.6729 7.11529 0 -8.2063
54 3 12.4518 8.89411 0 -6.33267
55 1 12.4518 7.11529 1.77882 -8.47673
56 1 10.6729 8.89411 1.77882 -8.26578
153 3 10.6729 7.11529 3.55764 -6.08134
154 3 12.4518 8.89411 3.55764 -6.1102
57 2 14.2306 7.11529 0 -6.98327
58 1 16.0094 8.89411 0 -8.68633
59 2 16.0094 7.11529 1.77882 -6.96245
60 3 14.2306 8.89411 1.77882 -6.38149
157 3 14.2306 7.11529 3.55764 -6.24714
158 1 16.0094 8.89411 3.55764 -8.52257
61 3 0 10.6729 0 -6.39052
62 3 1.77882 12.4518 0 -6.46335
63 2 1.77882 10.6729 1.77882 -6.91287
64 3 0 12.4518 1.77882 -6.31347
161 1 0 10.6729 3.55764 -8.53755
162 2 1.77882 12.4518 3.55764 -6.98471
65 1 3.55764 10.6729 0 -8.58922
66 2 5.33646 12.4518 0 -7.06773
67 3 5.33646 10.6729 1.77882 -6.43015
68 2 3.55764 12.4518 1.77882 -6.99181
165 1 3.55764 10.6729 3.55764 -8.73832
166 2 5.33646 12.4518 3.55764 -6.98503
69 1 7.11529 10.6729 0 -8.6717
70 2 8.89411 12.4518 0 -7.08547
71 2 8.89411 10.6729 1.77882 -7.0353
72 2 7.11529 12.4518 1.77882 -7.059
169 1 7.11529 10.6729 3.55764 -8.5888
170 2 8.89411 12.4518 3.55764 -7.05409
73 1 10.6729 10.6729 0 -8.64602
74 3 12.4518 12.4518 0 -6.38671
75 3 12.4518 10.6729 1.77882 -6.29894
76 2 10.6729 12.4518 1.77882 -6.92008
173 1 10.6729 10.6729 3.55764 -8.37578
174 3 12.4518 12.4518 3.55764 -6.26103
77 2 14.2306 10.6729 0 -6.83296
78 1 16.0094 12.4518 0 -8.78073
79 3 16.0094 10.6729 1.77882 -6.17132
80 3 14.2306 12.4518 1.77882 -6.28902
177 1 14.2306 10.6729 3.55764 -8.6226
178 1 16.0094 12.4518 3.55764 -8.63982
81 3 0 14.2306 0 -6.32213
82 1 1.77882 16.0094 0 -8.58944
83 1 1.77882 14.2306 1.77882 -8.54353
84 2 0 16.0094 1.77882 -6.97498
181 3 0 14.2306 3.55764 -6.47583
182 1 1.77882 16.0094 3.55764 -8.42337
85 3 3.55764 14.2306 0 -6.46877
86 1 5.33646 16.0094 0 -8.73526
87 1 5.33646 14.2306 1.77882 -8.31111
88 3 3.55764 16.0094 1.77882 -6.19632
185 1 3.55764 14.2306 3.55764 -8.26337
186 1 5.33646 16.0094 3.55764 -8.24111
89 2 7.11529 14.2306 0 -6.95974
90 3 8.89411 16.0094 0 -6.26312
91 1 8.89411 14.2306 1.77882 -8.6059
92 3 7.11529 16.0094 1.77882 -6.19735
189 1 7.11529 14.2306 3.55764 -8.24902
190 3 8.89411 16.0094 3.55764 -6.27582
93 1 10.6729 14.2306 0 -8.46237
94 3 12.4518 16.0094 0 -6.40507
95 1 12.4518 14.2306 1.77882 -8.85972
96 3 10.6729 16.0094 1.77882 -6.17903
193 3 10.6729 14.2306 3.55764 -6.28148
194 3 12.4518 16.0094 3.55764 -6.2018
97 3 14.2306 14.2306 0 -6.33431
98 1 16.0094 16.0094 0 -8.67084
99 3 16.0094 14.2306 1.77882 -6.20367
100 3 14.2306 16.0094 1.77882 -6.19447
197 3 14.2306 14.2306 3.55764 -6.17956
198 1 16.0094 16.0094 3.55764 -8.62863
103 1 1.77882 0 5.33646 -8.67353
104 3 0 1.77882 5.33646 -6.29665
201 3 0 0 7.11529 -6.36781
202 2 1.77882 1.77882 7.11529 -6.95892
107 1 5.33646 0 5.33646 -8.39951
108 3 3.55764 1.77882 5.33646 -6.30922
203 2 3.55764 0 7.11529 -7.01143
204 1 5.33646 1.77882 7.11529 -8.40654
111 3 8.89411 0 5.33646 -6.45622
112 3 7.11529 1.77882 5.33646 -6.28838
205 2 7.11529 0 7.11529 -6.876
206 3 8.89411 1.77882 7.11529 -6.42876
115 3 12.4518 0 5.33646 -6.29852
116 3 10.6729 1.77882 5.33646 -6.23653
207 3 10.6729 0 7.11529 -6.47753
208 1 12.4518 1.77882 7.11529 -8.77826
119 2 16.0094 0 5.33646 -6.84602
120 3 14.2306 1.77882 5.33646 -6.40323
209 3 14.2306 0 7.11529 -6.43407
210 3 16.0094 1.77882 7.11529 -6.52087
123 1 1.77882 3.55764 5.33646 -8.61058
124 3 0 5.33646 5.33646 -6.18359
211 1 0 3.55764 7.11529 -8.31159
212 2 1.77882 5.33646 7.11529 -6.95737
127 2 5.33646 3.55764 5.33646 -6.83846
128 3 3.55764 5.33646 5.33646 -6.28268
213 2 3.55764 3.55764 7.11529 -6.94227
214 1 5.33646 5.33646 7.11529 -8.57721
131 3 8.89411 3.55764 5.33646 -6.28438
132 3 7.11529 5.33646 5.33646 -6.31317
215 1 7.11529 3.55764 7.11529 -8.68127
216 3 8.89411 5.33646 7.11529 -6.39858
135 3 12.4518 3.55764 5.33646 -6.34905
136 1 10.6729 5.33646 5.33646 -8.47611
217 1 10.6729 3.55764 7.11529 -8.63468
218 2 12.4518 5.33646 7.11529 -6.97814
139 1 16.0094 3.55764 5.33646 -8.73023
140 1 14.2306 5.33646 5.33646 -8.41643
219 2 14.2306 3.55764 7.11529 -6.95193
220 2 16.0094 5.33646 7.11529 -7.00324
143 1 1.77882 7.11529 5.33646 -8.4523
144 2 0 8.89411 5.33646 -7.02309
221 1 0 7.11529 7.11529 -8.20263
222 1 1.77882 8.89411 7.11529 -8.12316
147 1 5.33646 7.11529 5.33646 -8.54626
148 2 3.55764 8.89411 5.33646 -7.01564
223 2 3.55764 7.11529 7.11529 -6.97213
224 1 5.33646 8.89411 7.11529 -8.50991
151 1 8.89411 7.11529 5.33646 -8.45166
152 2 7.11529 8.89411 5.33646 -6.98933
225 3 7.11529 7.11529 7.11529 -6.35761
226 1 8.89411 8.89411 7.11529 -8.41266
155 1 12.4518 7.11529 5.33646 -8.33036
156 1 10.6729 8.89411 5.33646 -8.22579
227 3 10.6729 7.11529 7.11529 -6.29225
228 2 12.4518 8.89411 7.11529 -6.99567
159 2 16.0094 7.11529 5.33646 -6.99158
160 1 14.2306 8.89411 5.33646 -8.15155
229 1 14.2306 7.11529 7.11529 -8.20529
230 2 16.0094 8.89411 7.11529 -6.89246
163 2 1.77882 10.6729 5.33646 -7.02167
164 2 0 12.4518 5.33646 -7.05236
231 1 0 10.6729 7.11529 -8.49847
232 2 1.77882 12.4518 7.11529 -7.02061
167 3 5.33646 10.6729 5.33646 -6.37295
168 3 3.55764 12.4518 5.33646 -6.37963
233 1 3.55764 10.6729 7.11529 -8.39491
234 2 5.33646 12.4518 7.11529 -6.952
171 2 8.89411 10.6729 5.33646 -7.03723
172 1 7.11529 12.4518 5.33646 -8.47451
235 2 7.11529 10.6729 7.11529 -6.95128
236 3 8.89411 12.4518 7.11529 -6.3132
175 2 12.4518 10.6729 5.33646 -6.84641
176 1 10.6729 12.4518 5.33646 -8.46068
237 1 10.6729 10.6729 7.11529 -8.2469
238 3 12.4518 12.4518 7.11529 -6.21966
179 3 16.0094 10.6729 5.33646 -6.17124
180 3 14.2306 12.4518 5.33646 -6.2208
239 1 14.2306 10.6729 7.11529 -8.58595
240 3 16.0094 12.4518 7.11529 -6.29531
183 2 1.77882 14.2306 5.33646 -7.09707
184 2 0 16.0094 5.33646 -7.13152
241 2 0 14.2306 7.11529 -7.07899
242 2 1.77882 16.0094 7.11529 -7.13874
187 2 5.33646 14.2306 5.33646 -7.02021
188 2 3.55764 16.0094 5.33646 -7.07562
243 1 3.55764 14.2306 7.11529 -8.34177
244 1 5.33646 16.0094 7.11529 -8.42549
191 2 8.89411 14.2306 5.33646 -6.91595
192 2 7.11529 16.0094 5.33646 -7.00336
245 2 7.11529 14.2306 7.11529 -6.99537
246 1 8.89411 16.0094 7.11529 -8.40861
195 1 12.4518 14.2306 5.33646 -8.66989
196 1 10.6729 16.0094 5.33646 -8.48598
247 3 10.6729 14.2306 7.11529 -6.175
248 1 12.4518 16.0094 7.11529 -8.44529
199 1 16.0094 14.2306 5.33646 -8.66969
200 3 14.2306 16.0094 5.33646 -6.17579
249 3 14.2306 14.2306 7.11529 -6.17577
250 1 16.0094 16.0094 7.11529 -8.55209
251 2 1.77882 0 8.89411 -6.94229
252 1 0 1.77882 8.89411 -8.41517
301 1 0 0 10.6729 -8.30253
302 3 1.77882 1.77882 10.6729 -6.21024
303 2 1.77882 0 12.4518 -6.96531
304 2 0 1.77882 12.4518 -6.92208
253 3 5.33646 0 8.89411 -6.32758
254 1 3.55764 1.77882 8.89411 -8.44554
305 3 3.55764 0 10.6729 -6.37111
306 2 5.33646 1.77882 10.6729 -6.84579
307 3 5.33646 0 12.4518 -6.3043
308 1 3.55764 1.77882 12.4518 -8.51713
255 1 8.89411 0 8.89411 -8.60076
256 2 7.11529 1.77882 8.89411 -6.8804
309 1 7.11529 0 10.6729 -8.31033
310 1 8.89411 1.77882 10.6729 -8.46115
311 1 8.89411 0 12.4518 -8.23321
312 2 7.11529 1.77882 12.4518 -7.03993
257 3 12.4518 0 8.89411 -6.36736
258 3 10.6729 1.77882 8.89411 -6.27362
313 3 10.6729 0 10.6729 -6.33927
314 1 12.4518 1.77882 10.6729 -8.88609
315 3 12.4518 0 12.4518 -6.52043
316 2 10.6729 1.77882 12.4518 -6.94752
259 3 16.0094 0 8.89411 -6.47881
260 2 14.2306 1.77882 8.89411 -6.89211
317 3 14.2306 0 10.6729 -6.39118
318 3 16.0094 1.77882 10.6729 -6.37187
319 1 16.0094 0 12.4518 -8.47904
320 2 14.2306 1.77882 12.4518 -6.98179
261 1 1.77882 3.55764 8.89411 -8.21946
262 2 0 5.33646 8.89411 -6.96259
321 1 0 3.55764 10.6729 -8.37527
322 3 1.77882 5.33646 10.6729 -6.28092
323 1 1.77882 3.55764 12.4518 -8.29016
324 1 0 5.33646 12.4518 -8.68393
263 3 5.33646 3.55764 8.89411 -6.29795
264 2 3.55764 5.33646 8.89411 -6.98886
325 1 3.55764 3.55764 10.6729 -8.16748
326 1 5.33646 5.33646 10.6729 -8.58827
327 3 5.33646 3.55764 12.4518 -6.36344
328 1 3.55764 5.33646 12.4518 -8.35756
265 3 8.89411 3.55764 8.89411 -6.36998
266 2 7.11529 5.33646 8.89411 -6.85936
329 3 7.11529 3.55764 10.6729 -6.36204
330 1 8.89411 5.33646 10.6729 -8.6303
331 1 8.89411 3.55764 12.4518 -8.18945
332 2 7.11529 5.33646 12.4518 -6.90567
267 2 12.4518 3.55764 8.89411 -6.93483
268 2 10.6729 5.33646 8.89411 -6.86357
333 3 10.6729 3.55764 10.6729 -6.31238
334 3 12.4518 5.33646 10.6729 -6.37046
335 3 12.4518 3.55764 12.4518 -6.49759
336 1 10.6729 5.33646 12.4518 -8.53926
269 1 16.0094 3.55764 8.89411 -8.56372
270 1 14.2306 5.33646 8.89411 -8.41493
337 3 14.2306 3.55764 10.6729 -6.39588
338 2 16.0094 5.33646 10.6729 -6.99689
339 1 16.0094 3.55764 12.4518 -8.4065
340 1 14.2306 5.33646 12.4518 -8.6539
271 1 1.77882 7.11529 8.89411 -8.47094
272 2 0 8.89411 8.89411 -7.0582
341 2 0 7.11529 10.6729 -6.97064
342 3 1.77882 8.89411 10.6729 -6.69949
343 2 1.77882 7.11529 12.4518 -6.96288
344 2 0 8.89411 12.4518 -7.11172
273 3 5.33646 7.11529 8.89411 -6.35022
274 2 3.55764 8.89411 8.89411 -7.01895
345 2 3.55764 7.11529 10.6729 -7.00226
346 1 5.33646 8.89411 10.6729 -8.54967
347 2 5.33646 7.11529 12.4518 -6.94118
348 3 3.55764 8.89411 12.4518 -6.55831
275 3 8.89411 7.11529 8.89411 -6.38063
276 2 7.11529 8.89411 8.89411 -6.89327
349 3 7.11529 7.11529 10.6729 -6.29101
350 1 8.89411 8.89411 10.6729 -8.44488
351 2 8.89411 7.11529 12.4518 -7.00518
352 1 7.11529 8.89411 12.4518 -8.1791
277 1 12.4518 7.11529 8.89411 -8.40348
278 2 10.6729 8.89411 8.89411 -6.96341
353 3 10.6729 7.11529 10.6729 -6.32963
354 1 12.4518 8.89411 10.6729 -8.38521
355 3 12.4518 7.11529 12.4518 -6.35745
356 2 10.6729 8.89411 12.4518 -6.95741
279 3 16.0094 7.11529 8.89411 -6.30982
280 3 14.2306 8.89411 8.89411 -6.38754
357 2 14.2306 7.11529 10.6729 -6.93392
358 1 16.0094 8.89411 10.6729 -8.4039
359 2 16.0094 7.11529 12.4518 -7.07712
360 1 14.2306 8.89411 12.4518 -8.53707
281 2 1.77882 10.6729 8.89411 -6.99749
282 3 0 12.4518 8.89411 -6.38844
361 2 0 10.6729 10.6729 -7.08749
362 1 1.77882 12.4518 10.6729 -8.48638
363 3 1.77882 10.6729 12.4518 -6.63141
364 2 0 12.4518 12.4518 -7.0136
283 3 5.33646 10.6729 8.89411 -6.32049
284 1 3.55764 12.4518 8.89411 -8.30865
365 2 3.55764 10.6729 10.6729 -6.95945
366 2 5.33646 12.4518 10.6729 -6.93446
367 2 5.33646 10.6729 12.4518 -6.9622
368 1 3.55764 12.4518 12.4518 -8.55778
285 2 8.89411 10.6729 8.89411 -7.04662
286 1 7.11529 12.4518 8.89411 -8.62701
369 1 7.11529 10.6729 10.6729 -8.32365
370 2 8.89411 12.4518 10.6729 -6.97722
371 2 8.89411 10.6729 12.4518 -7.04013
372 3 7.11529 12.4518 12.4518 -6.43257
287 2 12.4518 10.6729 8.89411 -6.99981
288 1 10.6729 12.4518 8.89411 -8.56803
373 1 10.6729 10.6729 10.6729 -8.36825
374 2 12.4518 12.4518 10.6729 -6.95232
375 3 12.4518 10.6729 12.4518 -6.47339
376 3 10.6729 12.4518 12.4518 -6.46978
289 2 16.0094 10.6729 8.89411 -6.96514
290 1 14.2306 12.4518 8.89411 -8.49049
377 2 14.2306 10.6729 10.6729 -6.96768
378 3 16.0094 12.4518 10.6729 -6.44871
379 2 16.0094 10.6729 12.4518 -6.95063
380 1 14.2306 12.4518 12.4518 -8.54606
291 1 1.77882 14.2306 8.89411 -8.39561
292 2 0 16.0094 8.89411 -7.04954
381 3 0 14.2306 10.6729 -6.44844
382 2 1.77882 16.0094 10.6729 -6.9716
383 3 1.77882 14.2306 12.4518 -6.48499
384 2 0 16.0094 12.4518 -6.9369
293 3 5.33646 14.2306 8.89411 -6.38797
294 2 3.55764 16.0094 8.89411 -6.98946
385 3 3.55764 14.2306 10.6729 -6.2988
386 1 5.33646 16.0094 10.6729 -8.68669
387 2 5.33646 14.2306 12.4518 -6.94368
388 1 3.55764 16.0094 12.4518 -8.48764
295 3 8.89411 14.2306 8.89411 -6.29823
296 2 7.11529 16.0094 8.89411 -6.90389
389 2 7.11529 14.2306 10.6729 -6.98794
390 1 8.89411 16.0094 10.6729 -8.44464
391 1 8.89411 14.2306 12.4518 -8.55359
392 3 7.11529 16.0094 12.4518 -6.30449
297 3 12.4518 14.2306 8.89411 -6.23247
298 1 10.6729 16.0094 8.89411 -8.21237
393 2 10.6729 14.2306 10.6729 -6.97766
394 1 12.4518 16.0094 10.6729 -8.21647
395 1 12.4518 14.2306 12.4518 -8.36665
396 2 10.6729 16.0094 12.4518 -6.92835
299 1 16.0094 14.2306 8.89411 -8.61794
300 3 14.2306 16.0094 8.89411 -6.24466
397 2 14.2306 14.2306 10.6729 -6.96632
398 2 16.0094 16.0094 10.6729 -6.8956
399 1 16.0094 14.2306 12.4518 -8.63954
400 1 14.2306 16.0094 12.4518 -8.24027
401 1 0 0 14.2306 -8.40618
402 3 1.77882 1.77882 14.2306 -6.37276
403 2 1.77882 0 16.0094 -7.0006
404 2 0 1.77882 16.0094 -6.96559
405 1 3.55764 0 14.2306 -8.55157
406 2 5.33646 1.77882 14.2306 -6.90729
407 3 5.33646 0 16.0094 -6.27465
408 2 3.55764 1.77882 16.0094 -6.9525
409 1 7.11529 0 14.2306 -8.33628
410 1 8.89411 1.77882 14.2306 -8.33351
411 2 8.89411 0 16.0094 -7.09611
412 1 7.11529 1.77882 16.0094 -8.46707
413 2 10.6729 0 14.2306 -7.07384
414 2 12.4518 1.77882 14.2306 -7.14984
415 2 12.4518 0 16.0094 -7.13487
416 2 10.6729 1.77882 16.0094 -7.1335
417 1 14.2306 0 14.2306 -8.52448
418 2 16.0094 1.77882 14.2306 -7.02929
419 2 16.0094 0 16.0094 -6.949
420 2 14.2306 1.77882 16.0094 -7.13515
421 2 0 3.55764 14.2306 -6.87868
422 3 1.77882 5.33646 14.2306 -6.34116
423 1 1.77882 3.55764 16.0094 -8.49205
424 3 0 5.33646 16.0094 -6.27949
425 2 3.55764 3.55764 14.2306 -6.93407
426 1 5.33646 5.33646 14.2306 -8.61353
427 3 5.33646 3.55764 16.0094 -6.30954
428 3 3.55764 5.33646 16.0094 -6.26211
429 2 7.11529 3.55764 14.2306 -6.92307
430 1 8.89411 5.33646 14.2306 -8.37056
431 3 8.89411 3.55764 16.0094 -6.35638
432 3 7.11529 5.33646 16.0094 -6.26479
433 3 10.6729 3.55764 14.2306 -6.49808
434 2 12.4518 5.33646 14.2306 -7.08172
435 2 12.4518 3.55764 16.0094 -7.23412
436 2 10.6729 5.33646 16.0094 -7.07079
437 2 14.2306 3.55764 14.2306 -7.15291
438 2 16.0094 5.33646 14.2306 -7.12401
439 1 16.0094 3.55764 16.0094 -8.55106
440 2 14.2306 5.33646 16.0094 -7.19352
441 2 0 7.11529 14.2306 -6.94627
442 3 1.77882 8.89411 14.2306 -6.56359
443 1 1.77882 7.11529 16.0094 -8.6264
444 2 0 8.89411 16.0094 -7.01928
445 3 3.55764 7.11529 14.2306 -6.3382
446 1 5.33646 8.89411 14.2306 -8.58804
447 3 5.33646 7.11529 16.0094 -6.27545
448 3 3.55764 8.89411 16.0094 -6.26863
449 1 7.11529 7.11529 14.2306 -8.16877
450 2 8.89411 8.89411 14.2306 -7.01219
451 2 8.89411 7.11529 16.0094 -7.03604
452 1 7.11529 8.89411 16.0094 -8.66688
453 1 10.6729 7.11529 14.2306 -8.46238
454 3 12.4518 8.89411 14.2306 -6.57507
455 2 12.4518 7.11529 16.0094 -7.21084
456 2 10.6729 8.89411 16.0094 -7.13015
457 2 14.2306 7.11529 14.2306 -7.1038
458 2 16.0094 8.89411 14.2306 -7.02265
459 1 16.0094 7.11529 16.0094 -8.57749
460 2 14.2306 8.89411 16.0094 -7.02547
461 2 0 10.6729 14.2306 -6.9938
462 3 1.77882 12.4518 14.2306 -6.54881
463 1 1.77882 10.6729 16.0094 -8.55997
464 3 0 12.4518 16.0094 -6.30296
465 3 3.55764 10.6729 14.2306 -6.37969
466 1 5.33646 12.4518 14.2306 -8.6464
467 3 5.33646 10.6729 16.0094 -6.28786
468 3 3.55764 12.4518 16.0094 -6.36972
469 2 7.11529 10.6729 14.2306 -6.91695
470 1 8.89411 12.4518 14.2306 -8.46335
471 3 8.89411 10.6729 16.0094 -6.4587
472 1 7.11529 12.4518 16.0094 -8.45212
473 2 10.6729 10.6729 14.2306 -7.064
474 2 12.4518 12.4518 14.2306 -6.97398
475 1 12.4518 10.6729 16.0094 -8.52283
476 2 10.6729 12.4518 16.0094 -6.99458
477 3 14.2306 10.6729 14.2306 -6.3304
478 3 16.0094 12.4518 14.2306 -6.21756
479 1 16.0094 10.6729 16.0094 -8.44222
480 1 14.2306 12.4518 16.0094 -8.35857
481 3 0 14.2306 14.2306 -6.54515
482 3 1.77882 16.0094 14.2306 -6.49441
483 2 1.77882 14.2306 16.0094 -6.93938
484 3 0 16.0094 16.0094 -6.32238
485 2 3.55764 14.2306 14.2306 -6.93734
486 1 5.33646 16.0094 14.2306 -8.48999
487 3 5.33646 14.2306 16.0094 -6.22989
488 2 3.55764 16.0094 16.0094 -6.93215
489 3 7.11529 14.2306 14.2306 -6.24633
490 3 8.89411 16.0094 14.2306 -6.37551
491 1 8.89411 14.2306 16.0094 -8.35092
492 3 7.11529 16.0094 16.0094 -6.26096
493 2 10.6729 14.2306 14.2306 -6.94639
494 3 12.4518 16.0094 14.2306 -6.27378
495 1 12.4518 14.2306 16.0094 -8.48643
496 2 10.6729 16.0094 16.0094 -6.97193
497 3 14.2306 14.2306 14.2306 -6.12865
498 3 16.0094 16.0094 14.2306 -6.18508
499 1 16.0094 14.2306 16.0094 -8.6254
500 3 14.2306 16.0094 16.0094 -6.36998
501 2 0 0 17.7882 -6.95529
502 1 1.77882 1.77882 17.7882 -8.25496
503 2 1.77882 0 19.567 -7.01824
504 2 0 1.77882 19.567 -7.02169
601 3 0 0 21.3459 -6.51461
602 2 1.77882 1.77882 21.3459 -7.01147
505 1 3.55764 0 17.7882 -8.19033
506 1 5.33646 1.77882 17.7882 -8.40076
507 2 5.33646 0 19.567 -6.95429
508 1 3.55764 1.77882 19.567 -8.45515
605 3 3.55764 0 21.3459 -6.29718
606 2 5.33646 1.77882 21.3459 -6.97885
509 2 7.11529 0 17.7882 -6.94982
510 2 8.89411 1.77882 17.7882 -7.03033
511 3 8.89411 0 19.567 -6.48811
512 1 7.11529 1.77882 19.567 -8.34121
609 1 7.11529 0 21.3459 -8.46367
610 2 8.89411 1.77882 21.3459 -7.08398
513 2 10.6729 0 17.7882 -7.16446
514 2 12.4518 1.77882 17.7882 -7.17735
515 2 12.4518 0 19.567 -7.14914
516 2 10.6729 1.77882 19.567 -7.19206
613 2 10.6729 0 21.3459 -7.11902
614 2 12.4518 1.77882 21.3459 -7.19459
517 1 14.2306 0 17.7882 -8.50677
518 2 16.0094 1.77882 17.7882 -6.99552
519 3 16.0094 0 19.567 -6.51688
520 3 14.2306 1.77882 19.567 -6.68566
617 2 14.2306 0 21.3459 -7.04761
618 2 16.0094 1.77882 21.3459 -7.04127
521 1 0 3.55764 17.7882 -8.41077
522 1 1.77882 5.33646 17.7882 -8.38004
523 3 1.77882 3.55764 19.567 -6.28274
524 2 0 5.33646 19.567 -6.99996
621 1 0 3.55764 21.3459 -8.45016
622 1 1.77882 5.33646 21.3459 -8.43549
525 3 3.55764 3.55764 17.7882 -6.19935
526 1 5.33646 5.33646 17.7882 -8.79018
527 2 5.33646 3.55764 19.567 -6.95153
528 3 3.55764 5.33646 19.567 -6.23837
625 2 3.55764 3.55764 21.3459 -6.98462
626 1 5.33646 5.33646 21.3459 -8.42815
529 3 7.11529 3.55764 17.7882 -6.34572
530 1 8.89411 5.33646 17.7882 -8.63158
531 2 8.89411 3.55764 19.567 -7.08059
532 2 7.11529 5.33646 19.567 -7.02282
629 1 7.11529 3.55764 21.3459 -8.24662
630 2 8.89411 5.33646 21.3459 -7.07205
533 1 10.6729 3.55764 17.7882 -8.5104
534 2 12.4518 5.33646 17.7882 -7.2305
535 3 12.4518 3.55764 19.567 -6.80049
536 2 10.6729 5.33646 19.567 -7.22462
633 2 10.6729 3.55764 21.3459 -7.15033
634 2 12.4518 5.33646 21.3459 -7.17783
537 2 14.2306 3.55764 17.7882 -7.12795
538 1 16.0094 5.33646 17.7882 -8.44593
539 1 16.0094 3.55764 19.567 -8.48514
540 2 14.2306 5.33646 19.567 -7.08877
637 3 14.2306 3.55764 21.3459 -6.56025
638 1 16.0094 5.33646 21.3459 -8.47528
541 2 0 7.11529 17.7882 -6.94074
542 1 1.77882 8.89411 17.7882 -8.11276
543 1 1.77882 7.11529 19.567 -8.20629
544 2 0 8.89411 19.567 -7.05706
641 1 0 7.11529 21.3459 -8.27802
642 2 1.77882 8.89411 21.3459 -6.98825
545 2 3.55764 7.11529 17.7882 -6.88463
546 3 5.33646 8.89411 17.7882 -6.38473
547 1 5.33646 7.11529 19.567 -8.52118
548 2 3.55764 8.89411 19.567 -6.98873
645 2 3.55764 7.11529 21.3459 -7.00702
646 2 5.33646 8.89411 21.3459 -6.99423
549 3 7.11529 7.11529 17.7882 -6.45241
550 3 8.89411 8.89411 17.7882 -6.66943
551 2 8.89411 7.11529 19.567 -7.14986
552 2 7.11529 8.89411 19.567 -6.98084
649 2 7.11529 7.11529 21.3459 -7.02892
650 2 8.89411 8.89411 21.3459 -7.06048
553 2 10.6729 7.11529 17.7882 -7.20009
554 2 12.4518 8.89411 17.7882 -7.22525
555 2 12.4518 7.11529 19.567 -7.30527
556 3 10.6729 8.89411 19.567 -6.78129
653 2 10.6729 7.11529 21.3459 -7.19452
654 2 12.4518 8.89411 21.3459 -7.15438
557 2 14.2306 7.11529 17.7882 -7.16303
558 3 16.0094 8.89411 17.7882 -6.42712
559 3 16.0094 7.11529 19.567 -6.44451
560 3 14.2306 8.89411 19.567 -6.70408
657 2 14.2306 7.11529 21.3459 -7.12264
658 1 16.0094 8.89411 21.3459 -8.3202
561 1 0 10.6729 17.7882 -8.21885
562 2 1.77882 12.4518 17.7882 -6.93531
563 1 1.77882 10.6729 19.567 -8.4139
564 2 0 12.4518 19.567 -6.99428
661 2 0 10.6729 21.3459 -6.92415
662 3 1.77882 12.4518 21.3459 -6.32025
565 1 3.55764 10.6729 17.7882 -8.36718
566 2 5.33646 12.4518 17.7882 -6.83229
567 1 5.33646 10.6729 19.567 -8.30073
568 2 3.55764 12.4518 19.567 -6.92383
665 3 3.55764 10.6729 21.3459 -6.37902
666 1 5.33646 12.4518 21.3459 -8.63629
569 3 7.11529 10.6729 17.7882 -6.29218
570 1 8.89411 12.4518 17.7882 -8.40848
571 3 8.89411 10.6729 19.567 -6.43238
572 1 7.11529 12.4518 19.567 -8.49875
669 1 7.11529 10.6729 21.3459 -8.32951
670 2 8.89411 12.4518 21.3459 -6.94262
573 2 10.6729 10.6729 17.7882 -7.05965
574 2 12.4518 12.4518 17.7882 -6.99232
575 2 12.4518 10.6729 19.567 -7.09209
576 1 10.6729 12.4518 19.567 -8.53914
673 1 10.6729 10.6729 21.3459 -8.65538
674 3 12.4518 12.4518 21.3459 -6.46251
577 2 14.2306 10.6729 17.7882 -7.04953
578 2 16.0094 12.4518 17.7882 -7.0012
579 3 16.0094 10.6729 19.567 -6.36424
580 1 14.2306 12.4518 19.567 -8.70635
677 2 14.2306 10.6729 21.3459 -7.05217
678 2 16.0094 12.4518 21.3459 -7.07137
581 1 0 14.2306 17.7882 -8.29998
582 1 1.77882 16.0094 17.7882 -8.14506
583 1 1.77882 14.2306 19.567 -8.45274
584 1 0 16.0094 19.567 -8.33097
681 3 0 14.2306 21.3459 -6.24543
682 2 1.77882 16.0094 21.3459 -6.81679
585 1 3.55764 14.2306 17.7882 -8.44786
586 1 5.33646 16.0094 17.7882 -8.60952
587 3 5.33646 14.2306 19.567 -6.22127
588 3 3.55764 16.0094 19.567 -6.18694
685 3 3.55764 14.2306 21.3459 -6.29262
686 1 5.33646 16.0094 21.3459 -8.89566
589 3 7.11529 14.2306 17.7882 -6.12502
590 1 8.89411 16.0094 17.7882 -8.4412
591 3 8.89411 14.2306 19.567 -6.23561
592 1 7.11529 16.0094 19.567 -8.52523
689 2 7.11529 14.2306 21.3459 -6.95117
690 2 8.89411 16.0094 21.3459 -6.93138
593 2 10.6729 14.2306 17.7882 -7.01042
594 1 12.4518 16.0094 17.7882 -8.42473
595 3 12.4518 14.2306 19.567 -6.34363
596 1 10.6729 16.0094 19.567 -8.51145
693 3 10.6729 14.2306 21.3459 -6.38157
694 2 12.4518 16.0094 21.3459 -6.89411
597 3 14.2306 14.2306 17.7882 -6.27863
598 2 16.0094 16.0094 17.7882 -6.90249
599 2 16.0094 14.2306 19.567 -6.96806
600 1 14.2306 16.0094 19.567 -8.62723
697 2 14.2306 14.2306 21.3459 -6.9715
698 3 16.0094 16.0094 21.3459 -6.3497
603 1 1.77882 0 23.1247 -8.59933
604 2 0 1.77882 23.1247 -7.00581
701 2 0 0 24.9035 -6.99021
702 2 1.77882 1.77882 24.9035 -6.96084
607 1 5.33646 0 23.1247 -8.37436
608 1 3.55764 1.77882 23.1247 -8.37238
703 3 3.55764 0 24.9035 -6.25438
704 2 5.33646 1.77882 24.9035 -6.93605
611 3 8.89411 0 23.1247 -6.50451
612 3 7.11529 1.77882 23.1247 -6.23486
705 1 7.11529 0 24.9035 -8.55233
706 2 8.89411 1.77882 24.9035 -7.04475
615 2 12.4518 0 23.1247 -7.13164
616 2 10.6729 1.77882 23.1247 -7.11163
707 2 10.6729 0 24.9035 -7.05989
708 2 12.4518 1.77882 24.9035 -7.1063
619 2 16.0094 0 23.1247 -7.00813
620 1 14.2306 1.77882 23.1247 -8.60576
709 2 14.2306 0 24.9035 -7.08827
710 2 16.0094 1.77882 24.9035 -7.0606
623 2 1.77882 3.55764 23.1247 -6.99754
624 2 0 5.33646 23.1247 -6.99455
711 1 0 3.55764 24.9035 -8.47374
712 1 1.77882 5.33646 24.9035 -8.45906
627 1 5.33646 3.55764 23.1247 -8.3773
628 3 3.55764 5.33646 23.1247 -6.32106
713 3 3.55764 3.55764 24.9035 -6.41477
714 3 5.33646 5.33646 24.9035 -6.3007
631 1 8.89411 3.55764 23.1247 -8.40358
632 3 7.11529 5.33646 23.1247 -6.31806
715 1 7.11529 3.55764 24.9035 -8.59163
716 3 8.89411 5.33646 24.9035 -6.35819
635 3 12.4518 3.55764 23.1247 -6.61719
636 3 10.6729 5.33646 23.1247 -6.61052
717 1 10.6729 3.55764 24.9035 -8.42235
718 2 12.4518 5.33646 24.9035 -7.05245
639 2 16.0094 3.55764 23.1247 -6.99262
640 1 14.2306 5.33646 23.1247 -8.48212
719 2 14.2306 3.55764 24.9035 -6.95587
720 3 16.0094 5.33646 24.9035 -6.35192
643 2 1.77882 7.11529 23.1247 -7.04618
644 1 0 8.89411 23.1247 -8.4129
721 1 0 7.11529 24.9035 -8.47766
722 1 1.77882 8.89411 24.9035 -8.19822
647 2 5.33646 7.11529 23.1247 -6.90315
648 1 3.55764 8.89411 23.1247 -8.4459
723 1 3.55764 7.11529 24.9035 -8.33812
724 3 5.33646 8.89411 24.9035 -6.37418
651 1 8.89411 7.11529 23.1247 -8.64353
652 1 7.11529 8.89411 23.1247 -8.37777
725 3 7.11529 7.11529 24.9035 -6.38916
726 1 8.89411 8.89411 24.9035 -8.41576
655 2 12.4518 7.11529 23.1247 -7.12632
656 3 10.6729 8.89411 23.1247 -6.53584
727 2 10.6729 7.11529 24.9035 -7.04557
728 1 12.4518 8.89411 24.9035 -8.70414
659 1 16.0094 7.11529 23.1247 -8.30329
660 2 14.2306 8.89411 23.1247 -7.07205
729 2 14.2306 7.11529 24.9035 -7.04494
730 1 16.0094 8.89411 24.9035 -8.51773
663 3 1.77882 10.6729 23.1247 -6.26406
664 1 0 12.4518 23.1247 -8.53046
731 1 0 10.6729 24.9035 -8.42067
732 3 1.77882 12.4518 24.9035 -6.23872
667 3 5.33646 10.6729 23.1247 -6.30791
668 3 3.55764 12.4518 23.1247 -6.33756
733 1 3.55764 10.6729 24.9035 -8.50422
734 1 5.33646 12.4518 24.9035 -8.602
671 2 8.89411 10.6729 23.1247 -6.96404
672 2 7.11529 12.4518 23.1247 -6.987
735 2 7.11529 10.6729 24.9035 -6.96926
736 3 8.89411 12.4518 24.9035 -6.47385
675 2 12.4518 10.6729 23.1247 -7.00416
676 3 10.6729 12.4518 23.1247 -6.40156
737 3 10.6729 10.6729 24.9035 -6.38825
738 1 12.4518 12.4518 24.9035 -8.40886
679 1 16.0094 10.6729 23.1247 -8.20534
680 2 14.2306 12.4518 23.1247 -7.00773
739 3 14.2306 10.6729 24.9035 -6.42647
740 2 16.0094 12.4518 24.9035 -7.02137
683 1 1.77882 14.2306 23.1247 -8.59656
684 1 0 16.0094 23.1247 -8.26025
741 3 0 14.2306 24.9035 -6.05144
742 1 1.77882 16.0094 24.9035 -8.09481
687 3 5.33646 14.2306 23.1247 -6.44202
688 3 3.55764 16.0094 23.1247 -6.2889
743 3 3.55764 14.2306 24.9035 -6.33945
744 2 5.33646 16.0094 24.9035 -6.98106
691 1 8.89411 14.2306 23.1247 -8.72442
692 2 7.11529 16.0094 23.1247 -6.9858
745 2 7.11529 14.2306 24.9035 -7.05858
746 3 8.89411 16.0094 24.9035 -6.42187
695 1 12.4518 14.2306 23.1247 -8.49948
696 2 10.6729 16.0094 23.1247 -6.87008
747 3 10.6729 14.2306 24.9035 -6.24197
748 1 12.4518 16.0094 24.9035 -8.26007
699 1 16.0094 14.2306 23.1247 -8.38782
700 2 14.2306 16.0094 23.1247 -6.95527
749 1 14.2306 14.2306 24.9035 -8.18576
750 2 16.0094 16.0094 24.9035 -6.97668
751 2 1.77882 0 26.6823 -6.9911
752 1 0 1.77882 26.6823 -8.52916
801 1 0 0 28.4611 -8.53965
802 2 1.77882 1.77882 28.4611 -7.0598
803 2 1.77882 0 30.24 -7.06789
804 2 0 1.77882 30.24 -7.19485
753 3 5.33646 0 26.6823 -6.38498
754 1 3.55764 1.77882 26.6823 -8.85291
805 2 3.55764 0 28.4611 -6.97589
806 3 5.33646 1.77882 28.4611 -6.34868
807 1 5.33646 0 30.24 -8.61853
808 3 3.55764 1.77882 30.24 -6.53099
755 2 8.89411 0 26.6823 -7.03524
756 2 7.11529 1.77882 26.6823 -6.88501
809 1 7.11529 0 28.4611 -8.50738
810 3 8.89411 1.77882 28.4611 -6.38772
811 1 8.89411 0 30.24 -8.58549
812 3 7.11529 1.77882 30.24 -6.20719
757 2 12.4518 0 26.6823 -7.05683
758 1 10.6729 1.77882 26.6823 -8.5687
813 3 10.6729 0 28.4611 -6.49269
814 2 12.4518 1.77882 28.4611 -7.02073
815 2 12.4518 0 30.24 -7.02407
816 2 10.6729 1.77882 30.24 -7.03331
759 1 16.0094 0 26.6823 -8.42664
760 1 14.2306 1.77882 26.6823 -8.53013
817 2 14.2306 0 28.4611 -7.09111
818 2 16.0094 1.77882 28.4611 -6.94635
819 1 16.0094 0 30.24 -8.2268
820 1 14.2306 1.77882 30.24 -8.38853
761 3 1.77882 3.55764 26.6823 -6.39761
762 2 0 5.33646 26.6823 -6.93075
821 2 0 3.55764 28.4611 -7.01913
822 1 1.77882 5.33646 28.4611 -8.58203
823 2 1.77882 3.55764 30.24 -7.05987
824 1 0 5.33646 30.24 -8.30336
763 3 5.33646 3.55764 26.6823 -6.4396
764 2 3.55764 5.33646 26.6823 -6.87338
825 3 3.55764 3.55764 28.4611 -6.47535
826 3 5.33646 5.33646 28.4611 -6.27491
827 1 5.33646 3.55764 30.24 -8.89509
828 2 3.55764 5.33646 30.24 -6.85401
765 2 8.89411 3.55764 26.6823 -6.92224
766 3 7.11529 5.33646 26.6823 -6.30945
829 1 7.11529 3.55764 28.4611 -8.6957
830 3 8.89411 5.33646 28.4611 -6.32442
831 1 8.89411 3.55764 30.24 -8.76928
832 3 7.11529 5.33646 30.24 -6.09944
767 2 12.4518 3.55764 26.6823 -7.05037
768 1 10.6729 5.33646 26.6823 -8.49816
833 2 10.6729 3.55764 28.4611 -7.00849
834 2 12.4518 5.33646 28.4611 -7.00318
835 3 12.4518 3.55764 30.24 -6.49163
836 3 10.6729 5.33646 30.24 -6.40526