ITEM: TIMESTEP
0
ITEM: NUMBER OF ATOMS
4000
ITEM: BOX BOUNDS pp pp pp
0.0000000000000000e+00 3.5790759999999999e+01
0.0000000000000000e+00 3.5790759999999999e+01
0.0000000000000000e+00 3.5790759999999999e+01
ITEM: ATOMS id type x y z c_peratom
1 2 0 0 0 -6.95703
2 1 1.78954 1.78954 0 -8.44308
3 3 1.78954 0 1.78954 -6.53283
4 1 0 1.78954 1.78954 -8.53108
101 3 0 0 3.57908 -6.48886
102 3 1.78954 1.78954 3.57908 -6.43338
5 3 3.57908 0 0 -6.51827
6 2 5.36861 1.78954 0 -6.96367
7 1 5.36861 0 1.78954 -8.58446
8 3 3.57908 1.78954 1.78954 -6.51514
105 2 3.57908 0 3.57908 -6.96193
106 3 5.36861 1.78954 3.57908 -6.43608
9 3 7.15815 0 0 -6.57532
10 2 8.94769 1.78954 0 -6.864
11 2 8.94769 0 1.78954 -6.97937
12 1 7.15815 1.78954 1.78954 -8.52504
109 3 7.15815 0 3.57908 -6.39104
110 1 8.94769 1.78954 3.57908 -8.45786
13 2 10.7372 0 0 -6.98202
14 1 12.5268 1.78954 0 -8.40033
15 2 12.5268 0 1.78954 -6.94666
16 1 10.7372 1.78954 1.78954 -8.43796
113 2 10.7372 0 3.57908 -6.99018
114 3 12.5268 1.78954 3.57908 -6.53969
17 3 14.3163 0 0 -6.42676
18 3 16.1058 1.78954 0 -6.60539
19 3 16.1058 0 1.78954 -6.39447
20 1 14.3163 1.78954 1.78954 -8.62783
117 3 14.3163 0 3.57908 -6.41003
118 2 16.1058 1.78954 3.57908 -6.9433
21 2 0 3.57908 0 -7.13378
22 1 1.78954 5.36861 0 -8.30418
23 2 1.78954 3.57908 1.78954 -6.98879
24 1 0 5.36861 1.78954 -8.18535
121 3 0 3.57908 3.57908 -6.38333
122 2 1.78954 5.36861 3.57908 -6.94315
25 2 3.57908 3.57908 0 -7.00145
26 1 5.36861 5.36861 0 -8.61116
27 3 5.36861 3.57908 1.78954 -6.44533
28 1 3.57908 5.36861 1.78954 -8.21967
125 1 3.57908 3.57908 3.57908 -8.41323
126 2 5.36861 5.36861 3.57908 -7.04738
29 3 7.15815 3.57908 0 -6.42165
30 1 8.94769 5.36861 0 -8.50602
31 3 8.94769 3.57908 1.78954 -6.34325
32 3 7.15815 5.36861 1.78954 -6.46456
129 3 7.15815 3.57908 3.57908 -6.48919
130 1 8.94769 5.36861 3.57908 -8.54633
33 3 10.7372 3.57908 0 -6.29223
34 2 12.5268 5.36861 0 -6.91841
35 2 12.5268 3.57908 1.78954 -6.96591
36 3 10.7372 5.36861 1.78954 -6.39945
133 2 10.7372 3.57908 3.57908 -6.99766
134 3 12.5268 5.36861 3.57908 -6.4714
37 3 14.3163 3.57908 0 -6.52875
38 3 16.1058 5.36861 0 -6.55868
39 3 16.1058 3.57908 1.78954 -6.59876
40 1 14.3163 5.36861 1.78954 -8.59492
137 2 14.3163 3.57908 3.57908 -7.00097
138 2 16.1058 5.36861 3.57908 -6.99173
41 2 0 7.15815 0 -7.00692
42 3 1.78954 8.94769 0 -6.46362
43 2 1.78954 7.15815 1.78954 -7.0008
44 3 0 8.94769 1.78954 -6.47497
141 1 0 7.15815 3.57908 -8.27317
142 1 1.78954 8.94769 3.57908 -8.29296
45 3 3.57908 7.15815 0 -6.4349
46 2 5.36861 8.94769 0 -7.03615
47 2 5.36861 7.15815 1.78954 -7.10257
48 1 3.57908 8.94769 1.78954 -8.37235
145 2 3.57908 7.15815 3.57908 -7.01355
146 2 5.36861 8.94769 3.57908 -7.00333
49 2 7.15815 7.15815 0 -6.97476
50 1 8.94769 8.94769 0 -8.39735
51 3 8.94769 7.15815 1.78954 -6.26245
52 3 7.15815 8.94769 1.78954 -6.51991
149 2 7.15815 7.15815 3.57908 -7.04498
150 1 8.94769 8.94769 3.57908 -8.52227
53 1 10.7372 7.15815 0 -8.35692
54 3 12.5268 8.94769 0 -6.42375
55 3 12.5268 7.15815 1.78954 -6.48565
56 3 10.7372 8.94769 1.78954 -6.35181
153 1 10.7372 7.15815 3.57908 -8.40413
154 2 12.5268 8.94769 3.57908 -6.87988
57 3 14.3163 7.15815 0 -6.45442
58 1 16.1058 8.94769 0 -8.43464
59 1 16.1058 7.15815 1.78954 -8.19162
60 2 14.3163 8.94769 1.78954 -6.96379
157 2 14.3163 7.15815 3.57908 -6.96842
158 1 16.1058 8.94769 3.57908 -8.3901
61 2 0 10.7372 0 -7.06278
62 3 1.78954 12.5268 0 -6.44295
63 2 1.78954 10.7372 1.78954 -6.95639
64 2 0 12.5268 1.78954 -7.06163
161 3 0 10.7372 3.57908 -6.27933
162 1 1.78954 12.5268 3.57908 -8.45103
65 1 3.57908 10.7372 0 -8.45883
66 2 5.36861 12.5268 0 -6.93061
67 3 5.36861 10.7372 1.78954 -6.43352
68 3 3.57908 12.5268 1.78954 -6.42078
165 3 3.57908 10.7372 3.57908 -6.33706
166 1 5.36861 12.5268 3.57908 -8.76038
69 1 7.15815 10.7372 0 -8.51999
70 2 8.94769 12.5268 0 -6.99346
71 2 8.94769 10.7372 1.78954 -6.85036
72 3 7.15815 12.5268 1.78954 -6.38806
169 3 7.15815 10.7372 3.57908 -6.35507
170 1 8.94769 12.5268 3.57908 -8.60705
73 2 10.7372 10.7372 0 -6.95617
74 3 12.5268 12.5268 0 -6.35382
75 1 12.5268 10.7372 1.78954 -8.61745
76 3 10.7372 12.5268 1.78954 -6.45829
173 3 10.7372 10.7372 3.57908 -6.28103
174 3 12.5268 12.5268 3.57908 -6.38913
77 2 14.3163 10.7372 0 -6.92105
78 3 16.1058 12.5268 0 -6.27165
79 3 16.1058 10.7372 1.78954 -6.34347
80 1 14.3163 12.5268 1.78954 -8.39387
177 2 14.3163 10.7372 3.57908 -6.98784
178 1 16.1058 12.5268 3.57908 -8.08556
81 2 0 14.3163 0 -7.01114
82 2 1.78954 16.1058 0 -6.9266
83 1 1.78954 14.3163 1.78954 -8.25687
84 1 0 16.1058 1.78954 -8.10623
181 2 0 14.3163 3.57908 -7.00025
182 1 1.78954 16.1058 3.57908 -8.13398
85 3 3.57908 14.3163 0 -6.40303
86 2 5.36861 16.1058 0 -6.92254
87 3 5.36861 14.3163 1.78954 -6.47292
88 1 3.57908 16.1058 1.78954 -8.33422
185 2 3.57908 14.3163 3.57908 -6.99897
186 2 5.36861 16.1058 3.57908 -6.97252
89 1 7.15815 14.3163 0 -8.32292
90 1 8.94769 16.1058 0 -8.21205
91 1 8.94769 14.3163 1.78954 -8.31543
92 2 7.15815 16.1058 1.78954 -6.97742
189 3 7.15815 14.3163 3.57908 -6.35002
190 2 8.94769 16.1058 3.57908 -6.85194
93 2 10.7372 14.3163 0 -6.99959
94 1 12.5268 16.1058 0 -8.33911
95 2 12.5268 14.3163 1.78954 -6.87521
96 1 10.7372 16.1058 1.78954 -8.4097
193 3 10.7372 14.3163 3.57908 -6.32806
194 3 12.5268 16.1058 3.57908 -6.32774
97 3 14.3163 14.3163 0 -6.22065
98 1 16.1058 16.1058 0 -8.2075
99 1 16.1058 14.3163 1.78954 -8.11632
100 1 14.3163 16.1058 1.78954 -8.27989
197 2 14.3163 14.3163 3.57908 -6.99384
198 3 16.1058 16.1058 3.57908 -6.37597
103 3 1.78954 0 5.36861 -6.51431
104 1 0 1.78954 5.36861 -8.50757
201 1 0 0 7.15815 -8.34787
202 2 1.78954 1.78954 7.15815 -6.98563
107 1 5.36861 0 5.36861 -8.40147
108 2 3.57908 1.78954 5.36861 -6.8486
203 1 3.57908 0 7.15815 -8.3309
204 3 5.36861 1.78954 7.15815 -6.4261
111 3 8.94769 0 5.36861 -6.37287
112 2 7.15815 1.78954 5.36861 -6.97321
205 1 7.15815 0 7.15815 -8.29136
206 2 8.94769 1.78954 7.15815 -6.98574
115 3 12.5268 0 5.36861 -6.52364
116 2 10.7372 1.78954 5.36861 -7.01676
207 1 10.7372 0 7.15815 -8.70032
208 3 12.5268 1.78954 7.15815 -6.62094
119 3 16.1058 0 5.36861 -6.43812
120 3 14.3163 1.78954 5.36861 -6.59837
209 2 14.3163 0 7.15815 -6.98395
210 2 16.1058 1.78954 7.15815 -7.0274
123 1 1.78954 3.57908 5.36861 -8.4137
124 3 0 5.36861 5.36861 -6.40002
211 3 0 3.57908 7.15815 -6.41816
212 3 1.78954 5.36861 7.15815 -6.3565
127 3 5.36861 3.57908 5.36861 -6.50914
128 1 3.57908 5.36861 5.36861 -8.45024
213 3 3.57908 3.57908 7.15815 -6.44624
214 2 5.36861 5.36861 7.15815 -7.02704
131 2 8.94769 3.57908 5.36861 -7.00553
132 2 7.15815 5.36861 5.36861 -7.08855
215 1 7.15815 3.57908 7.15815 -8.48561
216 1 8.94769 5.36861 7.15815 -8.33559
135 1 12.5268 3.57908 5.36861 -8.66588
136 3 10.7372 5.36861 5.36861 -6.34122
217 2 10.7372 3.57908 7.15815 -6.99661
218 2 12.5268 5.36861 7.15815 -6.87597
139 1 16.1058 3.57908 5.36861 -8.43312
140 2 14.3163 5.36861 5.36861 -6.98597
219 3 14.3163 3.57908 7.15815 -6.56446
220 2 16.1058 5.36861 7.15815 -6.99357
143 3 1.78954 7.15815 5.36861 -6.37389
144 3 0 8.94769 5.36861 -6.29674
221 1 0 7.15815 7.15815 -8.73936
222 2 1.78954 8.94769 7.15815 -6.90223
147 2 5.36861 7.15815 5.36861 -7.14577
148 1 3.57908 8.94769 5.36861 -8.36946
223 2 3.57908 7.15815 7.15815 -6.9736
224 2 5.36861 8.94769 7.15815 -7.05076
151 1 8.94769 7.15815 5.36861 -8.24195
152 3 7.15815 8.94769 5.36861 -6.43678
225 2 7.15815 7.15815 7.15815 -7.05675
226 1 8.94769 8.94769 7.15815 -8.15961
155 1 12.5268 7.15815 5.36861 -8.47618
156 3 10.7372 8.94769 5.36861 -6.10291
227 3 10.7372 7.15815 7.15815 -6.13972
228 1 12.5268 8.94769 7.15815 -8.30996
159 3 16.1058 7.15815 5.36861 -6.49997
160 3 14.3163 8.94769 5.36861 -6.42763
229 3 14.3163 7.15815 7.15815 -6.44141
230 3 16.1058 8.94769 7.15815 -6.52904
163 1 1.78954 10.7372 5.36861 -8.282
164 2 0 12.5268 5.36861 -6.98755
231 3 0 10.7372 7.15815 -6.32843
232 1 1.78954 12.5268 7.15815 -8.29909
167 3 5.36861 10.7372 5.36861 -6.44303
168 3 3.57908 12.5268 5.36861 -6.33674
233 2 3.57908 10.7372 7.15815 -6.95666
234 3 5.36861 12.5268 7.15815 -6.34411
171 1 8.94769 10.7372 5.36861 -8.43548
172 3 7.15815 12.5268 5.36861 -6.2573
235 1 7.15815 10.7372 7.15815 -8.38626
236 3 8.94769 12.5268 7.15815 -6.19406
175 1 12.5268 10.7372 5.36861 -8.6687
176 3 10.7372 12.5268 5.36861 -6.28423
237 3 10.7372 10.7372 7.15815 -6.1864
238 2 12.5268 12.5268 7.15815 -6.97147
179 2 16.1058 10.7372 5.36861 -6.94242
180 3 14.3163 12.5268 5.36861 -6.41461
239 2 14.3163 10.7372 7.15815 -6.95846
240 1 16.1058 12.5268 7.15815 -8.53217
183 2 1.78954 14.3163 5.36861 -6.97529
184 3 0 16.1058 5.36861 -6.40584
241 1 0 14.3163 7.15815 -8.33676
242 1 1.78954 16.1058 7.15815 -8.25347
187 1 5.36861 14.3163 5.36861 -8.27262
188 1 3.57908 16.1058 5.36861 -8.26382
243 2 3.57908 14.3163 7.15815 -6.99242
244 3 5.36861 16.1058 7.15815 -6.31302
191 2 8.94769 14.3163 5.36861 -6.8187
192 1 7.15815 16.1058 5.36861 -8.40692
245 1 7.15815 14.3163 7.15815 -8.33715
246 3 8.94769 16.1058 7.15815 -6.15907
195 1 12.5268 14.3163 5.36861 -8.56555
196 1 10.7372 16.1058 5.36861 -8.23309
247 1 10.7372 14.3163 7.15815 -8.39367
248 3 12.5268 16.1058 7.15815 -6.34821
199 1 16.1058 14.3163 5.36861 -8.40545
200 2 14.3163 16.1058 5.36861 -6.96824
249 2 14.3163 14.3163 7.15815 -7.05253
250 2 16.1058 16.1058 7.15815 -7.04887
251 2 1.78954 0 8.94769 -7.02446
252 1 0 1.78954 8.94769 -8.38852
301 2 0 0 10.7372 -6.99568
302 2 1.78954 1.78954 10.7372 -6.97354
303 3 1.78954 0 12.5268 -6.34622
304 1 0 1.78954 12.5268 -8.54328
253 2 5.36861 0 8.94769 -7.0014
254 1 3.57908 1.78954 8.94769 -8.44996
305 3 3.57908 0 10.7372 -6.50961
306 2 5.36861 1.78954 10.7372 -6.96021
307 3 5.36861 0 12.5268 -6.3534
308 1 3.57908 1.78954 12.5268 -8.3626
255 2 8.94769 0 8.94769 -7.03047
256 2 7.15815 1.78954 8.94769 -7.06424
309 3 7.15815 0 10.7372 -6.58258
310 2 8.94769 1.78954 10.7372 -7.06676
311 3 8.94769 0 12.5268 -6.48151
312 3 7.15815 1.78954 12.5268 -6.50675
257 3 12.5268 0 8.94769 -6.51378
258 3 10.7372 1.78954 8.94769 -6.56824
313 2 10.7372 0 10.7372 -6.90092
314 1 12.5268 1.78954 10.7372 -8.5785
315 1 12.5268 0 12.5268 -8.07457
316 3 10.7372 1.78954 12.5268 -6.44313
259 2 16.1058 0 8.94769 -7.06586
260 2 14.3163 1.78954 8.94769 -7.01277
317 2 14.3163 0 10.7372 -7.01125
318 3 16.1058 1.78954 10.7372 -6.52641
319 3 16.1058 0 12.5268 -6.35098
320 1 14.3163 1.78954 12.5268 -8.46097
261 1 1.78954 3.57908 8.94769 -8.5436
262 3 0 5.36861 8.94769 -6.37256
321 3 0 3.57908 10.7372 -6.35856
322 3 1.78954 5.36861 10.7372 -6.31231
323 2 1.78954 3.57908 12.5268 -7.03434
324 1 0 5.36861 12.5268 -8.24132
263 3 5.36861 3.57908 8.94769 -6.58743
264 3 3.57908 5.36861 8.94769 -6.47183
325 2 3.57908 3.57908 10.7372 -6.91608
326 3 5.36861 5.36861 10.7372 -6.42052
327 3 5.36861 3.57908 12.5268 -6.36437
328 1 3.57908 5.36861 12.5268 -8.26639
265 3 8.94769 3.57908 8.94769 -6.59823
266 2 7.15815 5.36861 8.94769 -7.00388
329 3 7.15815 3.57908 10.7372 -6.70945
330 2 8.94769 5.36861 10.7372 -6.91853
331 2 8.94769 3.57908 12.5268 -6.96504
332 3 7.15815 5.36861 12.5268 -6.45817
267 3 12.5268 3.57908 8.94769 -6.43221
268 1 10.7372 5.36861 8.94769 -8.39064
333 3 10.7372 3.57908 10.7372 -6.4286
334 1 12.5268 5.36861 10.7372 -8.24093
335 3 12.5268 3.57908 12.5268 -6.22625
336 1 10.7372 5.36861 12.5268 -8.38624
269 3 16.1058 3.57908 8.94769 -6.57596
270 1 14.3163 5.36861 8.94769 -8.48575
337 3 14.3163 3.57908 10.7372 -6.3374
338 2 16.1058 5.36861 10.7372 -7.02922
339 2 16.1058 3.57908 12.5268 -6.98426
340 1 14.3163 5.36861 12.5268 -8.32805
271 3 1.78954 7.15815 8.94769 -6.3153
272 1 0 8.94769 8.94769 -8.3908
341 1 0 7.15815 10.7372 -8.29181
342 2 1.78954 8.94769 10.7372 -7.00801
343 2 1.78954 7.15815 12.5268 -7.02361
344 2 0 8.94769 12.5268 -6.94697
273 1 5.36861 7.15815 8.94769 -8.3584
274 1 3.57908 8.94769 8.94769 -8.33577
345 1 3.57908 7.15815 10.7372 -8.29615
346 3 5.36861 8.94769 10.7372 -6.16982
347 1 5.36861 7.15815 12.5268 -8.39719
348 1 3.57908 8.94769 12.5268 -8.3122
275 2 8.94769 7.15815 8.94769 -6.89553
276 1 7.15815 8.94769 8.94769 -8.11674
349 3 7.15815 7.15815 10.7372 -6.38935
350 1 8.94769 8.94769 10.7372 -8.38764
351 3 8.94769 7.15815 12.5268 -6.43617
352 3 7.15815 8.94769 12.5268 -6.29755
277 1 12.5268 7.15815 8.94769 -8.16993
278 1 10.7372 8.94769 8.94769 -8.0346
353 3 10.7372 7.15815 10.7372 -6.21857
354 2 12.5268 8.94769 10.7372 -6.88298
355 1 12.5268 7.15815 12.5268 -8.39443
356 3 10.7372 8.94769 12.5268 -6.38447
279 2 16.1058 7.15815 8.94769 -6.97539
280 3 14.3163 8.94769 8.94769 -6.35948
357 1 14.3163 7.15815 10.7372 -8.20513
358 2 16.1058 8.94769 10.7372 -6.97923
359 2 16.1058 7.15815 12.5268 -7.03455
360 3 14.3163 8.94769 12.5268 -6.29447
281 3 1.78954 10.7372 8.94769 -6.3013
282 2 0 12.5268 8.94769 -6.90897
361 1 0 10.7372 10.7372 -8.27712
362 2 1.78954 12.5268 10.7372 -7.06337
363 1 1.78954 10.7372 12.5268 -8.0308
364 1 0 12.5268 12.5268 -8.16669
283 2 5.36861 10.7372 8.94769 -6.91452
284 1 3.57908 12.5268 8.94769 -8.29813
365 1 3.57908 10.7372 10.7372 -8.22948
366 3 5.36861 12.5268 10.7372 -6.29354
367 3 5.36861 10.7372 12.5268 -6.2751
368 1 3.57908 12.5268 12.5268 -8.47688
285 1 8.94769 10.7372 8.94769 -8.21044
286 2 7.15815 12.5268 8.94769 -6.88377
369 1 7.15815 10.7372 10.7372 -8.50303
370 3 8.94769 12.5268 10.7372 -6.24921
371 3 8.94769 10.7372 12.5268 -6.30101
372 2 7.15815 12.5268 12.5268 -6.88067
287 1 12.5268 10.7372 8.94769 -8.27442
288 2 10.7372 12.5268 8.94769 -6.93525
373 1 10.7372 10.7372 10.7372 -8.24519
374 3 12.5268 12.5268 10.7372 -6.28534
375 1 12.5268 10.7372 12.5268 -8.48481
376 3 10.7372 12.5268 12.5268 -6.30528
289 3 16.1058 10.7372 8.94769 -6.46877
290 2 14.3163 12.5268 8.94769 -7.05276
377 1 14.3163 10.7372 10.7372 -8.30802
378 1 16.1058 12.5268 10.7372 -8.35256
379 1 16.1058 10.7372 12.5268 -8.31226
380 3 14.3163 12.5268 12.5268 -6.24485
291 2 1.78954 14.3163 8.94769 -7.06764
292 2 0 16.1058 8.94769 -6.98621
381 1 0 14.3163 10.7372 -8.29282
382 1 1.78954 16.1058 10.7372 -8.18836
383 1 1.78954 14.3163 12.5268 -8.05689
384 1 0 16.1058 12.5268 -8.24899
293 1 5.36861 14.3163 8.94769 -8.22511
294 2 3.57908 16.1058 8.94769 -7.0214
385 2 3.57908 14.3163 10.7372 -6.98179
386 1 5.36861 16.1058 10.7372 -8.03644
387 3 5.36861 14.3163 12.5268 -6.48579
388 2 3.57908 16.1058 12.5268 -7.0141
295 1 8.94769 14.3163 8.94769 -8.37636
296 2 7.15815 16.1058 8.94769 -6.98266
389 1 7.15815 14.3163 10.7372 -8.37936
390 3 8.94769 16.1058 10.7372 -6.25366
391 2 8.94769 14.3163 12.5268 -6.95153
392 2 7.15815 16.1058 12.5268 -6.9938
297 2 12.5268 14.3163 8.94769 -6.9613
298 3 10.7372 16.1058 8.94769 -6.20426
393 1 10.7372 14.3163 10.7372 -8.47863
394 3 12.5268 16.1058 10.7372 -6.38764
395 2 12.5268 14.3163 12.5268 -6.94219
396 1 10.7372 16.1058 12.5268 -8.13225
299 3 16.1058 14.3163 8.94769 -6.57161
300 2 14.3163 16.1058 8.94769 -7.05569
397 1 14.3163 14.3163 10.7372 -8.5542
398 3 16.1058 16.1058 10.7372 -6.68183
399 2 16.1058 14.3163 12.5268 -6.9669
400 2 14.3163 16.1058 12.5268 -7.0245
401 3 0 0 14.3163 -6.40292
402 1 1.78954 1.78954 14.3163 -8.04532
403 1 1.78954 0 16.1058 -8.34701
404 1 0 1.78954 16.1058 -8.55567
405 1 3.57908 0 14.3163 -8.16539
406 1 5.36861 1.78954 14.3163 -8.11743
407 1 5.36861 0 16.1058 -8.09381
408 1 3.57908 1.78954 16.1058 -8.2475
409 1 7.15815 0 14.3163 -8.39381
410 2 8.94769 1.78954 14.3163 -6.93426
411 2 8.94769 0 16.1058 -6.9415
412 2 7.15815 1.78954 16.1058 -6.94441
413 1 10.7372 0 14.3163 -8.46866
414 2 12.5268 1.78954 14.3163 -6.89647
415 2 12.5268 0 16.1058 -6.97477
416 3 10.7372 1.78954 16.1058 -6.37627
417 3 14.3163 0 14.3163 -6.22971
418 1 16.1058 1.78954 14.3163 -8.2259
419 2 16.1058 0 16.1058 -6.94664
420 1 14.3163 1.78954 16.1058 -8.519
421 2 0 3.57908 14.3163 -6.93415
422 1 1.78954 5.36861 14.3163 -8.15187
423 2 1.78954 3.57908 16.1058 -7.01453
424 3 0 5.36861 16.1058 -6.39861
425 1 3.57908 3.57908 14.3163 -8.12231
426 3 5.36861 5.36861 14.3163 -6.24981
427 3 5.36861 3.57908 16.1058 -6.2405
428 1 3.57908 5.36861 16.1058 -8.35616
429 1 7.15815 3.57908 14.3163 -8.54366
430 3 8.94769 5.36861 14.3163 -6.29989
431 1 8.94769 3.57908 16.1058 -8.24191
432 3 7.15815 5.36861 16.1058 -6.30625
433 1 10.7372 3.57908 14.3163 -8.33367
434 3 12.5268 5.36861 14.3163 -6.21821
435 1 12.5268 3.57908 16.1058 -8.34225
436 1 10.7372 5.36861 16.1058 -8.29291
437 3 14.3163 3.57908 14.3163 -6.17491
438 1 16.1058 5.36861 14.3163 -8.29107
439 3 16.1058 3.57908 16.1058 -6.22474
440 1 14.3163 5.36861 16.1058 -8.40024
441 1 0 7.15815 14.3163 -8.49128
442 2 1.78954 8.94769 14.3163 -7.00008
443 3 1.78954 7.15815 16.1058 -6.43912
444 3 0 8.94769 16.1058 -6.57396
445 2 3.57908 7.15815 14.3163 -6.89858
446 3 5.36861 8.94769 14.3163 -6.35747
447 2 5.36861 7.15815 16.1058 -6.9159
448 1 3.57908 8.94769 16.1058 -8.64138
449 1 7.15815 7.15815 14.3163 -8.73364
450 2 8.94769 8.94769 14.3163 -6.95122
451 3 8.94769 7.15815 16.1058 -6.43011
452 3 7.15815 8.94769 16.1058 -6.41713
453 2 10.7372 7.15815 14.3163 -6.93015
454 3 12.5268 8.94769 14.3163 -6.51629
455 2 12.5268 7.15815 16.1058 -6.93513
456 2 10.7372 8.94769 16.1058 -7.05606
457 2 14.3163 7.15815 14.3163 -7.00466
458 1 16.1058 8.94769 14.3163 -8.59189
459 2 16.1058 7.15815 16.1058 -6.93194
460 3 14.3163 8.94769 16.1058 -6.52766
461 1 0 10.7372 14.3163 -8.47846
462 3 1.78954 12.5268 14.3163 -6.41925
463 3 1.78954 10.7372 16.1058 -6.54828
464 3 0 12.5268 16.1058 -6.54562
465 3 3.57908 10.7372 14.3163 -6.40528
466 3 5.36861 12.5268 14.3163 -6.48446
467 2 5.36861 10.7372 16.1058 -6.96255
468 2 3.57908 12.5268 16.1058 -7.00568
469 1 7.15815 10.7372 14.3163 -8.60533
470 1 8.94769 12.5268 14.3163 -8.6504
471 2 8.94769 10.7372 16.1058 -7.00369
472 2 7.15815 12.5268 16.1058 -6.96133
473 3 10.7372 10.7372 14.3163 -6.52213
474 1 12.5268 12.5268 14.3163 -8.58642
475 2 12.5268 10.7372 16.1058 -6.93893
476 3 10.7372 12.5268 16.1058 -6.42292
477 3 14.3163 10.7372 14.3163 -6.29719
478 1 16.1058 12.5268 14.3163 -8.47805
479 3 16.1058 10.7372 16.1058 -6.29218
480 1 14.3163 12.5268 16.1058 -8.57071
481 2 0 14.3163 14.3163 -7.01708
482 1 1.78954 16.1058 14.3163 -8.20455
483 3 1.78954 14.3163 16.1058 -6.46273
484 1 0 16.1058 16.1058 -8.19133
485 2 3.57908 14.3163 14.3163 -6.94862
486 3 5.36861 16.1058 14.3163 -6.52045
487 1 5.36861 14.3163 16.1058 -8.49272
488 3 3.57908 16.1058 16.1058 -6.33532
489 3 7.15815 14.3163 14.3163 -6.45821
490 1 8.94769 16.1058 14.3163 -8.25785
491 3 8.94769 14.3163 16.1058 -6.27617
492 1 7.15815 16.1058 16.1058 -8.24078
493 3 10.7372 14.3163 14.3163 -6.25298
494 1 12.5268 16.1058 14.3163 -8.23412
495 3 12.5268 14.3163 16.1058 -6.2321
496 1 10.7372 16.1058 16.1058 -8.25987
497 3 14.3163 14.3163 14.3163 -6.26194
498 1 16.1058 16.1058 14.3163 -8.4979
499 3 16.1058 14.3163 16.1058 -6.33607
500 1 14.3163 16.1058 16.1058 -8.4424
501 3 0 0 17.8954 -6.30361
502 2 1.78954 1.78954 17.8954 -6.9043
503 1 1.78954 0 19.6849 -8.40921
504 1 0 1.78954 19.6849 -8.50927
601 3 0 0 21.4745 -6.26713
602 3 1.78954 1.78954 21.4745 -6.15025
505 3 3.57908 0 17.8954 -6.28502
506 3 5.36861 1.78954 17.8954 -6.30979
507 3 5.36861 0 19.6849 -6.50796
508 1 3.57908 1.78954 19.6849 -8.52215
605 3 3.57908 0 21.4745 -6.4295
606 2 5.36861 1.78954 21.4745 -7.00676
509 1 7.15815 0 17.8954 -8.46655
510 2 8.94769 1.78954 17.8954 -6.96288
511 3 8.94769 0 19.6849 -6.37711
512 3 7.15815 1.78954 19.6849 -6.45298
609 3 7.15815 0 21.4745 -6.65781
610 3 8.94769 1.78954 21.4745 -6.38962
513 1 10.7372 0 17.8954 -8.46299
514 3 12.5268 1.78954 17.8954 -6.29985
515 1 12.5268 0 19.6849 -8.34186
516 1 10.7372 1.78954 19.6849 -8.35644
613 1 10.7372 0 21.4745 -8.27205
614 3 12.5268 1.78954 21.4745 -6.31413
517 3 14.3163 0 17.8954 -6.35142
518 3 16.1058 1.78954 17.8954 -6.50112
519 2 16.1058 0 19.6849 -6.91183
520 3 14.3163 1.78954 19.6849 -6.48404
617 3 14.3163 0 21.4745 -6.38211
618 3 16.1058 1.78954 21.4745 -6.41193
521 3 0 3.57908 17.8954 -6.3244
522 1 1.78954 5.36861 17.8954 -8.33671
523 1 1.78954 3.57908 19.6849 -8.31212
524 2 0 5.36861 19.6849 -6.90107
621 3 0 3.57908 21.4745 -6.21452
622 2 1.78954 5.36861 21.4745 -6.98564
525 2 3.57908 3.57908 17.8954 -6.95118
526 3 5.36861 5.36861 17.8954 -6.46993
527 3 5.36861 3.57908 19.6849 -6.49025
528 2 3.57908 5.36861 19.6849 -7.01351
625 2 3.57908 3.57908 21.4745 -6.99607
626 3 5.36861 5.36861 21.4745 -6.4481
529 1 7.15815 3.57908 17.8954 -8.68325
530 2 8.94769 5.36861 17.8954 -6.9609
531 3 8.94769 3.57908 19.6849 -6.39315
532 2 7.15815 5.36861 19.6849 -6.94466
629 1 7.15815 3.57908 21.4745 -8.61245
630 3 8.94769 5.36861 21.4745 -6.44749
533 2 10.7372 3.57908 17.8954 -6.83969
534 3 12.5268 5.36861 17.8954 -6.42919
535 3 12.5268 3.57908 19.6849 -6.43484
536 3 10.7372 5.36861 19.6849 -6.51437
633 1 10.7372 3.57908 21.4745 -8.51227
634 2 12.5268 5.36861 21.4745 -6.92699
537 3 14.3163 3.57908 17.8954 -6.40965
538 1 16.1058 5.36861 17.8954 -8.6258
539 2 16.1058 3.57908 19.6849 -6.8994
540 3 14.3163 5.36861 19.6849 -6.55778
637 1 14.3163 3.57908 21.4745 -8.70623
638 2 16.1058 5.36861 21.4745 -6.97239
541 2 0 7.15815 17.8954 -7.01129
542 2 1.78954 8.94769 17.8954 -7.00179
543 1 1.78954 7.15815 19.6849 -8.23594
544 1 0 8.94769 19.6849 -8.18488
641 3 0 7.15815 21.4745 -6.21587
642 2 1.78954 8.94769 21.4745 -6.90989
545 2 3.57908 7.15815 17.8954 -6.98032
546 3 5.36861 8.94769 17.8954 -6.48273
547 3 5.36861 7.15815 19.6849 -6.5818
548 3 3.57908 8.94769 19.6849 -6.4483
645 1 3.57908 7.15815 21.4745 -8.35353
646 2 5.36861 8.94769 21.4745 -7.02224
549 1 7.15815 7.15815 17.8954 -8.72968
550 2 8.94769 8.94769 17.8954 -6.99615
551 2 8.94769 7.15815 19.6849 -7.01095
552 2 7.15815 8.94769 19.6849 -7.04219
649 2 7.15815 7.15815 21.4745 -7.01807
650 3 8.94769 8.94769 21.4745 -6.45596
553 1 10.7372 7.15815 17.8954 -8.61489
554 3 12.5268 8.94769 17.8954 -6.50188
555 3 12.5268 7.15815 19.6849 -6.45338
556 3 10.7372 8.94769 19.6849 -6.43633
653 3 10.7372 7.15815 21.4745 -6.50579
654 1 12.5268 8.94769 21.4745 -8.64527
557 3 14.3163 7.15815 17.8954 -6.4121
558 1 16.1058 8.94769 17.8954 -8.48345
559 2 16.1058 7.15815 19.6849 -6.88571
560 1 14.3163 8.94769 19.6849 -8.43218
657 3 14.3163 7.15815 21.4745 -6.56986
658 3 16.1058 8.94769 21.4745 -6.44233
561 2 0 10.7372 17.8954 -7.01447
562 1 1.78954 12.5268 17.8954 -8.5078
563 1 1.78954 10.7372 19.6849 -8.30538
564 3 0 12.5268 19.6849 -6.4336
661 2 0 10.7372 21.4745 -7.10765
662 1 1.78954 12.5268 21.4745 -8.39008
565 2 3.57908 10.7372 17.8954 -7.01041
566 3 5.36861 12.5268 17.8954 -6.43475
567 1 5.36861 10.7372 19.6849 -8.54794
568 2 3.57908 12.5268 19.6849 -7.00741
665 3 3.57908 10.7372 21.4745 -6.297
666 2 5.36861 12.5268 21.4745 -6.92142
569 1 7.15815 10.7372 17.8954 -8.40644
570 2 8.94769 12.5268 17.8954 -6.98911
571 1 8.94769 10.7372 19.6849 -8.34079
572 2 7.15815 12.5268 19.6849 -7.02042
669 3 7.15815 10.7372 21.4745 -6.3738
670 1 8.94769 12.5268 21.4745 -8.23472
573 1 10.7372 10.7372 17.8954 -8.49176
574 2 12.5268 12.5268 17.8954 -6.94008
575 3 12.5268 10.7372 19.6849 -6.45717
576 2 10.7372 12.5268 19.6849 -7.00974
673 3 10.7372 10.7372 21.4745 -6.38993
674 1 12.5268 12.5268 21.4745 -8.63926
577 3 14.3163 10.7372 17.8954 -6.41976
578 2 16.1058 12.5268 17.8954 -6.84921
579 1 16.1058 10.7372 19.6849 -8.27159
580 2 14.3163 12.5268 19.6849 -6.97957
677 2 14.3163 10.7372 21.4745 -7.01969
678 2 16.1058 12.5268 21.4745 -7.02395
581 2 0 14.3163 17.8954 -6.97817
582 1 1.78954 16.1058 17.8954 -8.41548
583 2 1.78954 14.3163 19.6849 -6.92934
584 3 0 16.1058 19.6849 -6.43049
681 3 0 14.3163 21.4745 -6.52746
682 1 1.78954 16.1058 21.4745 -8.55273
585 2 3.57908 14.3163 17.8954 -7.01177
586 3 5.36861 16.1058 17.8954 -6.2444
587 1 5.36861 14.3163 19.6849 -8.37754
588 2 3.57908 16.1058 19.6849 -6.98346
685 3 3.57908 14.3163 21.4745 -6.39702
686 2 5.36861 16.1058 21.4745 -6.98896
589 1 7.15815 14.3163 17.8954 -8.28451
590 3 8.94769 16.1058 17.8954 -6.1543
591 2 8.94769 14.3163 19.6849 -6.97402
592 1 7.15815 16.1058 19.6849 -8.16362
689 1 7.15815 14.3163 21.4745 -8.27866
690 3 8.94769 16.1058 21.4745 -6.37097
593 1 10.7372 14.3163 17.8954 -8.49143
594 3 12.5268 16.1058 17.8954 -6.30265
595 3 12.5268 14.3163 19.6849 -6.52376
596 1 10.7372 16.1058 19.6849 -8.58099
693 2 10.7372 14.3163 21.4745 -7.04443
694 2 12.5268 16.1058 21.4745 -7.02868
597 3 14.3163 14.3163 17.8954 -6.4051
598 3 16.1058 16.1058 17.8954 -6.59742
599 3 16.1058 14.3163 19.6849 -6.58181
600 1 14.3163 16.1058 19.6849 -8.74798
697 2 14.3163 14.3163 21.4745 -7.06815
698 3 16.1058 16.1058 21.4745 -6.69531
603 1 1.78954 0 23.264 -8.38461
604 1 0 1.78954 23.264 -8.34199
701 2 0 0 25.0535 -7.03593
702 2 1.78954 1.78954 25.0535 -6.98811
607 2 5.36861 0 23.264 -7.12867
608 1 3.57908 1.78954 23.264 -8.26225
703 2 3.57908 0 25.0535 -7.00044
704 1 5.36861 1.78954 25.0535 -8.29874
611 3 8.94769 0 23.264 -6.37678
612 2 7.15815 1.78954 23.264 -7.00226
705 1 7.15815 0 25.0535 -8.42562
706 1 8.94769 1.78954 25.0535 -8.36782
615 1 12.5268 0 23.264 -8.48271
616 2 10.7372 1.78954 23.264 -6.93943
707 1 10.7372 0 25.0535 -8.20086
708 2 12.5268 1.78954 25.0535 -7.00755
619 3 16.1058 0 23.264 -6.31141
620 3 14.3163 1.78954 23.264 -6.42007
709 2 14.3163 0 25.0535 -6.98816
710 1 16.1058 1.78954 25.0535 -8.31149
623 1 1.78954 3.57908 23.264 -8.16542
624 1 0 5.36861 23.264 -8.0125
711 2 0 3.57908 25.0535 -7.00885
712 1 1.78954 5.36861 25.0535 -8.0079
627 2 5.36861 3.57908 23.264 -7.0462
628 1 3.57908 5.36861 23.264 -8.03156
713 2 3.57908 3.57908 25.0535 -7.02264
714 1 5.36861 5.36861 25.0535 -8.08005
631 2 8.94769 3.57908 23.264 -7.01399
632 1 7.15815 5.36861 23.264 -8.20325
715 2 7.15815 3.57908 25.0535 -6.96288
716 1 8.94769 5.36861 25.0535 -8.27884
635 2 12.5268 3.57908 23.264 -6.98506
636 1 10.7372 5.36861 23.264 -8.22261
717 3 10.7372 3.57908 25.0535 -6.40308
718 1 12.5268 5.36861 25.0535 -8.4304
639 2 16.1058 3.57908 23.264 -6.92938
640 3 14.3163 5.36861 23.264 -6.50267
719 1 14.3163 3.57908 25.0535 -8.20993
720 1 16.1058 5.36861 25.0535 -8.62404
643 1 1.78954 7.15815 23.264 -8.12887
644 3 0 8.94769 23.264 -6.25828
721 1 0 7.15815 25.0535 -8.04135
722 1 1.78954 8.94769 25.0535 -8.25878
647 2 5.36861 7.15815 23.264 -7.03034
648 3 3.57908 8.94769 23.264 -6.18186
723 1 3.57908 7.15815 25.0535 -8.10786
724 1 5.36861 8.94769 25.0535 -8.23746
651 1 8.94769 7.15815 23.264 -8.24457
652 2 7.15815 8.94769 23.264 -7.05401
725 1 7.15815 7.15815 25.0535 -8.14748
726 1 8.94769 8.94769 25.0535 -8.04959
655 2 12.5268 7.15815 23.264 -6.93587
656 2 10.7372 8.94769 23.264 -6.95618
727 2 10.7372 7.15815 25.0535 -6.9988
728 1 12.5268 8.94769 25.0535 -8.38068
659 2 16.1058 7.15815 23.264 -6.95933
660 3 14.3163 8.94769 23.264 -6.54729
729 3 14.3163 7.15815 25.0535 -6.48119
730 2 16.1058 8.94769 25.0535 -6.93913
663 1 1.78954 10.7372 23.264 -8.29621
664 2 0 12.5268 23.264 -7.01819
731 3 0 10.7372 25.0535 -6.24186
732 1 1.78954 12.5268 25.0535 -8.23994
667 1 5.36861 10.7372 23.264 -8.41571
668 1 3.57908 12.5268 23.264 -8.29967
733 1 3.57908 10.7372 25.0535 -8.06948
734 3 5.36861 12.5268 25.0535 -6.2378
671 1 8.94769 10.7372 23.264 -8.34896
672 3 7.15815 12.5268 23.264 -6.28653
735 2 7.15815 10.7372 25.0535 -6.92745
736 2 8.94769 12.5268 25.0535 -6.88106
675 3 12.5268 10.7372 23.264 -6.40333
676 2 10.7372 12.5268 23.264 -7.01857
737 1 10.7372 10.7372 25.0535 -8.24119
738 3 12.5268 12.5268 25.0535 -6.50626
679 2 16.1058 10.7372 23.264 -7.03405
680 2 14.3163 12.5268 23.264 -7.00557
739 1 14.3163 10.7372 25.0535 -8.42942
740 1 16.1058 12.5268 25.0535 -8.45846
683 2 1.78954 14.3163 23.264 -6.98713
684 2 0 16.1058 23.264 -7.14265
741 2 0 14.3163 25.0535 -7.08094
742 2 1.78954 16.1058 25.0535 -7.00731
687 3 5.36861 14.3163 23.264 -6.34134
688 1 3.57908 16.1058 23.264 -8.3576
743 3 3.57908 14.3163 25.0535 -6.22535
744 3 5.36861 16.1058 25.0535 -6.19012
691 1 8.94769 14.3163 23.264 -8.40849
692 3 7.15815 16.1058 23.264 -6.28154
745 1 7.15815 14.3163 25.0535 -8.4164
746 3 8.94769 16.1058 25.0535 -6.3292
695 2 12.5268 14.3163 23.264 -7.04803
696 2 10.7372 16.1058 23.264 -6.96073
747 3 10.7372 14.3163 25.0535 -6.43542
748 3 12.5268 16.1058 25.0535 -6.47917
699 3 16.1058 14.3163 23.264 -6.5532
700 3 14.3163 16.1058 23.264 -6.58873
749 3 14.3163 14.3163 25.0535 -6.52735
750 1 16.1058 16.1058 25.0535 -8.69459
751 3 1.78954 0 26.8431 -6.26657
752 1 0 1.78954 26.8431 -8.0997
801 1 0 0 28.6326 -8.13772
802 1 1.78954 1.78954 28.6326 -7.95228
803 2 1.78954 0 30.4221 -6.98504
804 1 0 1.78954 30.4221 -8.40479
753 3 5.36861 0 26.8431 -6.4332
754 3 3.57908 1.78954 26.8431 -6.29271
805 1 3.57908 0 28.6326 -8.46432
806 3 5.36861 1.78954 28.6326 -6.41504
807 3 5.36861 0 30.4221 -6.47748
808 1 3.57908 1.78954 30.4221 -8.18422
755 3 8.94769 0 26.8431 -6.40923
756 3 7.15815 1.78954 26.8431 -6.44306
809 3 7.15815 0 28.6326 -6.63725
810 3 8.94769 1.78954 28.6326 -6.53936
811 2 8.94769 0 30.4221 -6.96307
812 2 7.15815 1.78954 30.4221 -6.93725
757 2 12.5268 0 26.8431 -7.05163
758 1 10.7372 1.78954 26.8431 -8.32615
813 1 10.7372 0 28.6326 -8.40646
814 2 12.5268 1.78954 28.6326 -7.0961
815 2 12.5268 0 30.4221 -7.1042
816 3 10.7372 1.78954 30.4221 -6.51709
759 2 16.1058 0 26.8431 -7.01942
760 1 14.3163 1.78954 26.8431 -8.21036
817 2 14.3163 0 28.6326 -7.05155
818 2 16.1058 1.78954 28.6326 -7.03866
819 1 16.1058 0 30.4221 -8.23408
820 1 14.3163 1.78954 30.4221 -8.19203
761 1 1.78954 3.57908 26.8431 -8.19667
762 3 0 5.36861 26.8431 -6.16225
821 1 0 3.57908 28.6326 -8.40732
822 3 1.78954 5.36861 28.6326 -6.11866
823 1 1.78954 3.57908 30.4221 -8.33349
824 3 0 5.36861 30.4221 -6.23219
763 1 5.36861 3.57908 26.8431 -8.27567
764 3 3.57908 5.36861 26.8431 -6.21997
825 1 3.57908 3.57908 28.6326 -8.32504
826 2 5.36861 5.36861 28.6326 -7.05023
827 3 5.36861 3.57908 30.4221 -6.5208
828 3 3.57908 5.36861 30.4221 -6.50806
765 3 8.94769 3.57908 26.8431 -6.43313
766 2 7.15815 5.36861 26.8431 -7.01877
829 2 7.15815 3.57908 28.6326 -6.9777
830 1 8.94769 5.36861 28.6326 -8.41507
831 1 8.94769 3.57908 30.4221 -8.48515
832 2 7.15815 5.36861 30.4221 -7.06293
767 2 12.5268 3.57908 26.8431 -7.06401
768 2 10.7372 5.36861 26.8431 -6.96642
833 2 10.7372 3.57908 28.6326 -7.02381
834 3 12.5268 5.36861 28.6326 -6.5329
835 2 12.5268 3.57908 30.4221 -7.04287