ITEM: TIMESTEP
0
ITEM: NUMBER OF ATOMS
4000
ITEM: BOX BOUNDS pp pp pp
0.0000000000000000e+00 3.5734059999999999e+01
0.0000000000000000e+00 3.5734059999999999e+01
0.0000000000000000e+00 3.5734059999999999e+01
ITEM: ATOMS id type x y z c_peratom
1 3 0 0 0 -6.37238
2 3 1.7867 1.7867 0 -6.26475
3 1 1.7867 0 1.7867 -8.24165
4 3 0 1.7867 1.7867 -6.28238
101 1 0 0 3.57341 -8.23263
102 1 1.7867 1.7867 3.57341 -8.0443
5 3 3.57341 0 0 -6.24844
6 3 5.36011 1.7867 0 -6.35022
7 2 5.36011 0 1.7867 -6.94988
8 1 3.57341 1.7867 1.7867 -8.38594
105 3 3.57341 0 3.57341 -6.21833
106 2 5.36011 1.7867 3.57341 -7.02738
9 3 7.14681 0 0 -6.44886
10 2 8.93351 1.7867 0 -7.10522
11 2 8.93351 0 1.7867 -7.06202
12 2 7.14681 1.7867 1.7867 -7.06352
13 3 10.7202 0 0 -6.58017
16 2 10.7202 1.7867 1.7867 -7.14052
109 1 7.14681 0 3.57341 -8.03587
110 1 8.93351 1.7867 3.57341 -8.31055
113 3 10.7202 0 3.57341 -6.56682
14 2 12.5069 1.7867 0 -7.07466
15 3 12.5069 0 1.7867 -6.52181
114 2 12.5069 1.7867 3.57341 -7.01229
17 2 14.2936 0 0 -6.96308
18 2 16.0803 1.7867 0 -6.92675
19 3 16.0803 0 1.7867 -6.39664
20 1 14.2936 1.7867 1.7867 -8.60369
117 3 14.2936 0 3.57341 -6.38245
118 1 16.0803 1.7867 3.57341 -8.51947
21 2 0 3.57341 0 -6.94617
22 1 1.7867 5.36011 0 -8.48468
23 1 1.7867 3.57341 1.7867 -8.22128
24 3 0 5.36011 1.7867 -6.24397
121 1 0 3.57341 3.57341 -8.14085
122 1 1.7867 5.36011 3.57341 -8.26722
25 3 3.57341 3.57341 0 -6.19518
26 1 5.36011 5.36011 0 -8.36686
27 1 5.36011 3.57341 1.7867 -8.35453
28 2 3.57341 5.36011 1.7867 -6.88505
125 2 3.57341 3.57341 3.57341 -7.05357
126 3 5.36011 5.36011 3.57341 -6.33725
29 2 7.14681 3.57341 0 -7.09533
30 2 8.93351 5.36011 0 -7.05547
31 2 8.93351 3.57341 1.7867 -7.11233
32 1 7.14681 5.36011 1.7867 -8.5075
33 2 10.7202 3.57341 0 -7.13131
36 1 10.7202 5.36011 1.7867 -8.34717
129 2 7.14681 3.57341 3.57341 -7.05625
130 2 8.93351 5.36011 3.57341 -6.95951
133 2 10.7202 3.57341 3.57341 -7.08582
34 1 12.5069 5.36011 0 -8.56076
35 2 12.5069 3.57341 1.7867 -7.10177
134 2 12.5069 5.36011 3.57341 -6.99689
37 2 14.2936 3.57341 0 -7.01286
38 3 16.0803 5.36011 0 -6.48902
39 3 16.0803 3.57341 1.7867 -6.37051
40 2 14.2936 5.36011 1.7867 -6.94098
137 3 14.2936 3.57341 3.57341 -6.48366
138 1 16.0803 5.36011 3.57341 -8.53067
41 3 0 7.14681 0 -6.24958
42 2 1.7867 8.93351 0 -6.84542
43 3 1.7867 7.14681 1.7867 -6.26783
44 1 0 8.93351 1.7867 -8.46516
61 1 0 10.7202 0 -8.09418
63 2 1.7867 10.7202 1.7867 -6.90789
141 3 0 7.14681 3.57341 -6.30538
142 1 1.7867 8.93351 3.57341 -8.34105
161 3 0 10.7202 3.57341 -6.31343
45 3 3.57341 7.14681 0 -6.29092
46 3 5.36011 8.93351 0 -6.30709
47 3 5.36011 7.14681 1.7867 -6.27608
48 1 3.57341 8.93351 1.7867 -8.52281
65 3 3.57341 10.7202 0 -6.3338
67 3 5.36011 10.7202 1.7867 -6.18833
145 2 3.57341 7.14681 3.57341 -6.925
146 1 5.36011 8.93351 3.57341 -8.13889
165 1 3.57341 10.7202 3.57341 -8.28035
49 2 7.14681 7.14681 0 -6.97679
50 2 8.93351 8.93351 0 -6.962
51 3 8.93351 7.14681 1.7867 -6.2912
52 1 7.14681 8.93351 1.7867 -8.46171
53 2 10.7202 7.14681 0 -6.95476
56 1 10.7202 8.93351 1.7867 -8.43094
69 2 7.14681 10.7202 0 -6.91252
71 2 8.93351 10.7202 1.7867 -7.05795
73 3 10.7202 10.7202 0 -6.40783
149 3 7.14681 7.14681 3.57341 -6.19939
150 1 8.93351 8.93351 3.57341 -8.14998
153 1 10.7202 7.14681 3.57341 -8.2063
169 1 7.14681 10.7202 3.57341 -8.01832
173 2 10.7202 10.7202 3.57341 -7.04323
54 3 12.5069 8.93351 0 -6.41889
55 3 12.5069 7.14681 1.7867 -6.32915
75 2 12.5069 10.7202 1.7867 -6.97144
154 1 12.5069 8.93351 3.57341 -8.20995
57 3 14.2936 7.14681 0 -6.43517
58 1 16.0803 8.93351 0 -8.48552
59 3 16.0803 7.14681 1.7867 -6.30156
60 1 14.2936 8.93351 1.7867 -8.39152
77 3 14.2936 10.7202 0 -6.39481
79 1 16.0803 10.7202 1.7867 -8.15109
157 2 14.2936 7.14681 3.57341 -6.9717
158 1 16.0803 8.93351 3.57341 -8.44179
177 3 14.2936 10.7202 3.57341 -6.36411
62 1 1.7867 12.5069 0 -8.2928
64 1 0 12.5069 1.7867 -8.20444
162 3 1.7867 12.5069 3.57341 -6.27206
66 1 5.36011 12.5069 0 -8.54697
68 3 3.57341 12.5069 1.7867 -6.31445
166 2 5.36011 12.5069 3.57341 -6.93864
70 1 8.93351 12.5069 0 -8.23623
72 1 7.14681 12.5069 1.7867 -8.11727
76 2 10.7202 12.5069 1.7867 -7.02649
170 1 8.93351 12.5069 3.57341 -8.27224
74 3 12.5069 12.5069 0 -6.40188
174 2 12.5069 12.5069 3.57341 -7.00092
78 1 16.0803 12.5069 0 -8.45731
80 3 14.2936 12.5069 1.7867 -6.32517
178 1 16.0803 12.5069 3.57341 -8.50364
81 2 0 14.2936 0 -7.00335
82 2 1.7867 16.0803 0 -6.94982
83 1 1.7867 14.2936 1.7867 -8.57422
84 3 0 16.0803 1.7867 -6.39964
181 2 0 14.2936 3.57341 -6.85805
182 3 1.7867 16.0803 3.57341 -6.38575
85 2 3.57341 14.2936 0 -6.88667
86 1 5.36011 16.0803 0 -8.29526
87 1 5.36011 14.2936 1.7867 -8.32584
88 3 3.57341 16.0803 1.7867 -6.31322
185 3 3.57341 14.2936 3.57341 -6.27269
186 3 5.36011 16.0803 3.57341 -6.2794
89 1 7.14681 14.2936 0 -8.11737
90 2 8.93351 16.0803 0 -6.97366
91 3 8.93351 14.2936 1.7867 -6.19968
92 1 7.14681 16.0803 1.7867 -8.35628
93 1 10.7202 14.2936 0 -8.15428
96 2 10.7202 16.0803 1.7867 -7.03518
189 3 7.14681 14.2936 3.57341 -6.24287
190 1 8.93351 16.0803 3.57341 -8.44383
193 1 10.7202 14.2936 3.57341 -8.1431
94 2 12.5069 16.0803 0 -7.01255
95 1 12.5069 14.2936 1.7867 -8.15798
194 1 12.5069 16.0803 3.57341 -8.11497
97 1 14.2936 14.2936 0 -8.16458
98 1 16.0803 16.0803 0 -8.30587
99 3 16.0803 14.2936 1.7867 -6.40754
100 1 14.2936 16.0803 1.7867 -8.34114
197 2 14.2936 14.2936 3.57341 -6.95303
198 3 16.0803 16.0803 3.57341 -6.41816
103 3 1.7867 0 5.36011 -6.30337
104 3 0 1.7867 5.36011 -6.18938
201 1 0 0 7.14681 -8.48627
202 3 1.7867 1.7867 7.14681 -6.37251
107 1 5.36011 0 5.36011 -8.06247
108 1 3.57341 1.7867 5.36011 -8.32707
203 3 3.57341 0 7.14681 -6.33956
204 2 5.36011 1.7867 7.14681 -6.94484
111 2 8.93351 0 5.36011 -7.02935
112 1 7.14681 1.7867 5.36011 -8.18585
116 2 10.7202 1.7867 5.36011 -6.94533
205 2 7.14681 0 7.14681 -6.96711
206 3 8.93351 1.7867 7.14681 -6.49308
207 3 10.7202 0 7.14681 -6.53398
115 1 12.5069 0 5.36011 -8.50737
208 3 12.5069 1.7867 7.14681 -6.36929
119 2 16.0803 0 5.36011 -6.96924
120 2 14.2936 1.7867 5.36011 -6.91371
209 1 14.2936 0 7.14681 -8.25597
210 3 16.0803 1.7867 7.14681 -6.319
123 1 1.7867 3.57341 5.36011 -8.2125
124 1 0 5.36011 5.36011 -8.22538
211 2 0 3.57341 7.14681 -6.8915
212 3 1.7867 5.36011 7.14681 -6.38466
127 1 5.36011 3.57341 5.36011 -8.31633
128 1 3.57341 5.36011 5.36011 -8.4729
213 3 3.57341 3.57341 7.14681 -6.3104
214 3 5.36011 5.36011 7.14681 -6.35819
131 1 8.93351 3.57341 5.36011 -8.4072
132 1 7.14681 5.36011 5.36011 -8.53618
136 3 10.7202 5.36011 5.36011 -6.33767
215 3 7.14681 3.57341 7.14681 -6.42229
216 2 8.93351 5.36011 7.14681 -6.85391
217 3 10.7202 3.57341 7.14681 -6.43432
135 1 12.5069 3.57341 5.36011 -8.63628
218 3 12.5069 5.36011 7.14681 -6.23735
139 2 16.0803 3.57341 5.36011 -6.92219
140 3 14.2936 5.36011 5.36011 -6.39843
219 1 14.2936 3.57341 7.14681 -8.48228
220 2 16.0803 5.36011 7.14681 -6.99079
143 3 1.7867 7.14681 5.36011 -6.23674
144 3 0 8.93351 5.36011 -6.41672
163 1 1.7867 10.7202 5.36011 -8.40773
221 2 0 7.14681 7.14681 -6.96861
222 1 1.7867 8.93351 7.14681 -8.54997
231 3 0 10.7202 7.14681 -6.4244
147 2 5.36011 7.14681 5.36011 -6.86997
148 1 3.57341 8.93351 5.36011 -8.20434
167 2 5.36011 10.7202 5.36011 -7.03864
223 3 3.57341 7.14681 7.14681 -6.3439
224 2 5.36011 8.93351 7.14681 -6.92812
233 1 3.57341 10.7202 7.14681 -8.3678
151 3 8.93351 7.14681 5.36011 -6.21692
152 1 7.14681 8.93351 5.36011 -8.2967
156 1 10.7202 8.93351 5.36011 -8.01013
171 2 8.93351 10.7202 5.36011 -7.10526
225 3 7.14681 7.14681 7.14681 -6.40823
226 1 8.93351 8.93351 7.14681 -8.16594
227 1 10.7202 7.14681 7.14681 -8.17243
235 2 7.14681 10.7202 7.14681 -7.0235
237 2 10.7202 10.7202 7.14681 -7.0662
155 1 12.5069 7.14681 5.36011 -8.18683
175 2 12.5069 10.7202 5.36011 -7.04693
228 1 12.5069 8.93351 7.14681 -8.1197
159 2 16.0803 7.14681 5.36011 -7.00405
160 2 14.2936 8.93351 5.36011 -7.0113
179 3 16.0803 10.7202 5.36011 -6.46749
229 1 14.2936 7.14681 7.14681 -8.38673
230 2 16.0803 8.93351 7.14681 -6.96322
239 1 14.2936 10.7202 7.14681 -8.66214
164 3 0 12.5069 5.36011 -6.24259
232 3 1.7867 12.5069 7.14681 -6.2832
168 2 3.57341 12.5069 5.36011 -6.89129
234 3 5.36011 12.5069 7.14681 -6.31558
172 1 7.14681 12.5069 5.36011 -8.2659
176 3 10.7202 12.5069 5.36011 -6.54939
236 2 8.93351 12.5069 7.14681 -7.07958
238 2 12.5069 12.5069 7.14681 -6.99808
180 3 14.2936 12.5069 5.36011 -6.4127
240 3 16.0803 12.5069 7.14681 -6.39775
183 1 1.7867 14.2936 5.36011 -8.62958
184 2 0 16.0803 5.36011 -7.03713
241 1 0 14.2936 7.14681 -8.32119
242 1 1.7867 16.0803 7.14681 -8.54303
187 1 5.36011 14.2936 5.36011 -8.55917
188 3 3.57341 16.0803 5.36011 -6.2852
243 2 3.57341 14.2936 7.14681 -6.92824
244 1 5.36011 16.0803 7.14681 -8.22313
191 2 8.93351 14.2936 5.36011 -7.02403
192 3 7.14681 16.0803 5.36011 -6.41262
196 2 10.7202 16.0803 5.36011 -7.09483
245 2 7.14681 14.2936 7.14681 -7.05515
246 2 8.93351 16.0803 7.14681 -7.06525
247 2 10.7202 14.2936 7.14681 -7.10022
195 1 12.5069 14.2936 5.36011 -8.28217
248 1 12.5069 16.0803 7.14681 -8.18099
199 1 16.0803 14.2936 5.36011 -8.25941
200 1 14.2936 16.0803 5.36011 -8.14648
249 2 14.2936 14.2936 7.14681 -6.96064
250 1 16.0803 16.0803 7.14681 -8.08589
251 2 1.7867 0 8.93351 -6.98744
252 3 0 1.7867 8.93351 -6.30092
301 1 0 0 10.7202 -8.38607
302 2 1.7867 1.7867 10.7202 -7.01611
303 3 1.7867 0 12.5069 -6.35365
304 2 0 1.7867 12.5069 -6.98597
253 3 5.36011 0 8.93351 -6.3268
254 2 3.57341 1.7867 8.93351 -6.95279
305 2 3.57341 0 10.7202 -6.96286
306 1 5.36011 1.7867 10.7202 -8.3946
307 2 5.36011 0 12.5069 -7.00146
308 1 3.57341 1.7867 12.5069 -8.4748
255 3 8.93351 0 8.93351 -6.36156
256 3 7.14681 1.7867 8.93351 -6.37282
258 3 10.7202 1.7867 8.93351 -6.46033
309 1 7.14681 0 10.7202 -8.24475
310 1 8.93351 1.7867 10.7202 -8.28257
311 1 8.93351 0 12.5069 -8.15082
312 1 7.14681 1.7867 12.5069 -8.17534
313 2 10.7202 0 10.7202 -6.89215
316 2 10.7202 1.7867 12.5069 -7.01606
257 3 12.5069 0 8.93351 -6.32786
314 2 12.5069 1.7867 10.7202 -6.91481
315 3 12.5069 0 12.5069 -6.31011
259 2 16.0803 0 8.93351 -6.92805
260 1 14.2936 1.7867 8.93351 -8.34184
317 1 14.2936 0 10.7202 -8.31253
318 3 16.0803 1.7867 10.7202 -6.29874
319 1 16.0803 0 12.5069 -8.26825
320 2 14.2936 1.7867 12.5069 -6.93554
261 1 1.7867 3.57341 8.93351 -8.70512
262 3 0 5.36011 8.93351 -6.36881
321 1 0 3.57341 10.7202 -8.30154
322 3 1.7867 5.36011 10.7202 -6.29835
323 1 1.7867 3.57341 12.5069 -8.25691
324 1 0 5.36011 12.5069 -8.22161
263 3 5.36011 3.57341 8.93351 -6.49017
264 3 3.57341 5.36011 8.93351 -6.4206
325 3 3.57341 3.57341 10.7202 -6.37352
326 2 5.36011 5.36011 10.7202 -6.87059
327 3 5.36011 3.57341 12.5069 -6.264
328 1 3.57341 5.36011 12.5069 -8.60123
265 3 8.93351 3.57341 8.93351 -6.34896
266 3 7.14681 5.36011 8.93351 -6.46145
268 1 10.7202 5.36011 8.93351 -8.36876
329 1 7.14681 3.57341 10.7202 -8.27822
330 1 8.93351 5.36011 10.7202 -8.22241
331 1 8.93351 3.57341 12.5069 -8.24044
332 1 7.14681 5.36011 12.5069 -8.30548
333 1 10.7202 3.57341 10.7202 -8.37574
336 3 10.7202 5.36011 12.5069 -6.41416
267 3 12.5069 3.57341 8.93351 -6.27612
334 3 12.5069 5.36011 10.7202 -6.27132
335 2 12.5069 3.57341 12.5069 -6.93013
269 2 16.0803 3.57341 8.93351 -6.95542
270 3 14.2936 5.36011 8.93351 -6.28752
337 1 14.2936 3.57341 10.7202 -8.39572
338 2 16.0803 5.36011 10.7202 -7.0358
339 1 16.0803 3.57341 12.5069 -8.37255
340 1 14.2936 5.36011 12.5069 -8.17373
271 3 1.7867 7.14681 8.93351 -6.418
272 2 0 8.93351 8.93351 -7.004
281 3 1.7867 10.7202 8.93351 -6.39076
341 1 0 7.14681 10.7202 -8.37241
342 1 1.7867 8.93351 10.7202 -8.61925
343 3 1.7867 7.14681 12.5069 -6.2346
344 3 0 8.93351 12.5069 -6.41668
361 3 0 10.7202 10.7202 -6.5896
363 3 1.7867 10.7202 12.5069 -6.5126
273 1 5.36011 7.14681 8.93351 -8.66584
274 3 3.57341 8.93351 8.93351 -6.32165
283 3 5.36011 10.7202 8.93351 -6.44648
345 3 3.57341 7.14681 10.7202 -6.27607
346 1 5.36011 8.93351 10.7202 -8.37547
347 1 5.36011 7.14681 12.5069 -8.19436
348 1 3.57341 8.93351 12.5069 -8.19234
365 2 3.57341 10.7202 10.7202 -6.94574
367 1 5.36011 10.7202 12.5069 -8.41915
275 2 8.93351 7.14681 8.93351 -7.00744
276 2 7.14681 8.93351 8.93351 -6.93592
278 1 10.7202 8.93351 8.93351 -8.15129
285 1 8.93351 10.7202 8.93351 -8.23871
349 2 7.14681 7.14681 10.7202 -7.01813
350 3 8.93351 8.93351 10.7202 -6.52088
351 2 8.93351 7.14681 12.5069 -6.99583
352 2 7.14681 8.93351 12.5069 -6.94177
353 2 10.7202 7.14681 10.7202 -6.97156
356 2 10.7202 8.93351 12.5069 -7.04967
369 3 7.14681 10.7202 10.7202 -6.33616
371 1 8.93351 10.7202 12.5069 -8.64963
373 2 10.7202 10.7202 10.7202 -6.99194
277 2 12.5069 7.14681 8.93351 -6.93988
287 3 12.5069 10.7202 8.93351 -6.34838
354 1 12.5069 8.93351 10.7202 -8.16672
355 1 12.5069 7.14681 12.5069 -8.33096
375 2 12.5069 10.7202 12.5069 -6.98257
279 1 16.0803 7.14681 8.93351 -8.29947
280 3 14.2936 8.93351 8.93351 -6.22501
289 3 16.0803 10.7202 8.93351 -6.35206
357 1 14.2936 7.14681 10.7202 -8.31882
358 3 16.0803 8.93351 10.7202 -6.32597
359 2 16.0803 7.14681 12.5069 -7.01411
360 2 14.2936 8.93351 12.5069 -7.00097
377 1 14.2936 10.7202 10.7202 -8.50453
379 3 16.0803 10.7202 12.5069 -6.4555
282 1 0 12.5069 8.93351 -8.59562
362 2 1.7867 12.5069 10.7202 -7.00934
364 2 0 12.5069 12.5069 -7.05055
284 1 3.57341 12.5069 8.93351 -8.47907
366 2 5.36011 12.5069 10.7202 -6.95255
368 2 3.57341 12.5069 12.5069 -7.0687
286 1 7.14681 12.5069 8.93351 -8.39069
288 1 10.7202 12.5069 8.93351 -8.25561
370 3 8.93351 12.5069 10.7202 -6.34906
372 3 7.14681 12.5069 12.5069 -6.46398
376 3 10.7202 12.5069 12.5069 -6.46778
374 2 12.5069 12.5069 10.7202 -6.96532
290 3 14.2936 12.5069 8.93351 -6.40056
378 2 16.0803 12.5069 10.7202 -6.92435
380 1 14.2936 12.5069 12.5069 -8.3743
291 2 1.7867 14.2936 8.93351 -6.95949
292 3 0 16.0803 8.93351 -6.55603
381 2 0 14.2936 10.7202 -6.99946
382 1 1.7867 16.0803 10.7202 -8.62534
383 3 1.7867 14.2936 12.5069 -6.64386
384 1 0 16.0803 12.5069 -8.50142
293 1 5.36011 14.2936 8.93351 -8.30615
294 3 3.57341 16.0803 8.93351 -6.39583
385 3 3.57341 14.2936 10.7202 -6.54514
386 2 5.36011 16.0803 10.7202 -6.99025
387 2 5.36011 14.2936 12.5069 -7.03001
388 3 3.57341 16.0803 12.5069 -6.61014
295 1 8.93351 14.2936 8.93351 -8.19148
296 1 7.14681 16.0803 8.93351 -8.04169
298 2 10.7202 16.0803 8.93351 -7.01342
389 3 7.14681 14.2936 10.7202 -6.30939
390 1 8.93351 16.0803 10.7202 -8.19481
391 3 8.93351 14.2936 12.5069 -6.42073
392 1 7.14681 16.0803 12.5069 -8.34675
393 2 10.7202 14.2936 10.7202 -7.02084
396 2 10.7202 16.0803 12.5069 -6.92315
297 1 12.5069 14.2936 8.93351 -8.32115
394 1 12.5069 16.0803 10.7202 -8.48554
395 2 12.5069 14.2936 12.5069 -6.935
299 1 16.0803 14.2936 8.93351 -8.68745
300 3 14.2936 16.0803 8.93351 -6.21813
397 3 14.2936 14.2936 10.7202 -6.33172
398 3 16.0803 16.0803 10.7202 -6.36986
399 1 16.0803 14.2936 12.5069 -8.46118
400 3 14.2936 16.0803 12.5069 -6.50209
401 1 0 0 14.2936 -8.14735
402 2 1.7867 1.7867 14.2936 -7.03186
403 2 1.7867 0 16.0803 -6.96801
404 1 0 1.7867 16.0803 -8.44378
405 2 3.57341 0 14.2936 -7.03509
406 2 5.36011 1.7867 14.2936 -6.98526
407 1 5.36011 0 16.0803 -8.27124
408 1 3.57341 1.7867 16.0803 -8.38199
409 3 7.14681 0 14.2936 -6.3766
410 2 8.93351 1.7867 14.2936 -7.02781
411 2 8.93351 0 16.0803 -7.03003
412 1 7.14681 1.7867 16.0803 -8.23262
413 1 10.7202 0 14.2936 -8.37753
416 2 10.7202 1.7867 16.0803 -7.04581
414 1 12.5069 1.7867 14.2936 -8.48629
415 3 12.5069 0 16.0803 -6.21428
417 1 14.2936 0 14.2936 -8.4429
418 3 16.0803 1.7867 14.2936 -6.2008
419 1 16.0803 0 16.0803 -8.11735
420 3 14.2936 1.7867 16.0803 -6.26663
421 2 0 3.57341 14.2936 -7.01718
422 3 1.7867 5.36011 14.2936 -6.14039
423 1 1.7867 3.57341 16.0803 -8.36973
424 1 0 5.36011 16.0803 -8.47246
425 3 3.57341 3.57341 14.2936 -6.1431
426 3 5.36011 5.36011 14.2936 -6.15857
427 1 5.36011 3.57341 16.0803 -8.32606
428 1 3.57341 5.36011 16.0803 -8.27138
429 2 7.14681 3.57341 14.2936 -6.92343
430 3 8.93351 5.36011 14.2936 -6.43631
431 2 8.93351 3.57341 16.0803 -7.01131
432 3 7.14681 5.36011 16.0803 -6.2958
433 3 10.7202 3.57341 14.2936 -6.54746
436 3 10.7202 5.36011 16.0803 -6.53973
434 3 12.5069 5.36011 14.2936 -6.43235
435 2 12.5069 3.57341 16.0803 -6.89284
437 3 14.2936 3.57341 14.2936 -6.27292
438 1 16.0803 5.36011 14.2936 -8.07941
439 1 16.0803 3.57341 16.0803 -8.32271
440 1 14.2936 5.36011 16.0803 -8.29472
441 2 0 7.14681 14.2936 -6.92452
442 1 1.7867 8.93351 14.2936 -8.42634
443 1 1.7867 7.14681 16.0803 -8.12678
444 1 0 8.93351 16.0803 -8.28884
461 3 0 10.7202 14.2936 -6.45245
463 2 1.7867 10.7202 16.0803 -6.90387
445 2 3.57341 7.14681 14.2936 -6.94027
446 1 5.36011 8.93351 14.2936 -8.31235
447 1 5.36011 7.14681 16.0803 -8.26229
448 3 3.57341 8.93351 16.0803 -6.21187
465 3 3.57341 10.7202 14.2936 -6.42653
467 3 5.36011 10.7202 16.0803 -6.40687
449 3 7.14681 7.14681 14.2936 -6.2544
450 2 8.93351 8.93351 14.2936 -6.97623
451 1 8.93351 7.14681 16.0803 -8.45138
452 1 7.14681 8.93351 16.0803 -8.20623
453 2 10.7202 7.14681 14.2936 -6.99971
456 1 10.7202 8.93351 16.0803 -8.16793
469 3 7.14681 10.7202 14.2936 -6.43011
471 3 8.93351 10.7202 16.0803 -6.34524
473 1 10.7202 10.7202 14.2936 -8.35035
454 1 12.5069 8.93351 14.2936 -8.22111
455 1 12.5069 7.14681 16.0803 -8.33625
475 2 12.5069 10.7202 16.0803 -6.9362
457 2 14.2936 7.14681 14.2936 -7.00005
458 1 16.0803 8.93351 14.2936 -8.54251
459 3 16.0803 7.14681 16.0803 -6.28358
460 3 14.2936 8.93351 16.0803 -6.29925
477 3 14.2936 10.7202 14.2936 -6.378
479 1 16.0803 10.7202 16.0803 -8.27655
462 3 1.7867 12.5069 14.2936 -6.6842
464 2 0 12.5069 16.0803 -6.89955
466 2 5.36011 12.5069 14.2936 -6.98941
468 3 3.57341 12.5069 16.0803 -6.54108
470 3 8.93351 12.5069 14.2936 -6.38322
472 3 7.14681 12.5069 16.0803 -6.41068
476 2 10.7202 12.5069 16.0803 -6.92422
474 3 12.5069 12.5069 14.2936 -6.39116
478 2 16.0803 12.5069 14.2936 -6.99704
480 1 14.2936 12.5069 16.0803 -8.14895
481 2 0 14.2936 14.2936 -6.99181
482 3 1.7867 16.0803 14.2936 -6.40163
483 1 1.7867 14.2936 16.0803 -8.43954
484 2 0 16.0803 16.0803 -6.95694
485 2 3.57341 14.2936 14.2936 -7.01194
486 3 5.36011 16.0803 14.2936 -6.40425
487 2 5.36011 14.2936 16.0803 -7.01062
488 1 3.57341 16.0803 16.0803 -8.25092
489 1 7.14681 14.2936 14.2936 -8.62396
490 3 8.93351 16.0803 14.2936 -6.34499
491 2 8.93351 14.2936 16.0803 -6.93548
492 2 7.14681 16.0803 16.0803 -6.97037
493 1 10.7202 14.2936 14.2936 -8.62269
496 1 10.7202 16.0803 16.0803 -8.28225
494 3 12.5069 16.0803 14.2936 -6.54493
495 2 12.5069 14.2936 16.0803 -6.99467
497 1 14.2936 14.2936 14.2936 -8.36221
498 3 16.0803 16.0803 14.2936 -6.56689
499 2 16.0803 14.2936 16.0803 -7.05756
500 2 14.2936 16.0803 16.0803 -7.02376
501 3 0 0 17.867 -6.40941
502 3 1.7867 1.7867 17.867 -6.22459
503 3 1.7867 0 19.6537 -6.49316
504 1 0 1.7867 19.6537 -8.52556
601 1 0 0 21.4404 -8.31153
602 2 1.7867 1.7867 21.4404 -6.88811
505 2 3.57341 0 17.867 -6.99203
506 2 5.36011 1.7867 17.867 -7.06348
507 2 5.36011 0 19.6537 -6.99249
508 1 3.57341 1.7867 19.6537 -8.63799
605 3 3.57341 0 21.4404 -6.4927
606 2 5.36011 1.7867 21.4404 -7.0095
509 1 7.14681 0 17.867 -8.21843
510 2 8.93351 1.7867 17.867 -7.07851
511 2 8.93351 0 19.6537 -7.02992
512 2 7.14681 1.7867 19.6537 -6.98597
513 1 10.7202 0 17.867 -8.31393
516 2 10.7202 1.7867 19.6537 -7.08354
609 1 7.14681 0 21.4404 -8.07849
610 1 8.93351 1.7867 21.4404 -8.20733
613 1 10.7202 0 21.4404 -8.1859
514 1 12.5069 1.7867 17.867 -8.46041
515 1 12.5069 0 19.6537 -7.99671
614 1 12.5069 1.7867 21.4404 -8.28297
517 1 14.2936 0 17.867 -8.23416
518 2 16.0803 1.7867 17.867 -6.93784
519 3 16.0803 0 19.6537 -6.25075
520 3 14.2936 1.7867 19.6537 -6.3642
617 2 14.2936 0 21.4404 -6.95463
618 1 16.0803 1.7867 21.4404 -8.42898
521 3 0 3.57341 17.867 -6.34161
522 3 1.7867 5.36011 17.867 -6.17259
523 1 1.7867 3.57341 19.6537 -8.46667
524 2 0 5.36011 19.6537 -7.00493
621 3 0 3.57341 21.4404 -6.32192
622 1 1.7867 5.36011 21.4404 -8.15847
525 3 3.57341 3.57341 17.867 -6.18676
526 3 5.36011 5.36011 17.867 -6.09476
527 3 5.36011 3.57341 19.6537 -6.39171
528 3 3.57341 5.36011 19.6537 -6.26103
625 3 3.57341 3.57341 21.4404 -6.35099
626 2 5.36011 5.36011 21.4404 -6.90925
529 1 7.14681 3.57341 17.867 -8.34855
530 3 8.93351 5.36011 17.867 -6.3293
531 2 8.93351 3.57341 19.6537 -7.05708
532 1 7.14681 5.36011 19.6537 -8.0693
533 3 10.7202 3.57341 17.867 -6.56609
536 1 10.7202 5.36011 19.6537 -8.46781
629 1 7.14681 3.57341 21.4404 -8.32845
630 1 8.93351 5.36011 21.4404 -8.10938
633 3 10.7202 3.57341 21.4404 -6.44798
534 3 12.5069 5.36011 17.867 -6.43956
535 2 12.5069 3.57341 19.6537 -6.96634
634 3 12.5069 5.36011 21.4404 -6.48311
537 3 14.2936 3.57341 17.867 -6.33663
538 1 16.0803 5.36011 17.867 -8.09043
539 2 16.0803 3.57341 19.6537 -6.98035
540 1 14.2936 5.36011 19.6537 -8.48288
637 2 14.2936 3.57341 21.4404 -7.05704
638 2 16.0803 5.36011 21.4404 -7.00271
541 2 0 7.14681 17.867 -7.04173
542 1 1.7867 8.93351 17.867 -8.21147
543 1 1.7867 7.14681 19.6537 -8.23523
544 2 0 8.93351 19.6537 -6.95368
561 3 0 10.7202 17.867 -6.23061
563 3 1.7867 10.7202 19.6537 -6.22644
641 1 0 7.14681 21.4404 -8.24232
642 1 1.7867 8.93351 21.4404 -8.32935
661 3 0 10.7202 21.4404 -6.33173
545 1 3.57341 7.14681 17.867 -8.20847
546 2 5.36011 8.93351 17.867 -6.94634
547 1 5.36011 7.14681 19.6537 -8.40016
548 3 3.57341 8.93351 19.6537 -6.22541
565 1 3.57341 10.7202 17.867 -8.50947
567 2 5.36011 10.7202 19.6537 -7.02553
645 2 3.57341 7.14681 21.4404 -6.88372
646 3 5.36011 8.93351 21.4404 -6.46371
665 1 3.57341 10.7202 21.4404 -8.49915
549 1 7.14681 7.14681 17.867 -8.15759
550 2 8.93351 8.93351 17.867 -7.05575
551 1 8.93351 7.14681 19.6537 -8.20379
552 2 7.14681 8.93351 19.6537 -7.07021
553 2 10.7202 7.14681 17.867 -6.96412
556 2 10.7202 8.93351 19.6537 -7.05741
569 1 7.14681 10.7202 17.867 -8.38692
571 2 8.93351 10.7202 19.6537 -7.02458
573 3 10.7202 10.7202 17.867 -6.42569
649 2 7.14681 7.14681 21.4404 -6.972
650 2 8.93351 8.93351 21.4404 -7.08657
653 1 10.7202 7.14681 21.4404 -8.28338
669 3 7.14681 10.7202 21.4404 -6.63504
673 1 10.7202 10.7202 21.4404 -8.37529
554 1 12.5069 8.93351 17.867 -8.2336
555 2 12.5069 7.14681 19.6537 -7.01208
575 2 12.5069 10.7202 19.6537 -6.96185
654 2 12.5069 8.93351 21.4404 -7.02261
557 2 14.2936 7.14681 17.867 -6.98847
558 2 16.0803 8.93351 17.867 -6.96879
559 2 16.0803 7.14681 19.6537 -7.08344
560 1 14.2936 8.93351 19.6537 -8.34282
577 1 14.2936 10.7202 17.867 -8.07754
579 2 16.0803 10.7202 19.6537 -6.99531
657 2 14.2936 7.14681 21.4404 -6.99925
658 2 16.0803 8.93351 21.4404 -7.04782
677 3 14.2936 10.7202 21.4404 -6.5053
562 1 1.7867 12.5069 17.867 -8.33273
564 1 0 12.5069 19.6537 -8.5603
662 1 1.7867 12.5069 21.4404 -8.38151
566 3 5.36011 12.5069 17.867 -6.51141
568 2 3.57341 12.5069 19.6537 -7.05114
666 2 5.36011 12.5069 21.4404 -7.09454
570 1 8.93351 12.5069 17.867 -8.4101
572 2 7.14681 12.5069 19.6537 -7.0857
576 3 10.7202 12.5069 19.6537 -6.31752
670 2 8.93351 12.5069 21.4404 -6.9613
574 1 12.5069 12.5069 17.867 -8.3563
674 3 12.5069 12.5069 21.4404 -6.35101
578 1 16.0803 12.5069 17.867 -8.33388
580 3 14.2936 12.5069 19.6537 -6.37885
678 2 16.0803 12.5069 21.4404 -6.90494
581 3 0 14.2936 17.867 -6.38927
582 2 1.7867 16.0803 17.867 -6.98286
583 2 1.7867 14.2936 19.6537 -6.99646
584 2 0 16.0803 19.6537 -7.02509
681 3 0 14.2936 21.4404 -6.34299
682 3 1.7867 16.0803 21.4404 -6.51599
585 2 3.57341 14.2936 17.867 -7.04274
586 2 5.36011 16.0803 17.867 -7.02918
587 2 5.36011 14.2936 19.6537 -7.11579
588 1 3.57341 16.0803 19.6537 -8.54087
685 2 3.57341 14.2936 21.4404 -7.04614
686 2 5.36011 16.0803 21.4404 -6.97093
589 1 7.14681 14.2936 17.867 -8.31675
590 1 8.93351 16.0803 17.867 -8.0933
591 1 8.93351 14.2936 19.6537 -8.27858
592 1 7.14681 16.0803 19.6537 -8.33479
593 3 10.7202 14.2936 17.867 -6.22645
596 3 10.7202 16.0803 19.6537 -6.2443
689 2 7.14681 14.2936 21.4404 -6.97199
690 3 8.93351 16.0803 21.4404 -6.26967
693 1 10.7202 14.2936 21.4404 -8.44685
594 1 12.5069 16.0803 17.867 -8.34268
595 1 12.5069 14.2936 19.6537 -8.52605
694 3 12.5069 16.0803 21.4404 -6.31029
597 2 14.2936 14.2936 17.867 -6.97211
598 2 16.0803 16.0803 17.867 -7.06681
599 1 16.0803 14.2936 19.6537 -8.52171
600 3 14.2936 16.0803 19.6537 -6.37427
697 3 14.2936 14.2936 21.4404 -6.33386
698 3 16.0803 16.0803 21.4404 -6.24158
603 1 1.7867 0 23.2271 -8.40747
604 3 0 1.7867 23.2271 -6.29361
701 2 0 0 25.0138 -6.91108
702 1 1.7867 1.7867 25.0138 -8.49898
607 1 5.36011 0 23.2271 -8.24025
608 2 3.57341 1.7867 23.2271 -6.90207
703 3 3.57341 0 25.0138 -6.26157
704 1 5.36011 1.7867 25.0138 -8.20493
611 1 8.93351 0 23.2271 -8.25817
612 2 7.14681 1.7867 23.2271 -7.04565
616 2 10.7202 1.7867 23.2271 -7.05076
705 1 7.14681 0 25.0138 -8.04722
706 3 8.93351 1.7867 25.0138 -6.43174
707 2 10.7202 0 25.0138 -7.03735
615 2 12.5069 0 23.2271 -7.03802
708 1 12.5069 1.7867 25.0138 -8.37537
619 3 16.0803 0 23.2271 -6.35747
620 1 14.2936 1.7867 23.2271 -8.38224
709 3 14.2936 0 25.0138 -6.43631
710 3 16.0803 1.7867 25.0138 -6.44051
623 1 1.7867 3.57341 23.2271 -8.45216
624 3 0 5.36011 23.2271 -6.13865
711 2 0 3.57341 25.0138 -6.87238
712 3 1.7867 5.36011 25.0138 -6.23002
627 3 5.36011 3.57341 23.2271 -6.40204
628 1 3.57341 5.36011 23.2271 -8.38105
713 3 3.57341 3.57341 25.0138 -6.23574
714 3 5.36011 5.36011 25.0138 -6.2476
631 2 8.93351 3.57341 23.2271 -7.03639
632 3 7.14681 5.36011 23.2271 -6.37998
636 2 10.7202 5.36011 23.2271 -7.03282
715 1 7.14681 3.57341 25.0138 -8.52679
716 2 8.93351 5.36011 25.0138 -6.99292
717 2 10.7202 3.57341 25.0138 -7.07703
635 2 12.5069 3.57341 23.2271 -7.08763
718 3 12.5069 5.36011 25.0138 -6.57305
639 2 16.0803 3.57341 23.2271 -6.91243
640 1 14.2936 5.36011 23.2271 -8.60235
719 2 14.2936 3.57341 25.0138 -6.97727
720 3 16.0803 5.36011 25.0138 -6.16004
643 1 1.7867 7.14681 23.2271 -8.29671
644 2 0 8.93351 23.2271 -6.95335
663 3 1.7867 10.7202 23.2271 -6.30357
721 1 0 7.14681 25.0138 -8.42866
722 3 1.7867 8.93351 25.0138 -6.3059
731 1 0 10.7202 25.0138 -8.36524
647 1 5.36011 7.14681 23.2271 -8.66996
648 3 3.57341 8.93351 23.2271 -6.35105
667 3 5.36011 10.7202 23.2271 -6.49538
723 3 3.57341 7.14681 25.0138 -6.11888
724 3 5.36011 8.93351 25.0138 -6.36529
733 3 3.57341 10.7202 25.0138 -6.48424
651 1 8.93351 7.14681 23.2271 -8.44218
652 2 7.14681 8.93351 23.2271 -6.94198
656 2 10.7202 8.93351 23.2271 -7.02323
671 1 8.93351 10.7202 23.2271 -8.149
725 3 7.14681 7.14681 25.0138 -6.42549
726 2 8.93351 8.93351 25.0138 -6.91754
727 3 10.7202 7.14681 25.0138 -6.54932
735 1 7.14681 10.7202 25.0138 -8.46535
737 1 10.7202 10.7202 25.0138 -8.12418
655 3 12.5069 7.14681 23.2271 -6.44749
675 1 12.5069 10.7202 23.2271 -8.24439
728 1 12.5069 8.93351 25.0138 -8.37327
659 1 16.0803 7.14681 23.2271 -8.35979
660 1 14.2936 8.93351 23.2271 -8.34234
679 2 16.0803 10.7202 23.2271 -6.93728
729 3 14.2936 7.14681 25.0138 -6.24572
730 3 16.0803 8.93351 25.0138 -6.29568
739 2 14.2936 10.7202 25.0138 -6.98505
664 3 0 12.5069 23.2271 -6.25397
732 1 1.7867 12.5069 25.0138 -8.43459
668 2 3.57341 12.5069 23.2271 -6.97304
734 2 5.36011 12.5069 25.0138 -6.9739
672 1 7.14681 12.5069 23.2271 -8.2647
676 3 10.7202 12.5069 23.2271 -6.24776
736 1 8.93351 12.5069 25.0138 -8.23798
738 1 12.5069 12.5069 25.0138 -8.25068
680 3 14.2936 12.5069 23.2271 -6.37959
740 1 16.0803 12.5069 25.0138 -8.40674
683 1 1.7867 14.2936 23.2271 -8.39341
684 1 0 16.0803 23.2271 -8.48976
741 3 0 14.2936 25.0138 -6.43542
742 2 1.7867 16.0803 25.0138 -7.01587
687 1 5.36011 14.2936 23.2271 -8.32807
688 3 3.57341 16.0803 23.2271 -6.54002
743 3 3.57341 14.2936 25.0138 -6.37586
744 2 5.36011 16.0803 25.0138 -6.98363
691 3 8.93351 14.2936 23.2271 -6.27954
692 1 7.14681 16.0803 23.2271 -8.51039
696 1 10.7202 16.0803 23.2271 -8.49574
745 1 7.14681 14.2936 25.0138 -8.20291
746 2 8.93351 16.0803 25.0138 -6.90611
747 2 10.7202 14.2936 25.0138 -6.90703
695 2 12.5069 14.2936 23.2271 -6.84356
748 3 12.5069 16.0803 25.0138 -6.27109
699 1 16.0803 14.2936 23.2271 -8.32962
700 1 14.2936 16.0803 23.2271 -8.54559
749 3 14.2936 14.2936 25.0138 -6.30167
750 2 16.0803 16.0803 25.0138 -6.90951
751 3 1.7867 0 26.8005 -6.33272
752 2 0 1.7867 26.8005 -6.94439
801 1 0 0 28.5872 -8.29272
802 1 1.7867 1.7867 28.5872 -8.42054
803 1 1.7867 0 30.374 -8.31649
804 2 0 1.7867 30.374 -6.93393
753 1 5.36011 0 26.8005 -8.13532
754 2 3.57341 1.7867 26.8005 -6.89703
805 3 3.57341 0 28.5872 -6.20128
806 1 5.36011 1.7867 28.5872 -8.25811
807 2 5.36011 0 30.374 -6.95818
808 3 3.57341 1.7867 30.374 -6.2846
755 1 8.93351 0 26.8005 -8.16052
756 2 7.14681 1.7867 26.8005 -7.07994
758 1 10.7202 1.7867 26.8005 -8.42359
809 1 7.14681 0 28.5872 -8.20153
810 2 8.93351 1.7867 28.5872 -6.98694
811 3 8.93351 0 30.374 -6.58103
812 2 7.14681 1.7867 30.374 -7.06498
813 2 10.7202 0 28.5872 -7.04031
816 2 10.7202 1.7867 30.374 -7.04376
757 3 12.5069 0 26.8005 -6.36498
814 1 12.5069 1.7867 28.5872 -8.46242
815 2 12.5069 0 30.374 -7.00513
759 3 16.0803 0 26.8005 -6.51822
760 2 14.2936 1.7867 26.8005 -6.95065
817 2 14.2936 0 28.5872 -6.99268
818 2 16.0803 1.7867 28.5872 -7.04008
819 1 16.0803 0 30.374 -8.52787
820 3 14.2936 1.7867 30.374 -6.4418
761 3 1.7867 3.57341 26.8005 -6.42411
762 3 0 5.36011 26.8005 -6.30495
821 1 0 3.57341 28.5872 -8.56188
822 3 1.7867 5.36011 28.5872 -6.40981
823 3 1.7867 3.57341 30.374 -6.44295
824 3 0 5.36011 30.374 -6.31053
763 1 5.36011 3.57341 26.8005 -8.19866
764 1 3.57341 5.36011 26.8005 -8.47537
825 2 3.57341 3.57341 28.5872 -6.99502
826 2 5.36011 5.36011 28.5872 -6.9484
827 1 5.36011 3.57341 30.374 -8.44994
828 2 3.57341 5.36011 30.374 -6.91517
765 3 8.93351 3.57341 26.8005 -6.54364
766 3 7.14681 5.36011 26.8005 -6.40804
768 2 10.7202 5.36011 26.8005 -6.96586
829 2 7.14681 3.57341 28.5872 -6.99623
830 1 8.93351 5.36011 28.5872 -8.56575
831 1 8.93351 3.57341 30.374 -8.38988
832 2 7.14681 5.36011 30.374 -6.96078
833 3 10.7202 3.57341 28.5872 -6.3558
836 2 10.7202 5.36011 30.374 -6.99888
767 3 12.5069 3.57341 26.8005 -6.40632
834 1 12.5069 5.36011 28.5872 -8.39925
835 1 12.5069 3.57341 30.374 -8.2867
769 1 16.0803 3.57341 26.8005 -8.47519
770 1 14.2936 5.36011 26.8005 -8.41348
837 2 14.2936 3.57341 28.5872 -7.06289
838 2 16.0803 5.36011 28.5872 -6.94979
839 1 16.0803 3.57341 30.374 -8.47263