ITEM: TIMESTEP
0
ITEM: NUMBER OF ATOMS
4000
ITEM: BOX BOUNDS pp pp pp
0.0000000000000000e+00 3.5627870000000001e+01
0.0000000000000000e+00 3.5627870000000001e+01
0.0000000000000000e+00 3.5627870000000001e+01
ITEM: ATOMS id type x y z c_peratom
1 1 0 0 0 -8.63335
2 3 1.78139 1.78139 0 -6.57343
3 3 1.78139 0 1.78139 -6.56568
4 2 0 1.78139 1.78139 -7.05984
101 1 0 0 3.56279 -8.65516
102 2 1.78139 1.78139 3.56279 -7.20272
5 2 3.56279 0 0 -6.92678
6 3 5.34418 1.78139 0 -6.46389
7 2 5.34418 0 1.78139 -6.969
8 2 3.56279 1.78139 1.78139 -7.15095
105 2 3.56279 0 3.56279 -7.06569
106 3 5.34418 1.78139 3.56279 -6.7501
9 1 7.12557 0 0 -8.32317
10 1 8.90697 1.78139 0 -8.36425
11 1 8.90697 0 1.78139 -8.63618
12 3 7.12557 1.78139 1.78139 -6.46192
109 3 7.12557 0 3.56279 -6.53008
110 3 8.90697 1.78139 3.56279 -6.4136
13 2 10.6884 0 0 -6.98193
14 1 12.4698 1.78139 0 -8.71829
15 2 12.4698 0 1.78139 -7.04873
16 2 10.6884 1.78139 1.78139 -7.02695
113 2 10.6884 0 3.56279 -7.02687
114 2 12.4698 1.78139 3.56279 -7.09164
17 2 14.2511 0 0 -6.99265
18 3 16.0325 1.78139 0 -6.58676
19 1 16.0325 0 1.78139 -8.72259
20 3 14.2511 1.78139 1.78139 -6.61302
117 3 14.2511 0 3.56279 -6.5362
118 2 16.0325 1.78139 3.56279 -6.99792
21 2 0 3.56279 0 -6.91868
22 3 1.78139 5.34418 0 -6.49392
23 3 1.78139 3.56279 1.78139 -6.78086
24 2 0 5.34418 1.78139 -7.01352
121 2 0 3.56279 3.56279 -7.13776
122 3 1.78139 5.34418 3.56279 -6.77408
25 2 3.56279 3.56279 0 -6.95906
26 3 5.34418 5.34418 0 -6.49344
27 2 5.34418 3.56279 1.78139 -6.975
28 2 3.56279 5.34418 1.78139 -6.97961
125 3 3.56279 3.56279 3.56279 -6.75157
126 1 5.34418 5.34418 3.56279 -8.51557
29 3 7.12557 3.56279 0 -6.37519
30 2 8.90697 5.34418 0 -6.91683
31 3 8.90697 3.56279 1.78139 -6.40477
32 1 7.12557 5.34418 1.78139 -8.72867
129 3 7.12557 3.56279 3.56279 -6.39562
130 3 8.90697 5.34418 3.56279 -6.31634
33 2 10.6884 3.56279 0 -6.87215
34 1 12.4698 5.34418 0 -8.48996
35 2 12.4698 3.56279 1.78139 -7.01703
36 1 10.6884 5.34418 1.78139 -8.44477
133 1 10.6884 3.56279 3.56279 -8.46172
134 3 12.4698 5.34418 3.56279 -6.42989
37 3 14.2511 3.56279 0 -6.4075
38 1 16.0325 5.34418 0 -8.331
39 2 16.0325 3.56279 1.78139 -7.02944
40 3 14.2511 5.34418 1.78139 -6.4258
137 2 14.2511 3.56279 3.56279 -7.04782
138 3 16.0325 5.34418 3.56279 -6.4935
41 1 0 7.12557 0 -8.68624
42 3 1.78139 8.90697 0 -6.32474
43 3 1.78139 7.12557 1.78139 -6.47914
44 3 0 8.90697 1.78139 -6.47551
141 3 0 7.12557 3.56279 -6.47745
142 3 1.78139 8.90697 3.56279 -6.36565
45 1 3.56279 7.12557 0 -8.57047
46 2 5.34418 8.90697 0 -7.01806
47 2 5.34418 7.12557 1.78139 -6.9761
48 1 3.56279 8.90697 1.78139 -8.53465
145 3 3.56279 7.12557 3.56279 -6.5781
146 2 5.34418 8.90697 3.56279 -6.91436
49 2 7.12557 7.12557 0 -6.94168
50 3 8.90697 8.90697 0 -6.2777
51 3 8.90697 7.12557 1.78139 -6.28815
52 1 7.12557 8.90697 1.78139 -8.7744
149 3 7.12557 7.12557 3.56279 -6.39982
150 3 8.90697 8.90697 3.56279 -6.5147
53 1 10.6884 7.12557 0 -8.36865
54 3 12.4698 8.90697 0 -6.26105
55 2 12.4698 7.12557 1.78139 -6.87584
56 1 10.6884 8.90697 1.78139 -8.73062
153 2 10.6884 7.12557 3.56279 -6.87858
154 3 12.4698 8.90697 3.56279 -6.37941
57 3 14.2511 7.12557 0 -6.19724
58 3 16.0325 8.90697 0 -6.26042
59 1 16.0325 7.12557 1.78139 -8.40767
60 1 14.2511 8.90697 1.78139 -8.65912
157 1 14.2511 7.12557 3.56279 -8.60047
158 3 16.0325 8.90697 3.56279 -6.32571
61 2 0 10.6884 0 -6.97233
62 1 1.78139 12.4698 0 -8.42933
63 1 1.78139 10.6884 1.78139 -8.58968
64 2 0 12.4698 1.78139 -7.05655
161 2 0 10.6884 3.56279 -7.03046
162 2 1.78139 12.4698 3.56279 -6.92169
65 3 3.56279 10.6884 0 -6.35696
66 2 5.34418 12.4698 0 -6.96527
67 2 5.34418 10.6884 1.78139 -6.90717
68 3 3.56279 12.4698 1.78139 -6.38508
165 3 3.56279 10.6884 3.56279 -6.30738
166 1 5.34418 12.4698 3.56279 -8.62803
69 2 7.12557 10.6884 0 -7.01563
70 1 8.90697 12.4698 0 -8.3406
71 3 8.90697 10.6884 1.78139 -6.31857
72 1 7.12557 12.4698 1.78139 -8.40201
169 3 7.12557 10.6884 3.56279 -6.32977
170 1 8.90697 12.4698 3.56279 -8.42989
73 3 10.6884 10.6884 0 -6.29414
74 1 12.4698 12.4698 0 -8.19512
75 2 12.4698 10.6884 1.78139 -6.88514
76 3 10.6884 12.4698 1.78139 -6.41266
173 2 10.6884 10.6884 3.56279 -6.94663
174 3 12.4698 12.4698 3.56279 -6.47962
77 3 14.2511 10.6884 0 -6.28185
78 2 16.0325 12.4698 0 -6.95826
79 3 16.0325 10.6884 1.78139 -6.44391
80 1 14.2511 12.4698 1.78139 -8.409
177 2 14.2511 10.6884 3.56279 -6.87504
178 1 16.0325 12.4698 3.56279 -8.65864
81 1 0 14.2511 0 -8.3736
82 1 1.78139 16.0325 0 -8.4171
83 1 1.78139 14.2511 1.78139 -8.40444
84 2 0 16.0325 1.78139 -7.02468
181 2 0 14.2511 3.56279 -6.99724
182 2 1.78139 16.0325 3.56279 -6.92209
85 3 3.56279 14.2511 0 -6.33864
86 2 5.34418 16.0325 0 -6.92888
87 3 5.34418 14.2511 1.78139 -6.40831
88 3 3.56279 16.0325 1.78139 -6.32021
185 3 3.56279 14.2511 3.56279 -6.3186
186 1 5.34418 16.0325 3.56279 -8.42325
89 2 7.12557 14.2511 0 -6.94403
90 2 8.90697 16.0325 0 -7.00905
91 3 8.90697 14.2511 1.78139 -6.40227
92 1 7.12557 16.0325 1.78139 -8.55469
189 2 7.12557 14.2511 3.56279 -6.94221
190 2 8.90697 16.0325 3.56279 -6.98452
93 1 10.6884 14.2511 0 -8.38557
94 2 12.4698 16.0325 0 -7.08294
95 2 12.4698 14.2511 1.78139 -7.02538
96 2 10.6884 16.0325 1.78139 -7.02608
193 2 10.6884 14.2511 3.56279 -7.00495
194 3 12.4698 16.0325 3.56279 -6.40989
97 1 14.2511 14.2511 0 -8.08443
98 2 16.0325 16.0325 0 -7.03054
99 3 16.0325 14.2511 1.78139 -6.2495
100 1 14.2511 16.0325 1.78139 -8.49834
197 2 14.2511 14.2511 3.56279 -6.882
198 1 16.0325 16.0325 3.56279 -8.55809
103 2 1.78139 0 5.34418 -7.12401
104 2 0 1.78139 5.34418 -7.23866
201 2 0 0 7.12557 -7.13122
202 2 1.78139 1.78139 7.12557 -7.18982
107 3 5.34418 0 5.34418 -6.62015
108 2 3.56279 1.78139 5.34418 -7.14532
203 2 3.56279 0 7.12557 -7.04541
204 1 5.34418 1.78139 7.12557 -8.77113
111 1 8.90697 0 5.34418 -8.53921
112 2 7.12557 1.78139 5.34418 -6.92892
205 2 7.12557 0 7.12557 -6.92643
206 1 8.90697 1.78139 7.12557 -8.32625
115 3 12.4698 0 5.34418 -6.45025
116 2 10.6884 1.78139 5.34418 -7.04032
207 1 10.6884 0 7.12557 -8.42235
208 1 12.4698 1.78139 7.12557 -8.30134
119 1 16.0325 0 5.34418 -8.32472
120 2 14.2511 1.78139 5.34418 -7.03794
209 1 14.2511 0 7.12557 -8.27296
210 1 16.0325 1.78139 7.12557 -8.31892
123 2 1.78139 3.56279 5.34418 -7.27079
124 2 0 5.34418 5.34418 -7.06806
211 3 0 3.56279 7.12557 -6.62472
212 2 1.78139 5.34418 7.12557 -7.09401
127 3 5.34418 3.56279 5.34418 -6.44137
128 2 3.56279 5.34418 5.34418 -7.05333
213 2 3.56279 3.56279 7.12557 -7.07275
214 1 5.34418 5.34418 7.12557 -8.37878
131 1 8.90697 3.56279 5.34418 -8.38004
132 1 7.12557 5.34418 5.34418 -8.39535
215 3 7.12557 3.56279 7.12557 -6.30639
216 2 8.90697 5.34418 7.12557 -6.94832
135 1 12.4698 3.56279 5.34418 -8.37253
136 3 10.6884 5.34418 5.34418 -6.54283
217 2 10.6884 3.56279 7.12557 -6.96615
218 2 12.4698 5.34418 7.12557 -7.00666
139 1 16.0325 3.56279 5.34418 -8.48299
140 2 14.2511 5.34418 5.34418 -6.98364
219 2 14.2511 3.56279 7.12557 -7.0025
220 1 16.0325 5.34418 7.12557 -8.43451
143 2 1.78139 7.12557 5.34418 -6.97039
144 1 0 8.90697 5.34418 -8.19703
221 1 0 7.12557 7.12557 -7.96243
222 2 1.78139 8.90697 7.12557 -6.93174
147 2 5.34418 7.12557 5.34418 -6.96563
148 3 3.56279 8.90697 5.34418 -6.41654
223 1 3.56279 7.12557 7.12557 -8.49121
224 3 5.34418 8.90697 7.12557 -6.26243
151 3 8.90697 7.12557 5.34418 -6.4943
152 3 7.12557 8.90697 5.34418 -6.52892
225 1 7.12557 7.12557 7.12557 -8.38727
226 3 8.90697 8.90697 7.12557 -6.41376
155 3 12.4698 7.12557 5.34418 -6.56811
156 3 10.6884 8.90697 5.34418 -6.61717
227 2 10.6884 7.12557 7.12557 -7.00581
228 2 12.4698 8.90697 7.12557 -7.03901
159 3 16.0325 7.12557 5.34418 -6.46355
160 1 14.2511 8.90697 5.34418 -8.51545
229 2 14.2511 7.12557 7.12557 -6.97581
230 2 16.0325 8.90697 7.12557 -6.96031
163 1 1.78139 10.6884 5.34418 -8.4219
164 1 0 12.4698 5.34418 -8.2359
231 3 0 10.6884 7.12557 -6.16996
232 2 1.78139 12.4698 7.12557 -6.90804
167 1 5.34418 10.6884 5.34418 -8.55286
168 3 3.56279 12.4698 5.34418 -6.35897
233 1 3.56279 10.6884 7.12557 -8.43356
234 2 5.34418 12.4698 7.12557 -6.87287
171 2 8.90697 10.6884 5.34418 -6.93724
172 1 7.12557 12.4698 5.34418 -8.36891
235 3 7.12557 10.6884 7.12557 -6.37759
236 2 8.90697 12.4698 7.12557 -6.98565
175 1 12.4698 10.6884 5.34418 -8.49364
176 2 10.6884 12.4698 5.34418 -6.99474
237 1 10.6884 10.6884 7.12557 -8.4286
238 2 12.4698 12.4698 7.12557 -7.0582
179 3 16.0325 10.6884 5.34418 -6.4041
180 3 14.2511 12.4698 5.34418 -6.3989
239 2 14.2511 10.6884 7.12557 -7.01066
240 1 16.0325 12.4698 7.12557 -8.62246
183 3 1.78139 14.2511 5.34418 -6.3136
184 1 0 16.0325 5.34418 -8.33789
241 1 0 14.2511 7.12557 -8.06952
242 1 1.78139 16.0325 7.12557 -8.29472
187 3 5.34418 14.2511 5.34418 -6.2117
188 1 3.56279 16.0325 5.34418 -8.33481
243 1 3.56279 14.2511 7.12557 -8.4222
244 3 5.34418 16.0325 7.12557 -6.29947
191 1 8.90697 14.2511 5.34418 -8.37102
192 1 7.12557 16.0325 5.34418 -8.53508
245 3 7.12557 14.2511 7.12557 -6.27736
246 2 8.90697 16.0325 7.12557 -6.9507
195 1 12.4698 14.2511 5.34418 -8.55013
196 3 10.6884 16.0325 5.34418 -6.47016
247 3 10.6884 14.2511 7.12557 -6.52229
248 2 12.4698 16.0325 7.12557 -6.93896
199 3 16.0325 14.2511 5.34418 -6.20722
200 1 14.2511 16.0325 5.34418 -8.4868
249 1 14.2511 14.2511 7.12557 -8.34726
250 2 16.0325 16.0325 7.12557 -6.9493
251 3 1.78139 0 8.90697 -6.67127
252 1 0 1.78139 8.90697 -8.70822
301 3 0 0 10.6884 -6.46453
302 2 1.78139 1.78139 10.6884 -7.08124
303 1 1.78139 0 12.4698 -8.50173
304 2 0 1.78139 12.4698 -7.02677
253 3 5.34418 0 8.90697 -6.50011
254 3 3.56279 1.78139 8.90697 -6.65876
305 2 3.56279 0 10.6884 -7.00448
306 2 5.34418 1.78139 10.6884 -6.9977
307 2 5.34418 0 12.4698 -6.94529
308 2 3.56279 1.78139 12.4698 -7.03472
255 1 8.90697 0 8.90697 -8.37274
256 2 7.12557 1.78139 8.90697 -6.99929
309 1 7.12557 0 10.6884 -8.5231
310 3 8.90697 1.78139 10.6884 -6.56391
311 3 8.90697 0 12.4698 -6.37516
312 3 7.12557 1.78139 12.4698 -6.44466
257 3 12.4698 0 8.90697 -6.23603
258 3 10.6884 1.78139 8.90697 -6.33183
313 3 10.6884 0 10.6884 -6.34652
314 1 12.4698 1.78139 10.6884 -8.61931
315 3 12.4698 0 12.4698 -6.33128
316 2 10.6884 1.78139 12.4698 -6.93397
259 1 16.0325 0 8.90697 -8.23055
260 1 14.2511 1.78139 8.90697 -8.29249
317 2 14.2511 0 10.6884 -6.89151
318 3 16.0325 1.78139 10.6884 -6.16813
319 2 16.0325 0 12.4698 -6.90726
320 1 14.2511 1.78139 12.4698 -8.31043
261 2 1.78139 3.56279 8.90697 -7.07042
262 1 0 5.34418 8.90697 -8.46954
321 2 0 3.56279 10.6884 -7.02132
322 3 1.78139 5.34418 10.6884 -6.43805
323 2 1.78139 3.56279 12.4698 -7.0791
324 3 0 5.34418 12.4698 -6.61148
263 3 5.34418 3.56279 8.90697 -6.41184
264 2 3.56279 5.34418 8.90697 -6.9403
325 1 3.56279 3.56279 10.6884 -8.60578
326 1 5.34418 5.34418 10.6884 -8.44108
327 2 5.34418 3.56279 12.4698 -6.94765
328 3 3.56279 5.34418 12.4698 -6.40946
265 2 8.90697 3.56279 8.90697 -6.97975
266 1 7.12557 5.34418 8.90697 -8.47922
329 2 7.12557 3.56279 10.6884 -7.00427
330 3 8.90697 5.34418 10.6884 -6.41627
331 2 8.90697 3.56279 12.4698 -6.98602
332 3 7.12557 5.34418 12.4698 -6.36218
267 3 12.4698 3.56279 8.90697 -6.34066
268 1 10.6884 5.34418 8.90697 -8.47524
333 3 10.6884 3.56279 10.6884 -6.542
334 2 12.4698 5.34418 10.6884 -7.0602
335 3 12.4698 3.56279 12.4698 -6.35614
336 2 10.6884 5.34418 12.4698 -6.92814
269 3 16.0325 3.56279 8.90697 -6.22425
270 1 14.2511 5.34418 8.90697 -8.38817
337 2 14.2511 3.56279 10.6884 -6.88182
338 2 16.0325 5.34418 10.6884 -6.95329
339 1 16.0325 3.56279 12.4698 -8.13591
340 1 14.2511 5.34418 12.4698 -8.20714
271 1 1.78139 7.12557 8.90697 -8.37461
272 1 0 8.90697 8.90697 -8.54753
341 3 0 7.12557 10.6884 -6.33991
342 2 1.78139 8.90697 10.6884 -6.89188
343 1 1.78139 7.12557 12.4698 -8.66011
344 1 0 8.90697 12.4698 -8.64752
273 3 5.34418 7.12557 8.90697 -6.21653
274 3 3.56279 8.90697 8.90697 -6.26869
345 3 3.56279 7.12557 10.6884 -6.29745
346 1 5.34418 8.90697 10.6884 -8.4255
347 1 5.34418 7.12557 12.4698 -8.52493
348 2 3.56279 8.90697 12.4698 -6.9523
275 2 8.90697 7.12557 8.90697 -6.86534
276 1 7.12557 8.90697 8.90697 -8.56164
349 3 7.12557 7.12557 10.6884 -6.27962
350 3 8.90697 8.90697 10.6884 -6.32182
351 1 8.90697 7.12557 12.4698 -8.63093
352 3 7.12557 8.90697 12.4698 -6.38559
277 1 12.4698 7.12557 8.90697 -8.01128
278 1 10.6884 8.90697 8.90697 -8.33826
353 1 10.6884 7.12557 10.6884 -8.11301
354 2 12.4698 8.90697 10.6884 -7.12487
355 1 12.4698 7.12557 12.4698 -7.99678
356 1 10.6884 8.90697 12.4698 -8.30116
279 3 16.0325 7.12557 8.90697 -6.31103
280 1 14.2511 8.90697 8.90697 -8.24207
357 1 14.2511 7.12557 10.6884 -8.01558
358 1 16.0325 8.90697 10.6884 -8.23159
359 2 16.0325 7.12557 12.4698 -7.01418
360 1 14.2511 8.90697 12.4698 -8.05836
281 3 1.78139 10.6884 8.90697 -6.26166
282 1 0 12.4698 8.90697 -8.62954
361 3 0 10.6884 10.6884 -6.28925
362 2 1.78139 12.4698 10.6884 -6.87597
363 3 1.78139 10.6884 12.4698 -6.40506
364 1 0 12.4698 12.4698 -8.69946
283 3 5.34418 10.6884 8.90697 -6.22866
284 1 3.56279 12.4698 8.90697 -8.27114
365 1 3.56279 10.6884 10.6884 -8.3464
366 1 5.34418 12.4698 10.6884 -8.3726
367 2 5.34418 10.6884 12.4698 -6.97519
368 1 3.56279 12.4698 12.4698 -8.42777
285 2 8.90697 10.6884 8.90697 -6.98013
286 1 7.12557 12.4698 8.90697 -8.69948
369 2 7.12557 10.6884 10.6884 -6.9607
370 3 8.90697 12.4698 10.6884 -6.4809
371 2 8.90697 10.6884 12.4698 -6.91073
372 3 7.12557 12.4698 12.4698 -6.45225
287 2 12.4698 10.6884 8.90697 -7.07152
288 2 10.6884 12.4698 8.90697 -7.09022
373 2 10.6884 10.6884 10.6884 -7.00282
374 2 12.4698 12.4698 10.6884 -7.08203
375 1 12.4698 10.6884 12.4698 -8.32898
376 1 10.6884 12.4698 12.4698 -8.46177
289 2 16.0325 10.6884 8.90697 -7.03216
290 2 14.2511 12.4698 8.90697 -7.05045
377 1 14.2511 10.6884 10.6884 -8.10867
378 1 16.0325 12.4698 10.6884 -8.50191
379 2 16.0325 10.6884 12.4698 -6.9685
380 3 14.2511 12.4698 12.4698 -6.45966
291 2 1.78139 14.2511 8.90697 -6.98633
292 2 0 16.0325 8.90697 -6.82741
381 3 0 14.2511 10.6884 -6.36085
382 1 1.78139 16.0325 10.6884 -8.67086
383 1 1.78139 14.2511 12.4698 -8.35257
384 2 0 16.0325 12.4698 -6.96301
293 2 5.34418 14.2511 8.90697 -6.93155
294 3 3.56279 16.0325 8.90697 -6.36765
385 3 3.56279 14.2511 10.6884 -6.32439
386 1 5.34418 16.0325 10.6884 -8.52197
387 2 5.34418 14.2511 12.4698 -6.92221
388 2 3.56279 16.0325 12.4698 -7.00254
295 3 8.90697 14.2511 8.90697 -6.42849
296 1 7.12557 16.0325 8.90697 -8.5469
389 3 7.12557 14.2511 10.6884 -6.3679
390 3 8.90697 16.0325 10.6884 -6.33767
391 1 8.90697 14.2511 12.4698 -8.53192
392 2 7.12557 16.0325 12.4698 -7.02249
297 2 12.4698 14.2511 8.90697 -7.06874
298 1 10.6884 16.0325 8.90697 -8.47935
393 3 10.6884 14.2511 10.6884 -6.47283
394 1 12.4698 16.0325 10.6884 -8.61281
395 2 12.4698 14.2511 12.4698 -7.02736
396 2 10.6884 16.0325 12.4698 -6.95524
299 3 16.0325 14.2511 8.90697 -6.35628
300 2 14.2511 16.0325 8.90697 -7.03328
397 3 14.2511 14.2511 10.6884 -6.55144
398 1 16.0325 16.0325 10.6884 -8.60144
399 2 16.0325 14.2511 12.4698 -7.00191
400 2 14.2511 16.0325 12.4698 -7.0067
401 2 0 0 14.2511 -6.983
402 3 1.78139 1.78139 14.2511 -6.49969
403 2 1.78139 0 16.0325 -6.97377
404 1 0 1.78139 16.0325 -8.44922
405 1 3.56279 0 14.2511 -8.49267
406 3 5.34418 1.78139 14.2511 -6.43674
407 2 5.34418 0 16.0325 -7.00306
408 1 3.56279 1.78139 16.0325 -8.42117
409 1 7.12557 0 14.2511 -8.69096
410 3 8.90697 1.78139 14.2511 -6.33035
411 1 8.90697 0 16.0325 -8.46208
412 2 7.12557 1.78139 16.0325 -6.91055
413 1 10.6884 0 14.2511 -8.50253
414 2 12.4698 1.78139 14.2511 -6.96334
415 1 12.4698 0 16.0325 -8.18317
416 3 10.6884 1.78139 16.0325 -6.35515
417 1 14.2511 0 14.2511 -8.37501
418 2 16.0325 1.78139 14.2511 -7.02718
419 3 16.0325 0 16.0325 -6.4204
420 2 14.2511 1.78139 16.0325 -7.05356
421 2 0 3.56279 14.2511 -7.12138
422 2 1.78139 5.34418 14.2511 -7.08428
423 2 1.78139 3.56279 16.0325 -7.01124
424 2 0 5.34418 16.0325 -7.0711
425 3 3.56279 3.56279 14.2511 -6.60153
426 1 5.34418 5.34418 14.2511 -8.3924
427 3 5.34418 3.56279 16.0325 -6.34127
428 3 3.56279 5.34418 16.0325 -6.49817
429 1 7.12557 3.56279 14.2511 -8.7012
430 3 8.90697 5.34418 14.2511 -6.30974
431 2 8.90697 3.56279 16.0325 -6.87957
432 2 7.12557 5.34418 16.0325 -6.93576
433 1 10.6884 3.56279 14.2511 -8.61936
434 2 12.4698 5.34418 14.2511 -6.97515
435 2 12.4698 3.56279 16.0325 -7.05373
436 1 10.6884 5.34418 16.0325 -8.29067
437 1 14.2511 3.56279 14.2511 -8.26786
438 3 16.0325 5.34418 14.2511 -6.13123
439 2 16.0325 3.56279 16.0325 -6.94364
440 1 14.2511 5.34418 16.0325 -8.24297
441 2 0 7.12557 14.2511 -7.03192
442 3 1.78139 8.90697 14.2511 -6.43072
443 3 1.78139 7.12557 16.0325 -6.64119
444 2 0 8.90697 16.0325 -6.97313
445 2 3.56279 7.12557 14.2511 -6.95835
446 3 5.34418 8.90697 14.2511 -6.42049
447 1 5.34418 7.12557 16.0325 -8.44568
448 1 3.56279 8.90697 16.0325 -8.46065
449 2 7.12557 7.12557 14.2511 -6.80863
450 3 8.90697 8.90697 14.2511 -6.18818
451 1 8.90697 7.12557 16.0325 -8.56246
452 3 7.12557 8.90697 16.0325 -6.30633
453 1 10.6884 7.12557 14.2511 -8.18117
454 3 12.4698 8.90697 14.2511 -6.09701
455 3 12.4698 7.12557 16.0325 -6.08849
456 1 10.6884 8.90697 16.0325 -8.34628
457 1 14.2511 7.12557 14.2511 -8.14218
458 2 16.0325 8.90697 14.2511 -7.02673
459 1 16.0325 7.12557 16.0325 -8.23223
460 1 14.2511 8.90697 16.0325 -8.2805
461 2 0 10.6884 14.2511 -7.01702
462 2 1.78139 12.4698 14.2511 -7.01446
463 1 1.78139 10.6884 16.0325 -8.4957
464 2 0 12.4698 16.0325 -7.04233
465 2 3.56279 10.6884 14.2511 -6.95312
466 3 5.34418 12.4698 14.2511 -6.42352
467 2 5.34418 10.6884 16.0325 -6.92242
468 1 3.56279 12.4698 16.0325 -8.4445
469 1 7.12557 10.6884 14.2511 -8.6915
470 2 8.90697 12.4698 14.2511 -7.00247
471 1 8.90697 10.6884 16.0325 -8.46125
472 2 7.12557 12.4698 16.0325 -6.94869
473 3 10.6884 10.6884 14.2511 -6.23101
474 2 12.4698 12.4698 14.2511 -7.04225
475 2 12.4698 10.6884 16.0325 -6.93088
476 1 10.6884 12.4698 16.0325 -8.47417
477 2 14.2511 10.6884 14.2511 -6.95316
478 3 16.0325 12.4698 14.2511 -6.46449
479 1 16.0325 10.6884 16.0325 -8.41529
480 2 14.2511 12.4698 16.0325 -7.01655
481 2 0 14.2511 14.2511 -7.03432
482 2 1.78139 16.0325 14.2511 -7.03054
483 1 1.78139 14.2511 16.0325 -8.34917
484 2 0 16.0325 16.0325 -7.06149
485 3 3.56279 14.2511 14.2511 -6.31877
486 1 5.34418 16.0325 14.2511 -8.28289
487 2 5.34418 14.2511 16.0325 -6.94897
488 1 3.56279 16.0325 16.0325 -8.32594
489 1 7.12557 14.2511 14.2511 -8.47001
490 2 8.90697 16.0325 14.2511 -6.97176
491 3 8.90697 14.2511 16.0325 -6.37474
492 3 7.12557 16.0325 16.0325 -6.24525
493 2 10.6884 14.2511 14.2511 -7.01725
494 1 12.4698 16.0325 14.2511 -8.32846
495 2 12.4698 14.2511 16.0325 -7.04013
496 1 10.6884 16.0325 16.0325 -8.3195
497 1 14.2511 14.2511 14.2511 -8.4925
498 2 16.0325 16.0325 14.2511 -6.95519
499 2 16.0325 14.2511 16.0325 -7.0681
500 2 14.2511 16.0325 16.0325 -7.04526
501 3 0 0 17.8139 -6.24054
502 2 1.78139 1.78139 17.8139 -7.03985
503 2 1.78139 0 19.5953 -7.07941
504 2 0 1.78139 19.5953 -7.0226
601 2 0 0 21.3767 -7.01614
602 2 1.78139 1.78139 21.3767 -7.00647
505 1 3.56279 0 17.8139 -8.26601
506 2 5.34418 1.78139 17.8139 -6.89563
507 2 5.34418 0 19.5953 -6.98419
508 3 3.56279 1.78139 19.5953 -6.45634
605 2 3.56279 0 21.3767 -7.06198
606 1 5.34418 1.78139 21.3767 -8.76324
509 1 7.12557 0 17.8139 -8.49772
510 3 8.90697 1.78139 17.8139 -6.31649
511 3 8.90697 0 19.5953 -6.37101
512 3 7.12557 1.78139 19.5953 -6.32107
609 3 7.12557 0 21.3767 -6.49663
610 1 8.90697 1.78139 21.3767 -8.40732
513 3 10.6884 0 17.8139 -6.37008
514 1 12.4698 1.78139 17.8139 -8.46346
515 3 12.4698 0 19.5953 -6.27084
516 1 10.6884 1.78139 19.5953 -8.25068
613 1 10.6884 0 21.3767 -8.18629
614 1 12.4698 1.78139 21.3767 -8.2863
517 2 14.2511 0 17.8139 -6.96596
518 2 16.0325 1.78139 17.8139 -7.04146
519 3 16.0325 0 19.5953 -6.49212
520 2 14.2511 1.78139 19.5953 -6.96016
617 1 14.2511 0 21.3767 -8.47897
618 3 16.0325 1.78139 21.3767 -6.41568
521 2 0 3.56279 17.8139 -6.99481
522 3 1.78139 5.34418 17.8139 -6.45412
523 1 1.78139 3.56279 19.5953 -8.3917
524 1 0 5.34418 19.5953 -8.41189
621 2 0 3.56279 21.3767 -7.05911
622 2 1.78139 5.34418 21.3767 -7.00204
525 1 3.56279 3.56279 17.8139 -8.49224
526 3 5.34418 5.34418 17.8139 -6.29927
527 3 5.34418 3.56279 19.5953 -6.31285
528 1 3.56279 5.34418 19.5953 -8.23189
625 3 3.56279 3.56279 21.3767 -6.33143
626 1 5.34418 5.34418 21.3767 -8.62623
529 1 7.12557 3.56279 17.8139 -8.75667
530 3 8.90697 5.34418 17.8139 -6.31598
531 1 8.90697 3.56279 19.5953 -8.56966
532 3 7.12557 5.34418 19.5953 -6.25526
629 3 7.12557 3.56279 21.3767 -6.31128
630 3 8.90697 5.34418 21.3767 -6.4389
533 2 10.6884 3.56279 17.8139 -6.92359
534 1 12.4698 5.34418 17.8139 -8.54669
535 2 12.4698 3.56279 19.5953 -6.90092
536 3 10.6884 5.34418 19.5953 -6.4044
633 3 10.6884 3.56279 21.3767 -6.27724
634 1 12.4698 5.34418 21.3767 -8.78344
537 2 14.2511 3.56279 17.8139 -7.05985
538 2 16.0325 5.34418 17.8139 -6.89249
539 1 16.0325 3.56279 19.5953 -8.6806
540 3 14.2511 5.34418 19.5953 -6.43743
637 3 14.2511 3.56279 21.3767 -6.39087
638 2 16.0325 5.34418 21.3767 -6.862
541 3 0 7.12557 17.8139 -6.48909
542 3 1.78139 8.90697 17.8139 -6.40102
543 2 1.78139 7.12557 19.5953 -6.92224
544 1 0 8.90697 19.5953 -8.62212
641 2 0 7.12557 21.3767 -7.05591
642 2 1.78139 8.90697 21.3767 -7.03544
545 2 3.56279 7.12557 17.8139 -6.93704
546 1 5.34418 8.90697 17.8139 -8.26295
547 1 5.34418 7.12557 19.5953 -8.25489
548 1 3.56279 8.90697 19.5953 -8.26315
645 1 3.56279 7.12557 21.3767 -8.29642
646 1 5.34418 8.90697 21.3767 -8.2648
549 2 7.12557 7.12557 17.8139 -6.86083
550 3 8.90697 8.90697 17.8139 -6.27826
551 1 8.90697 7.12557 19.5953 -8.88113
552 2 7.12557 8.90697 19.5953 -6.95523
649 3 7.12557 7.12557 21.3767 -6.3253
650 2 8.90697 8.90697 21.3767 -6.95374
553 3 10.6884 7.12557 17.8139 -6.26636
554 1 12.4698 8.90697 17.8139 -8.48862
555 2 12.4698 7.12557 19.5953 -6.9126
556 3 10.6884 8.90697 19.5953 -6.48684
653 2 10.6884 7.12557 21.3767 -7.02875
654 2 12.4698 8.90697 21.3767 -7.08058
557 3 14.2511 7.12557 17.8139 -6.14759
558 1 16.0325 8.90697 17.8139 -8.23511
559 1 16.0325 7.12557 19.5953 -8.40684
560 1 14.2511 8.90697 19.5953 -8.40833
657 2 14.2511 7.12557 21.3767 -7.03161
658 2 16.0325 8.90697 21.3767 -6.89833
561 2 0 10.6884 17.8139 -7.0071
562 3 1.78139 12.4698 17.8139 -6.46137
563 2 1.78139 10.6884 19.5953 -6.98745
564 2 0 12.4698 19.5953 -6.99398
661 3 0 10.6884 21.3767 -6.40545
662 1 1.78139 12.4698 21.3767 -8.60019
565 3 3.56279 10.6884 17.8139 -6.30329
566 1 5.34418 12.4698 17.8139 -8.52656
567 2 5.34418 10.6884 19.5953 -6.95562
568 3 3.56279 12.4698 19.5953 -6.34701
665 1 3.56279 10.6884 21.3767 -8.21482
666 1 5.34418 12.4698 21.3767 -8.42614
569 3 7.12557 10.6884 17.8139 -6.39152
570 2 8.90697 12.4698 17.8139 -6.93784
571 1 8.90697 10.6884 19.5953 -8.68963
572 2 7.12557 12.4698 19.5953 -6.9984
669 1 7.12557 10.6884 21.3767 -8.16382
670 3 8.90697 12.4698 21.3767 -6.28154
573 2 10.6884 10.6884 17.8139 -6.96194
574 1 12.4698 12.4698 17.8139 -8.68625
575 3 12.4698 10.6884 19.5953 -6.51156
576 3 10.6884 12.4698 19.5953 -6.46232
673 3 10.6884 10.6884 21.3767 -6.5817
674 3 12.4698 12.4698 21.3767 -6.54534
577 3 14.2511 10.6884 17.8139 -6.30472
578 3 16.0325 12.4698 17.8139 -6.49332
579 3 16.0325 10.6884 19.5953 -6.35604
580 2 14.2511 12.4698 19.5953 -6.91732
677 2 14.2511 10.6884 21.3767 -7.01417
678 2 16.0325 12.4698 21.3767 -6.90718
581 1 0 14.2511 17.8139 -8.45268
582 2 1.78139 16.0325 17.8139 -6.91324
583 3 1.78139 14.2511 19.5953 -6.38062
584 3 0 16.0325 19.5953 -6.45554
681 3 0 14.2511 21.3767 -6.31337
682 3 1.78139 16.0325 21.3767 -6.34534
585 3 3.56279 14.2511 17.8139 -6.27765
586 1 5.34418 16.0325 17.8139 -8.52225
587 3 5.34418 14.2511 19.5953 -6.24467
588 1 3.56279 16.0325 19.5953 -8.70707
685 3 3.56279 14.2511 21.3767 -6.34466
686 3 5.34418 16.0325 21.3767 -6.39419
589 1 7.12557 14.2511 17.8139 -8.33357
590 1 8.90697 16.0325 17.8139 -8.55908
591 2 8.90697 14.2511 19.5953 -6.94489
592 2 7.12557 16.0325 19.5953 -6.94358
689 1 7.12557 14.2511 21.3767 -8.49402
690 2 8.90697 16.0325 21.3767 -7.04301
593 3 10.6884 14.2511 17.8139 -6.40324
594 1 12.4698 16.0325 17.8139 -8.60656
595 3 12.4698 14.2511 19.5953 -6.4937
596 3 10.6884 16.0325 19.5953 -6.53406
693 1 10.6884 14.2511 21.3767 -8.62952
694 2 12.4698 16.0325 21.3767 -7.02113
597 3 14.2511 14.2511 17.8139 -6.46153
598 1 16.0325 16.0325 17.8139 -8.50002
599 1 16.0325 14.2511 19.5953 -8.39549
600 2 14.2511 16.0325 19.5953 -6.96118
697 3 14.2511 14.2511 21.3767 -6.47039
698 3 16.0325 16.0325 21.3767 -6.29338
603 1 1.78139 0 23.1581 -8.46339
604 3 0 1.78139 23.1581 -6.32006
701 3 0 0 24.9395 -6.26661
702 3 1.78139 1.78139 24.9395 -6.43912
607 1 5.34418 0 23.1581 -8.21092
608 2 3.56279 1.78139 23.1581 -6.97022
703 2 3.56279 0 24.9395 -6.97439
704 1 5.34418 1.78139 24.9395 -8.25961
611 2 8.90697 0 23.1581 -7.02015
612 2 7.12557 1.78139 23.1581 -6.94186
705 2 7.12557 0 24.9395 -7.01031
706 1 8.90697 1.78139 24.9395 -8.2365
615 1 12.4698 0 23.1581 -8.08581
616 1 10.6884 1.78139 23.1581 -8.2864
707 3 10.6884 0 24.9395 -6.33644
708 2 12.4698 1.78139 24.9395 -6.94951
619 2 16.0325 0 23.1581 -6.89841
620 1 14.2511 1.78139 23.1581 -8.50786
709 2 14.2511 0 24.9395 -6.97081
710 3 16.0325 1.78139 24.9395 -6.46858
623 1 1.78139 3.56279 23.1581 -8.50415
624 2 0 5.34418 23.1581 -7.07335
711 2 0 3.56279 24.9395 -6.95429
712 1 1.78139 5.34418 24.9395 -8.34595
627 3 5.34418 3.56279 23.1581 -6.2057
628 3 3.56279 5.34418 23.1581 -6.18874
713 1 3.56279 3.56279 24.9395 -8.35653
714 1 5.34418 5.34418 24.9395 -8.46432
631 2 8.90697 3.56279 23.1581 -6.9843
632 2 7.12557 5.34418 23.1581 -6.94926
715 1 7.12557 3.56279 24.9395 -8.15319
716 1 8.90697 5.34418 24.9395 -8.20316
635 3 12.4698 3.56279 23.1581 -6.326
636 2 10.6884 5.34418 23.1581 -7.02164
717 2 10.6884 3.56279 24.9395 -6.95932
718 1 12.4698 5.34418 24.9395 -8.41931
639 3 16.0325 3.56279 23.1581 -6.52239
640 3 14.2511 5.34418 23.1581 -6.48199
719 2 14.2511 3.56279 24.9395 -6.97494
720 3 16.0325 5.34418 24.9395 -6.43901
643 3 1.78139 7.12557 23.1581 -6.37089
644 2 0 8.90697 23.1581 -7.08296
721 1 0 7.12557 24.9395 -8.0252
722 1 1.78139 8.90697 24.9395 -8.25046
647 3 5.34418 7.12557 23.1581 -6.25525
648 2 3.56279 8.90697 23.1581 -6.95645
723 3 3.56279 7.12557 24.9395 -6.32618
724 2 5.34418 8.90697 24.9395 -6.98707
651 1 8.90697 7.12557 23.1581 -8.37265
652 2 7.12557 8.90697 23.1581 -7.04787
725 1 7.12557 7.12557 24.9395 -8.27994
726 2 8.90697 8.90697 24.9395 -7.03764
655 2 12.4698 7.12557 23.1581 -7.00649
656 2 10.6884 8.90697 23.1581 -7.10625
727 1 10.6884 7.12557 24.9395 -8.26241
728 2 12.4698 8.90697 24.9395 -7.01951
659 1 16.0325 7.12557 23.1581 -8.78705
660 1 14.2511 8.90697 23.1581 -8.46277
729 3 14.2511 7.12557 24.9395 -6.30537
730 3 16.0325 8.90697 24.9395 -6.1722
663 2 1.78139 10.6884 23.1581 -7.00489
664 1 0 12.4698 23.1581 -8.2942
731 1 0 10.6884 24.9395 -8.13061
732 1 1.78139 12.4698 24.9395 -8.50736
667 2 5.34418 10.6884 23.1581 -6.94697
668 3 3.56279 12.4698 23.1581 -6.28782
733 1 3.56279 10.6884 24.9395 -8.29598
734 3 5.34418 12.4698 24.9395 -6.28971
671 1 8.90697 10.6884 23.1581 -8.39922
672 3 7.12557 12.4698 23.1581 -6.18182
735 1 7.12557 10.6884 24.9395 -8.34651
736 2 8.90697 12.4698 24.9395 -6.96404
675 2 12.4698 10.6884 23.1581 -7.02344
676 2 10.6884 12.4698 23.1581 -6.99382
737 1 10.6884 10.6884 24.9395 -8.24444
738 1 12.4698 12.4698 24.9395 -8.37427
679 1 16.0325 10.6884 23.1581 -8.45885
680 1 14.2511 12.4698 23.1581 -8.51127
739 3 14.2511 10.6884 24.9395 -6.32505
740 2 16.0325 12.4698 24.9395 -6.94398
683 3 1.78139 14.2511 23.1581 -6.163
684 1 0 16.0325 23.1581 -8.50601
741 3 0 14.2511 24.9395 -6.32683
742 1 1.78139 16.0325 24.9395 -8.54802
687 2 5.34418 14.2511 23.1581 -6.87086
688 1 3.56279 16.0325 23.1581 -8.7622
743 3 3.56279 14.2511 24.9395 -6.39382
744 3 5.34418 16.0325 24.9395 -6.42556
691 1 8.90697 14.2511 23.1581 -8.35999
692 2 7.12557 16.0325 23.1581 -6.95198
745 1 7.12557 14.2511 24.9395 -8.48665
746 2 8.90697 16.0325 24.9395 -7.01192
695 2 12.4698 14.2511 23.1581 -6.99014
696 3 10.6884 16.0325 23.1581 -6.41819
747 1 10.6884 14.2511 24.9395 -8.42103
748 2 12.4698 16.0325 24.9395 -7.02743
699 3 16.0325 14.2511 23.1581 -6.34268
700 1 14.2511 16.0325 23.1581 -8.47058
749 2 14.2511 14.2511 24.9395 -7.02352
750 2 16.0325 16.0325 24.9395 -6.97262
751 3 1.78139 0 26.7209 -6.39715
752 1 0 1.78139 26.7209 -8.72906
801 1 0 0 28.5023 -8.64755
802 2 1.78139 1.78139 28.5023 -6.96294
803 3 1.78139 0 30.2837 -6.46192
804 3 0 1.78139 30.2837 -6.48846
753 3 5.34418 0 26.7209 -6.34823
754 2 3.56279 1.78139 26.7209 -6.96727
805 1 3.56279 0 28.5023 -8.73078
806 2 5.34418 1.78139 28.5023 -6.93472
807 3 5.34418 0 30.2837 -6.35932
808 2 3.56279 1.78139 30.2837 -6.94919
755 1 8.90697 0 26.7209 -8.53231
756 1 7.12557 1.78139 26.7209 -8.3472
809 2 7.12557 0 28.5023 -6.94025
810 3 8.90697 1.78139 28.5023 -6.36124
811 1 8.90697 0 30.2837 -8.50752
812 1 7.12557 1.78139 30.2837 -8.51031
757 1 12.4698 0 26.7209 -8.75898
758 2 10.6884 1.78139 26.7209 -6.94246
813 3 10.6884 0 28.5023 -6.40843
814 3 12.4698 1.78139 28.5023 -6.42309
815 2 12.4698 0 30.2837 -6.95861
816 3 10.6884 1.78139 30.2837 -6.37541
759 1 16.0325 0 26.7209 -8.42812
760 3 14.2511 1.78139 26.7209 -6.43138
817 2 14.2511 0 28.5023 -6.9807
818 1 16.0325 1.78139 28.5023 -8.24401
819 2 16.0325 0 30.2837 -7.02285
820 1 14.2511 1.78139 30.2837 -8.36549
761 2 1.78139 3.56279 26.7209 -6.99417
762 2 0 5.34418 26.7209 -7.05194
821 3 0 3.56279 28.5023 -6.54437
822 1 1.78139 5.34418 28.5023 -8.77013
823 3 1.78139 3.56279 30.2837 -6.51582
824 3 0 5.34418 30.2837 -6.42776
763 3 5.34418 3.56279 26.7209 -6.27285
764 3 3.56279 5.34418 26.7209 -6.24825
825 2 3.56279 3.56279 28.5023 -6.97808
826 1 5.34418 5.34418 28.5023 -8.56032
827 3 5.34418 3.56279 30.2837 -6.34556
828 3 3.56279 5.34418 30.2837 -6.32803
765 2 8.90697 3.56279 26.7209 -6.99022
766 1 7.12557 5.34418 26.7209 -8.2683
829 2 7.12557 3.56279 28.5023 -6.91116
830 3 8.90697 5.34418 28.5023 -6.40749
831 2 8.90697 3.56279 30.2837 -6.89279
832 1 7.12557 5.34418 30.2837 -8.47138
767 1 12.4698 3.56279 26.7209 -8.53307
768 3 10.6884 5.34418 26.7209 -6.2663
833 1 10.6884 3.56279 28.5023 -8.75253
834 3 12.4698 5.34418 28.5023 -6.34655