ITEM: TIMESTEP
0
ITEM: NUMBER OF ATOMS
4000
ITEM: BOX BOUNDS pp pp pp
0.0000000000000000e+00 3.5848190000000002e+01
0.0000000000000000e+00 3.5848190000000002e+01
0.0000000000000000e+00 3.5848190000000002e+01
ITEM: ATOMS id type x y z c_peratom
267 3 0 0 0 -6.46878
517 1 1.79241 1.79241 0 -8.3489
768 1 1.79241 0 1.79241 -8.31483
1016 2 0 1.79241 1.79241 -7.03949
1267 3 0 0 3.58482 -6.67617
1517 2 1.79241 1.79241 3.58482 -7.0235
1268 1 3.58482 0 0 -7.94271
1518 1 5.37723 1.79241 0 -8.19772
1766 2 5.37723 0 1.79241 -6.9391
2017 1 3.58482 1.79241 1.79241 -8.21225
2266 3 3.58482 0 3.58482 -6.39751
2518 3 5.37723 1.79241 3.58482 -6.38661
2267 1 7.16964 0 0 -8.003
2519 1 8.96205 1.79241 0 -7.94603
2767 1 8.96205 0 1.79241 -8.32656
3017 2 7.16964 1.79241 1.79241 -6.94809
3266 3 7.16964 0 3.58482 -6.40972
3517 3 8.96205 1.79241 3.58482 -6.50045
1 2 10.7545 1.79241 1.79241 -7.07045
268 1 10.7545 0 3.58482 -8.36798
518 1 12.5469 1.79241 3.58482 -8.40359
3267 2 10.7545 0 0 -7.04261
3518 2 12.5469 1.79241 0 -7.0545
3768 2 12.5469 0 1.79241 -7.1026
269 1 14.3393 0 0 -8.02241
519 1 16.1317 1.79241 0 -8.45393
769 2 16.1317 0 1.79241 -7.10898
1017 2 14.3393 1.79241 1.79241 -7.13556
1269 2 14.3393 0 3.58482 -7.17412
1519 2 16.1317 1.79241 3.58482 -7.1008
1270 2 0 3.58482 0 -7.01158
1520 3 1.79241 5.37723 0 -6.69756
1767 3 1.79241 3.58482 1.79241 -6.47981
2018 1 0 5.37723 1.79241 -8.61656
2268 2 0 3.58482 3.58482 -7.06024
2520 3 1.79241 5.37723 3.58482 -6.48336
2269 2 3.58482 3.58482 0 -6.9627
2521 1 5.37723 5.37723 0 -8.34237
2768 2 5.37723 3.58482 1.79241 -6.97068
3018 2 3.58482 5.37723 1.79241 -6.99952
3268 1 3.58482 3.58482 3.58482 -8.32271
3519 1 5.37723 5.37723 3.58482 -8.06168
2 1 7.16964 5.37723 1.79241 -8.06572
270 3 7.16964 3.58482 3.58482 -6.39431
520 2 8.96205 5.37723 3.58482 -6.96777
3269 3 7.16964 3.58482 0 -6.22464
3520 1 8.96205 5.37723 0 -8.08976
3769 1 8.96205 3.58482 1.79241 -8.2956
271 1 10.7545 3.58482 0 -8.19051
521 3 12.5469 5.37723 0 -6.58754
770 2 12.5469 3.58482 1.79241 -7.07185
1018 3 10.7545 5.37723 1.79241 -6.32638
1271 2 10.7545 3.58482 3.58482 -6.98514
1521 1 12.5469 5.37723 3.58482 -8.47118
1272 3 14.3393 3.58482 0 -6.58412
1522 1 16.1317 5.37723 0 -8.57171
1768 2 16.1317 3.58482 1.79241 -7.01471
2019 2 14.3393 5.37723 1.79241 -6.97166
2270 3 14.3393 3.58482 3.58482 -6.54377
2522 2 16.1317 5.37723 3.58482 -6.9738
2271 2 0 7.16964 0 -7.00643
2523 3 1.79241 8.96205 0 -6.61561
2769 3 1.79241 7.16964 1.79241 -6.61823
3019 2 0 8.96205 1.79241 -7.04981
3270 3 0 7.16964 3.58482 -6.55129
3521 2 1.79241 8.96205 3.58482 -7.08194
3 2 3.58482 8.96205 1.79241 -7.09427
272 1 3.58482 7.16964 3.58482 -8.35191
522 1 5.37723 8.96205 3.58482 -7.94211
3271 2 3.58482 7.16964 0 -7.10243
3522 1 5.37723 8.96205 0 -8.11856
3770 1 5.37723 7.16964 1.79241 -7.9209
273 2 7.16964 7.16964 0 -7.04989
523 1 8.96205 8.96205 0 -8.11272
771 2 8.96205 7.16964 1.79241 -7.03998
1019 1 7.16964 8.96205 1.79241 -7.88026
1273 1 7.16964 7.16964 3.58482 -7.91197
1523 1 8.96205 8.96205 3.58482 -7.94465
1274 1 10.7545 7.16964 0 -8.23162
1524 2 12.5469 8.96205 0 -7.03696
1769 3 12.5469 7.16964 1.79241 -6.39678
2020 1 10.7545 8.96205 1.79241 -8.1003
2272 1 10.7545 7.16964 3.58482 -8.27248
2524 2 12.5469 8.96205 3.58482 -6.9669
2273 2 14.3393 7.16964 0 -6.93239
2525 3 16.1317 8.96205 0 -6.33581
2770 1 16.1317 7.16964 1.79241 -8.40433
3020 1 14.3393 8.96205 1.79241 -8.35216
3272 3 14.3393 7.16964 3.58482 -6.40368
3523 2 16.1317 8.96205 3.58482 -6.96474
4 2 0 12.5469 1.79241 -6.99955
274 3 0 10.7545 3.58482 -6.52932
524 3 1.79241 12.5469 3.58482 -6.48996
3273 3 0 10.7545 0 -6.40678
3524 1 1.79241 12.5469 0 -8.23776
3771 2 1.79241 10.7545 1.79241 -7.04691
275 3 3.58482 10.7545 0 -6.26638
525 1 5.37723 12.5469 0 -8.02832
772 1 5.37723 10.7545 1.79241 -8.02884
1020 3 3.58482 12.5469 1.79241 -6.30797
1275 2 3.58482 10.7545 3.58482 -7.01309
1525 1 5.37723 12.5469 3.58482 -8.03569
1276 1 7.16964 10.7545 0 -7.99822
1526 3 8.96205 12.5469 0 -6.26737
1770 3 8.96205 10.7545 1.79241 -6.24094
2021 1 7.16964 12.5469 1.79241 -8.12527
2274 1 7.16964 10.7545 3.58482 -7.98853
2526 3 8.96205 12.5469 3.58482 -6.28903
2275 3 10.7545 10.7545 0 -6.33145
2527 2 12.5469 12.5469 0 -7.03191
2771 1 12.5469 10.7545 1.79241 -8.1706
3021 2 10.7545 12.5469 1.79241 -6.89512
3274 2 10.7545 10.7545 3.58482 -6.94068
3525 3 12.5469 12.5469 3.58482 -6.23842
5 1 14.3393 12.5469 1.79241 -8.23579
276 2 14.3393 10.7545 3.58482 -6.94509
526 1 16.1317 12.5469 3.58482 -8.29172
3275 1 14.3393 10.7545 0 -8.12381
3526 2 16.1317 12.5469 0 -6.95455
3772 3 16.1317 10.7545 1.79241 -6.34493
277 1 0 14.3393 0 -8.38321
527 3 1.79241 16.1317 0 -6.30466
773 2 1.79241 14.3393 1.79241 -6.92681
1021 2 0 16.1317 1.79241 -6.96173
1277 2 0 14.3393 3.58482 -6.95748
1527 1 1.79241 16.1317 3.58482 -8.17483
1278 1 3.58482 14.3393 0 -8.43702
1528 3 5.37723 16.1317 0 -6.49861
1771 2 5.37723 14.3393 1.79241 -7.01472
2022 3 3.58482 16.1317 1.79241 -6.33935
2276 1 3.58482 14.3393 3.58482 -8.30141
2528 2 5.37723 16.1317 3.58482 -6.97798
2277 2 7.16964 14.3393 0 -6.98723
2529 3 8.96205 16.1317 0 -6.44261
2772 1 8.96205 14.3393 1.79241 -8.38622
3022 2 7.16964 16.1317 1.79241 -7.04313
3276 2 7.16964 14.3393 3.58482 -7.02599
3527 3 8.96205 16.1317 3.58482 -6.41563
6 2 10.7545 16.1317 1.79241 -6.8876
278 2 10.7545 14.3393 3.58482 -6.9169
528 3 12.5469 16.1317 3.58482 -6.21852
3277 1 10.7545 14.3393 0 -8.31501
3528 3 12.5469 16.1317 0 -6.39307
3773 3 12.5469 14.3393 1.79241 -6.44113
279 2 14.3393 14.3393 0 -6.97041
529 2 16.1317 16.1317 0 -6.96567
774 2 16.1317 14.3393 1.79241 -7.04609
1022 3 14.3393 16.1317 1.79241 -6.34832
1279 1 14.3393 14.3393 3.58482 -8.14413
1529 1 16.1317 16.1317 3.58482 -8.19717
1772 3 1.79241 0 5.37723 -6.56227
2023 2 0 1.79241 5.37723 -7.07455
2278 3 0 0 7.16964 -6.71006
2530 2 1.79241 1.79241 7.16964 -7.00047
2774 3 3.58482 0 7.16964 -6.48042
2773 1 5.37723 0 5.37723 -8.37628
3024 1 5.37723 1.79241 7.16964 -8.28006
3023 1 3.58482 1.79241 5.37723 -8.43661
7 3 7.16964 1.79241 5.37723 -6.33784
3278 1 7.16964 0 7.16964 -8.13037
3529 1 8.96205 1.79241 7.16964 -8.29966
3774 3 8.96205 0 5.37723 -6.42084
8 3 12.5469 1.79241 7.16964 -6.42063
775 2 12.5469 0 5.37723 -7.09062
1023 2 10.7545 1.79241 5.37723 -6.93023
3775 3 10.7545 0 7.16964 -6.5109
280 2 14.3393 0 7.16964 -6.95542
530 1 16.1317 1.79241 7.16964 -8.16139
1773 1 16.1317 0 5.37723 -8.19817
2024 2 14.3393 1.79241 5.37723 -7.01124
776 3 0 3.58482 7.16964 -6.47528
1024 3 1.79241 5.37723 7.16964 -6.43874
2775 2 1.79241 3.58482 5.37723 -6.96977
3025 1 0 5.37723 5.37723 -8.54823
9 3 3.58482 5.37723 5.37723 -6.5053
1280 3 3.58482 3.58482 7.16964 -6.51086
1530 3 5.37723 5.37723 7.16964 -6.44025
3776 3 5.37723 3.58482 5.37723 -6.22654
777 3 8.96205 3.58482 5.37723 -6.4163
1025 1 7.16964 5.37723 5.37723 -8.28981
1774 1 7.16964 3.58482 7.16964 -8.29866
2025 3 8.96205 5.37723 7.16964 -6.33655
1775 3 12.5469 3.58482 5.37723 -6.44178
2026 2 10.7545 5.37723 5.37723 -6.97406
2279 1 10.7545 3.58482 7.16964 -8.51366
2531 2 12.5469 5.37723 7.16964 -7.01811
2777 1 14.3393 3.58482 7.16964 -8.10887
2776 1 16.1317 3.58482 5.37723 -8.05752
3027 2 16.1317 5.37723 7.16964 -7.05443
3026 1 14.3393 5.37723 5.37723 -8.36452
10 1 0 8.96205 5.37723 -8.68256
3279 3 0 7.16964 7.16964 -6.40194
3530 3 1.79241 8.96205 7.16964 -6.4595
3777 2 1.79241 7.16964 5.37723 -6.9907
11 3 5.37723 8.96205 7.16964 -6.38718
778 2 5.37723 7.16964 5.37723 -7.02268
1026 2 3.58482 8.96205 5.37723 -7.00163
3778 2 3.58482 7.16964 7.16964 -7.00297
281 2 7.16964 7.16964 7.16964 -6.90286
531 3 8.96205 8.96205 7.16964 -6.30456
1776 1 8.96205 7.16964 5.37723 -8.24603
2027 2 7.16964 8.96205 5.37723 -7.07551
779 2 10.7545 7.16964 7.16964 -6.92996
1027 2 12.5469 8.96205 7.16964 -6.98072
2778 3 12.5469 7.16964 5.37723 -6.49201
3028 3 10.7545 8.96205 5.37723 -6.30226
12 1 14.3393 8.96205 5.37723 -8.53719
1281 2 14.3393 7.16964 7.16964 -7.05822
1531 2 16.1317 8.96205 7.16964 -7.06646
3779 3 16.1317 7.16964 5.37723 -6.62905
780 3 1.79241 10.7545 5.37723 -6.40003
1028 1 0 12.5469 5.37723 -8.44304
1777 2 0 10.7545 7.16964 -6.99853
2028 1 1.79241 12.5469 7.16964 -8.01054
1778 1 5.37723 10.7545 5.37723 -7.99005
2029 1 3.58482 12.5469 5.37723 -8.15539
2280 1 3.58482 10.7545 7.16964 -8.31362
2532 3 5.37723 12.5469 7.16964 -6.27463
2780 1 7.16964 10.7545 7.16964 -8.29037
2779 1 8.96205 10.7545 5.37723 -8.06588
3030 1 8.96205 12.5469 7.16964 -7.89122
3029 2 7.16964 12.5469 5.37723 -6.97455
13 1 10.7545 12.5469 5.37723 -8.07922
3280 1 10.7545 10.7545 7.16964 -8.2318
3531 1 12.5469 12.5469 7.16964 -8.0323
3780 1 12.5469 10.7545 5.37723 -8.13451
14 1 16.1317 12.5469 7.16964 -8.33119
781 3 16.1317 10.7545 5.37723 -6.40881
1029 1 14.3393 12.5469 5.37723 -8.1381
3781 3 14.3393 10.7545 7.16964 -6.32197
282 2 0 14.3393 7.16964 -6.9949
532 1 1.79241 16.1317 7.16964 -8.1143
1779 3 1.79241 14.3393 5.37723 -6.23538
2030 2 0 16.1317 5.37723 -6.96432
782 1 3.58482 14.3393 7.16964 -8.2143
1030 2 5.37723 16.1317 7.16964 -7.03302
2781 3 5.37723 14.3393 5.37723 -6.3928
3031 1 3.58482 16.1317 5.37723 -8.04213
15 2 7.16964 16.1317 5.37723 -6.99779
1282 2 7.16964 14.3393 7.16964 -6.9456
1532 1 8.96205 16.1317 7.16964 -8.3643
3782 1 8.96205 14.3393 5.37723 -8.19369
783 1 12.5469 14.3393 5.37723 -8.06734
1031 2 10.7545 16.1317 5.37723 -6.97451
1780 1 10.7545 14.3393 7.16964 -8.00589
2031 2 12.5469 16.1317 7.16964 -6.95576
1781 3 16.1317 14.3393 5.37723 -6.1147
2032 1 14.3393 16.1317 5.37723 -7.99487
2281 3 14.3393 14.3393 7.16964 -6.14173
2533 1 16.1317 16.1317 7.16964 -8.23092
16 2 0 1.79241 12.5469 -7.00134
2782 3 1.79241 0 8.96205 -6.60492
3032 2 0 1.79241 8.96205 -6.95962
3281 1 0 0 10.7545 -8.40062
3532 3 1.79241 1.79241 10.7545 -6.51964
3783 3 1.79241 0 12.5469 -6.54997
251 3 3.58482 0 10.7545 -6.6157
533 3 5.37723 1.79241 10.7545 -6.69867
784 3 5.37723 0 12.5469 -6.46178
1032 2 3.58482 1.79241 12.5469 -7.01844
3282 2 5.37723 0 8.96205 -6.93345
3533 2 3.58482 1.79241 8.96205 -6.93061
17 2 7.16964 1.79241 8.96205 -6.99161
1283 3 7.16964 0 10.7545 -6.43799
1533 1 8.96205 1.79241 10.7545 -8.36733
1782 3 8.96205 0 12.5469 -6.45716
2033 2 7.16964 1.79241 12.5469 -6.9583
3784 1 8.96205 0 8.96205 -8.17625
252 3 12.5469 0 8.96205 -6.41174
534 3 10.7545 1.79241 8.96205 -6.31681
2282 2 10.7545 0 10.7545 -6.9525
2534 2 12.5469 1.79241 10.7545 -6.90234
2783 2 12.5469 0 12.5469 -6.97959
3033 3 10.7545 1.79241 12.5469 -6.42346
18 3 14.3393 1.79241 12.5469 -6.33667
785 3 16.1317 0 8.96205 -6.27359
1033 1 14.3393 1.79241 8.96205 -8.13169
3283 1 14.3393 0 10.7545 -8.24845
3534 1 16.1317 1.79241 10.7545 -8.33437
3785 1 16.1317 0 12.5469 -8.31582
253 1 0 3.58482 10.7545 -8.21323
535 2 1.79241 5.37723 10.7545 -7.02196
786 1 1.79241 3.58482 12.5469 -8.44763
1034 3 0 5.37723 12.5469 -6.54053
1284 1 1.79241 3.58482 8.96205 -8.45041
1534 1 0 5.37723 8.96205 -8.24457
1285 3 3.58482 3.58482 10.7545 -6.65949
1535 2 5.37723 5.37723 10.7545 -7.10302
1784 2 5.37723 3.58482 12.5469 -7.14323
1783 3 5.37723 3.58482 8.96205 -6.55356
2035 2 3.58482 5.37723 12.5469 -7.11868
2034 2 3.58482 5.37723 8.96205 -6.91447
2284 2 7.16964 3.58482 10.7545 -7.00026
2283 3 8.96205 3.58482 8.96205 -6.30334
2536 2 8.96205 5.37723 10.7545 -6.94036
2535 1 7.16964 5.37723 8.96205 -8.33294
2784 1 8.96205 3.58482 12.5469 -8.35642
3034 2 7.16964 5.37723 12.5469 -7.06264
19 3 10.7545 5.37723 12.5469 -6.52406
2785 1 12.5469 3.58482 8.96205 -8.01626
3035 3 10.7545 5.37723 8.96205 -6.32112
3284 1 10.7545 3.58482 10.7545 -8.34769
3535 1 12.5469 5.37723 10.7545 -8.41762
3786 3 12.5469 3.58482 12.5469 -6.36595
254 2 14.3393 3.58482 10.7545 -6.93776
536 2 16.1317 5.37723 10.7545 -6.96149
787 2 16.1317 3.58482 12.5469 -6.93456
1035 3 14.3393 5.37723 12.5469 -6.50731
3285 3 16.1317 3.58482 8.96205 -6.30823
3536 1 14.3393 5.37723 8.96205 -8.19376
20 2 0 8.96205 8.96205 -6.96788
1286 1 0 7.16964 10.7545 -8.39195
1536 2 1.79241 8.96205 10.7545 -7.02886
1785 3 1.79241 7.16964 12.5469 -6.60838
2036 3 0 8.96205 12.5469 -6.48385
3787 1 1.79241 7.16964 8.96205 -8.37036
255 1 5.37723 7.16964 8.96205 -8.32196
537 1 3.58482 8.96205 8.96205 -8.38041
2285 3 3.58482 7.16964 10.7545 -6.56198
2537 3 5.37723 8.96205 10.7545 -6.45102
2786 3 5.37723 7.16964 12.5469 -6.7185
3036 3 3.58482 8.96205 12.5469 -6.5981
21 2 7.16964 8.96205 12.5469 -7.00101
788 1 8.96205 7.16964 8.96205 -8.5235
1036 2 7.16964 8.96205 8.96205 -6.89184
3286 1 7.16964 7.16964 10.7545 -8.33473
3537 3 8.96205 8.96205 10.7545 -6.49466
3788 2 8.96205 7.16964 12.5469 -7.07099
256 3 10.7545 7.16964 10.7545 -6.52149
538 2 12.5469 8.96205 10.7545 -6.99318
789 2 12.5469 7.16964 12.5469 -6.97542
1037 3 10.7545 8.96205 12.5469 -6.66721
1287 1 12.5469 7.16964 8.96205 -8.41894
1537 3 10.7545 8.96205 8.96205 -6.43899
1288 3 14.3393 7.16964 10.7545 -6.46741
1538 1 16.1317 8.96205 10.7545 -8.3964
1787 1 16.1317 7.16964 12.5469 -8.49546
1786 2 16.1317 7.16964 8.96205 -7.0543
2038 2 14.3393 8.96205 12.5469 -7.07984
2037 2 14.3393 8.96205 8.96205 -7.049
2287 1 0 10.7545 10.7545 -8.27806
2286 2 1.79241 10.7545 8.96205 -7.03986
2539 2 1.79241 12.5469 10.7545 -7.08139
2538 1 0 12.5469 8.96205 -8.25732
2787 2 1.79241 10.7545 12.5469 -7.01373
3037 1 0 12.5469 12.5469 -8.22449
22 2 3.58482 12.5469 12.5469 -7.01628
2788 3 5.37723 10.7545 8.96205 -6.39423
3038 2 3.58482 12.5469 8.96205 -6.95435
3287 2 3.58482 10.7545 10.7545 -7.02902
3538 3 5.37723 12.5469 10.7545 -6.35369
3789 1 5.37723 10.7545 12.5469 -8.57906
257 3 7.16964 10.7545 10.7545 -6.4609
539 3 8.96205 12.5469 10.7545 -6.23373
790 2 8.96205 10.7545 12.5469 -6.97646
1038 1 7.16964 12.5469 12.5469 -8.49609
3288 2 8.96205 10.7545 8.96205 -6.93833
3539 1 7.16964 12.5469 8.96205 -8.47286
23 1 10.7545 12.5469 8.96205 -8.26773
1289 1 10.7545 10.7545 10.7545 -8.51827
1539 3 12.5469 12.5469 10.7545 -6.44788
1788 3 12.5469 10.7545 12.5469 -6.58799
2039 1 10.7545 12.5469 12.5469 -8.56083
3790 3 12.5469 10.7545 8.96205 -6.38662
258 3 16.1317 10.7545 8.96205 -6.37334
540 1 14.3393 12.5469 8.96205 -8.39628
2288 2 14.3393 10.7545 10.7545 -7.00603
2540 1 16.1317 12.5469 10.7545 -8.28891
2789 2 16.1317 10.7545 12.5469 -7.06888
3039 3 14.3393 12.5469 12.5469 -6.59019
24 1 0 16.1317 12.5469 -8.54286
791 1 1.79241 14.3393 8.96205 -7.96612
1039 1 0 16.1317 8.96205 -8.23265
3289 3 0 14.3393 10.7545 -6.37065
3540 2 1.79241 16.1317 10.7545 -7.00724
3791 2 1.79241 14.3393 12.5469 -7.0307
259 1 3.58482 14.3393 10.7545 -8.27477
541 3 5.37723 16.1317 10.7545 -6.39747
792 1 5.37723 14.3393 12.5469 -8.15025
1040 1 3.58482 16.1317 12.5469 -8.33933
1290 3 5.37723 14.3393 8.96205 -6.35382
1540 2 3.58482 16.1317 8.96205 -6.99227
1291 1 7.16964 14.3393 10.7545 -8.29577
1541 1 8.96205 16.1317 10.7545 -8.23636
1790 3 8.96205 14.3393 12.5469 -6.32382
1789 3 8.96205 14.3393 8.96205 -6.1791
2041 1 7.16964 16.1317 12.5469 -8.24488
2040 3 7.16964 16.1317 8.96205 -6.47158
2290 2 10.7545 14.3393 10.7545 -6.81009
2289 3 12.5469 14.3393 8.96205 -6.31839
2542 3 12.5469 16.1317 10.7545 -6.55569
2541 1 10.7545 16.1317 8.96205 -8.2046
2790 3 12.5469 14.3393 12.5469 -6.58624
3040 3 10.7545 16.1317 12.5469 -6.40644
25 2 14.3393 16.1317 12.5469 -6.97585
2791 2 16.1317 14.3393 8.96205 -6.95214
3041 3 14.3393 16.1317 8.96205 -6.44069
3290 2 14.3393 14.3393 10.7545 -6.98295
3541 1 16.1317 16.1317 10.7545 -8.39518
3792 3 16.1317 14.3393 12.5469 -6.25937
260 3 0 0 14.3393 -6.51917
542 2 1.79241 1.79241 14.3393 -7.04715
793 1 1.79241 0 16.1317 -8.42286
1041 1 0 1.79241 16.1317 -8.34256
1292 1 3.58482 0 14.3393 -8.45568
1542 3 5.37723 1.79241 14.3393 -6.41836
1791 1 5.37723 0 16.1317 -8.12851
2042 1 3.58482 1.79241 16.1317 -8.13682
2291 1 7.16964 0 14.3393 -8.39744
2543 3 8.96205 1.79241 14.3393 -6.3916
2792 1 8.96205 0 16.1317 -8.44459
3042 3 7.16964 1.79241 16.1317 -6.27959
26 3 10.7545 1.79241 16.1317 -6.38652
3291 2 10.7545 0 14.3393 -6.954
3542 1 12.5469 1.79241 14.3393 -8.49053
3793 2 12.5469 0 16.1317 -6.9371
261 1 14.3393 0 14.3393 -8.54692
543 3 16.1317 1.79241 14.3393 -6.36368
794 3 16.1317 0 16.1317 -6.38891
1042 3 14.3393 1.79241 16.1317 -6.38618
1293 2 0 3.58482 14.3393 -7.01815
1543 3 1.79241 5.37723 14.3393 -6.55979
1792 1 1.79241 3.58482 16.1317 -8.27516
2043 3 0 5.37723 16.1317 -6.57426
2292 2 3.58482 3.58482 14.3393 -7.07747
2544 2 5.37723 5.37723 14.3393 -7.19632
2793 2 5.37723 3.58482 16.1317 -7.03103
3043 2 3.58482 5.37723 16.1317 -7.11422
27 2 7.16964 5.37723 16.1317 -7.05546
3292 1 7.16964 3.58482 14.3393 -8.52723
3543 3 8.96205 5.37723 14.3393 -6.58507
3794 3 8.96205 3.58482 16.1317 -6.38601
262 3 10.7545 3.58482 14.3393 -6.48793
544 2 12.5469 5.37723 14.3393 -6.96527
795 2 12.5469 3.58482 16.1317 -6.98466
1043 1 10.7545 5.37723 16.1317 -8.43216
1294 1 14.3393 3.58482 14.3393 -8.49887
1544 3 16.1317 5.37723 14.3393 -6.31334
1793 3 16.1317 3.58482 16.1317 -6.40198
2044 1 14.3393 5.37723 16.1317 -8.36981
2293 2 0 7.16964 14.3393 -7.014
2545 1 1.79241 8.96205 14.3393 -8.45033
2794 1 1.79241 7.16964 16.1317 -8.50745
3044 2 0 8.96205 16.1317 -6.95535
28 3 3.58482 8.96205 16.1317 -6.51309
3293 3 3.58482 7.16964 14.3393 -6.64404
3544 2 5.37723 8.96205 14.3393 -7.02603
3795 2 5.37723 7.16964 16.1317 -7.10009
263 3 7.16964 7.16964 14.3393 -6.76457
545 2 8.96205 8.96205 14.3393 -7.12055
796 2 8.96205 7.16964 16.1317 -7.08128
1044 1 7.16964 8.96205 16.1317 -8.45462
1295 2 10.7545 7.16964 14.3393 -7.11307
1545 1 12.5469 8.96205 14.3393 -8.65827
1794 2 12.5469 7.16964 16.1317 -6.99553
2045 3 10.7545 8.96205 16.1317 -6.7116
2294 3 14.3393 7.16964 14.3393 -6.48811
2546 2 16.1317 8.96205 14.3393 -6.97462
2795 1 16.1317 7.16964 16.1317 -8.44556
3045 3 14.3393 8.96205 16.1317 -6.5459
29 1 0 12.5469 16.1317 -8.08672
3294 3 0 10.7545 14.3393 -6.27249
3545 1 1.79241 12.5469 14.3393 -8.09612
3796 1 1.79241 10.7545 16.1317 -8.29256
264 2 3.58482 10.7545 14.3393 -7.03292
546 3 5.37723 12.5469 14.3393 -6.4607
797 2 5.37723 10.7545 16.1317 -7.00381
1045 2 3.58482 12.5469 16.1317 -7.06637
1296 3 7.16964 10.7545 14.3393 -6.53699
1546 3 8.96205 12.5469 14.3393 -6.51522
1795 3 8.96205 10.7545 16.1317 -6.67611
2046 3 7.16964 12.5469 16.1317 -6.55465
2295 2 10.7545 10.7545 14.3393 -7.06686
2547 2 12.5469 12.5469 14.3393 -7.02354
2796 2 12.5469 10.7545 16.1317 -7.07545
3046 2 10.7545 12.5469 16.1317 -7.05508
30 1 14.3393 12.5469 16.1317 -8.44659
3295 2 14.3393 10.7545 14.3393 -7.0387
3546 1 16.1317 12.5469 14.3393 -8.3558
3797 3 16.1317 10.7545 16.1317 -6.5965
265 2 0 14.3393 14.3393 -7.00294
547 2 1.79241 16.1317 14.3393 -7.02704
798 1 1.79241 14.3393 16.1317 -8.25792
1046 3 0 16.1317 16.1317 -6.5093
1297 1 3.58482 14.3393 14.3393 -8.26571
1547 3 5.37723 16.1317 14.3393 -6.37679
1796 3 5.37723 14.3393 16.1317 -6.52404
2047 3 3.58482 16.1317 16.1317 -6.42399
2296 3 7.16964 14.3393 14.3393 -6.35831
2548 3 8.96205 16.1317 14.3393 -6.37027
2797 1 8.96205 14.3393 16.1317 -8.48708
3047 2 7.16964 16.1317 16.1317 -7.01478
31 2 10.7545 16.1317 16.1317 -7.017
3296 2 10.7545 14.3393 14.3393 -6.96228
3547 1 12.5469 16.1317 14.3393 -8.52476
3798 3 12.5469 14.3393 16.1317 -6.63613
266 2 14.3393 14.3393 14.3393 -7.01355
548 1 16.1317 16.1317 14.3393 -8.35985
799 2 16.1317 14.3393 16.1317 -7.07005
1047 2 14.3393 16.1317 16.1317 -7.02494
1298 3 0 0 17.9241 -6.41565
1548 3 1.79241 1.79241 17.9241 -6.20629
1797 1 1.79241 0 19.7165 -8.5487
2048 1 0 1.79241 19.7165 -8.42567
2297 3 0 0 21.5089 -6.46217
2549 3 1.79241 1.79241 21.5089 -6.33729
2298 2 3.58482 0 17.9241 -7.00612
2550 1 5.37723 1.79241 17.9241 -7.97501
2798 1 5.37723 0 19.7165 -8.04472
3048 1 3.58482 1.79241 19.7165 -8.33614
3297 3 3.58482 0 21.5089 -6.40553
3548 1 5.37723 1.79241 21.5089 -8.3068
501 1 8.96205 1.79241 21.5089 -8.0803
32 1 7.16964 1.79241 19.7165 -8.05978
283 2 7.16964 0 21.5089 -6.94976
3298 2 7.16964 0 17.9241 -6.95741
3549 3 8.96205 1.79241 17.9241 -6.24243
3799 3 8.96205 0 19.7165 -6.37622
502 1 12.5469 1.79241 17.9241 -8.35662
284 1 10.7545 0 17.9241 -8.3762
800 2 12.5469 0 19.7165 -6.99766
1048 2 10.7545 1.79241 19.7165 -6.93014
1299 2 10.7545 0 21.5089 -6.97821
1549 1 12.5469 1.79241 21.5089 -8.36601
1300 1 14.3393 0 17.9241 -8.65932
1550 2 16.1317 1.79241 17.9241 -6.97612
1798 3 16.1317 0 19.7165 -6.60018
2049 3 14.3393 1.79241 19.7165 -6.49157
2299 2 14.3393 0 21.5089 -7.04542
2551 2 16.1317 1.79241 21.5089 -7.05319
2300 1 0 3.58482 17.9241 -8.32161
2552 2 1.79241 5.37723 17.9241 -7.06051
2799 3 1.79241 3.58482 19.7165 -6.41796
3049 1 0 5.37723 19.7165 -8.62637
3299 3 0 3.58482 21.5089 -6.31871
3550 2 1.79241 5.37723 21.5089 -6.95682
503 2 5.37723 5.37723 21.5089 -6.99041
33 2 3.58482 5.37723 19.7165 -7.07974
285 3 3.58482 3.58482 21.5089 -6.45442
3300 2 3.58482 3.58482 17.9241 -7.0229
3551 3 5.37723 5.37723 17.9241 -6.55672
3800 3 5.37723 3.58482 19.7165 -6.33154
504 2 8.96205 5.37723 17.9241 -7.10111
286 1 7.16964 3.58482 17.9241 -8.3291
801 1 8.96205 3.58482 19.7165 -7.88737
1049 1 7.16964 5.37723 19.7165 -8.08433
1301 1 7.16964 3.58482 21.5089 -8.12396
1551 3 8.96205 5.37723 21.5089 -6.09674
1302 1 10.7545 3.58482 17.9241 -8.24
1552 2 12.5469 5.37723 17.9241 -6.98137
1799 3 12.5469 3.58482 19.7165 -6.34129
2050 1 10.7545 5.37723 19.7165 -8.05874
2301 1 10.7545 3.58482 21.5089 -8.1364
2553 1 12.5469 5.37723 21.5089 -8.16958
2302 2 14.3393 3.58482 17.9241 -6.94454
2554 3 16.1317 5.37723 17.9241 -6.3151
2800 1 16.1317 3.58482 19.7165 -8.37666
3050 3 14.3393 5.37723 19.7165 -6.41271
3301 2 14.3393 3.58482 21.5089 -6.9539
3552 3 16.1317 5.37723 21.5089 -6.39472
505 1 1.79241 8.96205 21.5089 -8.47814
34 3 0 8.96205 19.7165 -6.52909
287 3 0 7.16964 21.5089 -6.44375
3302 2 0 7.16964 17.9241 -6.96078
3553 3 1.79241 8.96205 17.9241 -6.62434
3801 3 1.79241 7.16964 19.7165 -6.63397
506 1 5.37723 8.96205 17.9241 -8.21889
288 2 3.58482 7.16964 17.9241 -7.06953
802 1 5.37723 7.16964 19.7165 -8.15133
1050 2 3.58482 8.96205 19.7165 -7.03653
1303 2 3.58482 7.16964 21.5089 -6.96927
1553 1 5.37723 8.96205 21.5089 -8.32921
1304 2 7.16964 7.16964 17.9241 -7.00591
1554 3 8.96205 8.96205 17.9241 -6.61187
1800 1 8.96205 7.16964 19.7165 -8.31496
2051 3 7.16964 8.96205 19.7165 -6.35588
2303 1 7.16964 7.16964 21.5089 -8.10953
2555 2 8.96205 8.96205 21.5089 -6.95744
2304 2 10.7545 7.16964 17.9241 -7.0658
2556 1 12.5469 8.96205 17.9241 -8.56397
2801 1 12.5469 7.16964 19.7165 -8.29747
3051 2 10.7545 8.96205 19.7165 -7.00679
3303 3 10.7545 7.16964 21.5089 -6.25167
3554 2 12.5469 8.96205 21.5089 -6.98817
507 3 16.1317 8.96205 21.5089 -6.40579
35 2 14.3393 8.96205 19.7165 -6.99732
289 2 14.3393 7.16964 21.5089 -6.9739
3304 3 14.3393 7.16964 17.9241 -6.37903
3555 2 16.1317 8.96205 17.9241 -6.94034
3802 1 16.1317 7.16964 19.7165 -8.57248
508 2 1.79241 12.5469 17.9241 -7.02729
290 2 0 10.7545 17.9241 -7.00512
803 3 1.79241 10.7545 19.7165 -6.49031
1051 1 0 12.5469 19.7165 -8.18665
1305 1 0 10.7545 21.5089 -8.48843
1555 1 1.79241 12.5469 21.5089 -8.16336
1306 2 3.58482 10.7545 17.9241 -7.07869
1556 1 5.37723 12.5469 17.9241 -8.3966
1801 1 5.37723 10.7545 19.7165 -8.22052
2052 2 3.58482 12.5469 19.7165 -7.03737
2305 3 3.58482 10.7545 21.5089 -6.33248
2557 2 5.37723 12.5469 21.5089 -6.87854
2306 2 7.16964 10.7545 17.9241 -6.96048
2558 3 8.96205 12.5469 17.9241 -6.59686
2802 3 8.96205 10.7545 19.7165 -6.54631
3052 3 7.16964 12.5469 19.7165 -6.37654
3305 1 7.16964 10.7545 21.5089 -8.378
3556 1 8.96205 12.5469 21.5089 -8.55096
509 3 12.5469 12.5469 21.5089 -6.56808
36 3 10.7545 12.5469 19.7165 -6.52583
291 3 10.7545 10.7545 21.5089 -6.56358
3306 2 10.7545 10.7545 17.9241 -7.04844
3557 2 12.5469 12.5469 17.9241 -7.07274
3803 3 12.5469 10.7545 19.7165 -6.6754
510 2 16.1317 12.5469 17.9241 -6.97627
292 3 14.3393 10.7545 17.9241 -6.56023
804 1 16.1317 10.7545 19.7165 -8.5234
1052 3 14.3393 12.5469 19.7165 -6.58506
1307 2 14.3393 10.7545 21.5089 -6.98505
1557 1 16.1317 12.5469 21.5089 -8.36668
1308 2 0 14.3393 17.9241 -7.05515
1558 2 1.79241 16.1317 17.9241 -6.95494
1802 1 1.79241 14.3393 19.7165 -8.26694
2053 2 0 16.1317 19.7165 -7.07453
2307 2 0 14.3393 21.5089 -6.98591
2559 3 1.79241 16.1317 21.5089 -6.30132
2308 2 3.58482 14.3393 17.9241 -6.97779
2560 1 5.37723 16.1317 17.9241 -8.30317
2803 1 5.37723 14.3393 19.7165 -8.20121
3053 3 3.58482 16.1317 19.7165 -6.20999
3307 1 3.58482 14.3393 21.5089 -8
3558 1 5.37723 16.1317 21.5089 -8.21954
511 1 8.96205 16.1317 21.5089 -8.47173
37 2 7.16964 16.1317 19.7165 -7.04531
293 3 7.16964 14.3393 21.5089 -6.41359
3308 2 7.16964 14.3393 17.9241 -6.96924
3559 2 8.96205 16.1317 17.9241 -7.10394
3804 3 8.96205 14.3393 19.7165 -6.48873
512 2 12.5469 16.1317 17.9241 -7.09078
294 1 10.7545 14.3393 17.9241 -8.52053
805 2 12.5469 14.3393 19.7165 -7.05574
1053 2 10.7545 16.1317 19.7165 -7.07611
1309 1 10.7545 14.3393 21.5089 -8.45877
1559 2 12.5469 16.1317 21.5089 -7.0059
1310 2 14.3393 14.3393 17.9241 -7.099
1560 3 16.1317 16.1317 17.9241 -6.59216
1803 3 16.1317 14.3393 19.7165 -6.61775
2054 2 14.3393 16.1317 19.7165 -7.07847
2309 1 14.3393 14.3393 21.5089 -8.56261
2561 2 16.1317 16.1317 21.5089 -7.00826
38 3 0 1.79241 26.8861 -6.60469
2804 2 1.79241 0 23.3013 -7.0283
3054 1 0 1.79241 23.3013 -8.42837
3309 2 0 0 25.0937 -7.09411
3560 2 1.79241 1.79241 25.0937 -7.00943
3805 2 1.79241 0 26.8861 -7.00261
513 1 5.37723 1.79241 25.0937 -8.35066
39 3 3.58482 1.79241 23.3013 -6.50787
295 2 3.58482 0 25.0937 -7.08286
806 1 5.37723 0 26.8861 -8.13358
1054 3 3.58482 1.79241 26.8861 -6.35565
3806 2 5.37723 0 23.3013 -6.9077
807 1 8.96205 0 23.3013 -8.52591
1055 3 7.16964 1.79241 23.3013 -6.28697
1311 3 7.16964 0 25.0937 -6.33029
1561 2 8.96205 1.79241 25.0937 -6.97493
1804 1 8.96205 0 26.8861 -8.30043
2055 2 7.16964 1.79241 26.8861 -6.99398
1805 1 12.5469 0 23.3013 -8.31315
2056 1 10.7545 1.79241 23.3013 -8.07726
2310 3 10.7545 0 25.0937 -6.19939
2562 2 12.5469 1.79241 25.0937 -6.97234
2805 1 12.5469 0 26.8861 -8.22562
3055 1 10.7545 1.79241 26.8861 -8.36315
40 2 14.3393 1.79241 26.8861 -7.00983
2806 3 16.1317 0 23.3013 -6.62522
3056 2 14.3393 1.79241 23.3013 -7.00989
3310 3 14.3393 0 25.0937 -6.3425
3561 1 16.1317 1.79241 25.0937 -8.62581
3807 1 16.1317 0 26.8861 -8.03496
514 1 1.79241 5.37723 25.0937 -8.36977
41 2 0 5.37723 23.3013 -6.8767
296 3 0 3.58482 25.0937 -6.43115
808 1 1.79241 3.58482 26.8861 -8.48918
1056 2 0 5.37723 26.8861 -6.92854
3808 1 1.79241 3.58482 23.3013 -8.47633
809 2 5.37723 3.58482 23.3013 -6.96135
1057 3 3.58482 5.37723 23.3013 -6.41748
1312 2 3.58482 3.58482 25.0937 -6.96587
1562 1 5.37723 5.37723 25.0937 -8.20205
1806 1 5.37723 3.58482 26.8861 -8.236
2057 2 3.58482 5.37723 26.8861 -6.99756
1807 3 8.96205 3.58482 23.3013 -6.13634
2058 1 7.16964 5.37723 23.3013 -8.09303
2311 1 7.16964 3.58482 25.0937 -8.20282
2563 3 8.96205 5.37723 25.0937 -6.2025
2807 2 8.96205 3.58482 26.8861 -6.90262
3057 1 7.16964 5.37723 26.8861 -7.99875
42 3 10.7545 5.37723 26.8861 -6.33406
2808 3 12.5469 3.58482 23.3013 -6.33231
3058 2 10.7545 5.37723 23.3013 -6.87543
3311 1 10.7545 3.58482 25.0937 -8.32606
3562 1 12.5469 5.37723 25.0937 -8.28
3809 3 12.5469 3.58482 26.8861 -6.54193
515 2 16.1317 5.37723 25.0937 -6.88456
43 1 14.3393 5.37723 23.3013 -8.39499
297 2 14.3393 3.58482 25.0937 -6.9838
810 3 16.1317 3.58482 26.8861 -6.52711
1058 3 14.3393 5.37723 26.8861 -6.49078
3810 3 16.1317 3.58482 23.3013 -6.56254
811 1 1.79241 7.16964 23.3013 -8.46623
1059 2 0 8.96205 23.3013 -6.91717
1313 3 0 7.16964 25.0937 -6.34126
1563 3 1.79241 8.96205 25.0937 -6.654
1808 2 1.79241 7.16964 26.8861 -6.93957
2059 3 0 8.96205 26.8861 -6.40378
1809 3 5.37723 7.16964 23.3013 -6.33621
2060 3 3.58482 8.96205 23.3013 -6.45988
2312 3 3.58482 7.16964 25.0937 -6.42163
2564 3 5.37723 8.96205 25.0937 -6.45259
2809 1 5.37723 7.16964 26.8861 -8.19716
3059 2 3.58482 8.96205 26.8861 -7.01393
44 3 7.16964 8.96205 26.8861 -6.30876
2810 1 8.96205 7.16964 23.3013 -8.3001
3060 3 7.16964 8.96205 23.3013 -6.27029
3312 1 7.16964 7.16964 25.0937 -8.17165
3563 2 8.96205 8.96205 25.0937 -6.9976
3811 1 8.96205 7.16964 26.8861 -8.40355
516 3 12.5469 8.96205 25.0937 -6.40925
45 1 10.7545 8.96205 23.3013 -8.45521
298 3 10.7545 7.16964 25.0937 -6.26623
812 1 12.5469 7.16964 26.8861 -8.36854
1060 2 10.7545 8.96205 26.8861 -6.91408
3812 1 12.5469 7.16964 23.3013 -8.24957
813 3 16.1317 7.16964 23.3013 -6.4342
1061 3 14.3393 8.96205 23.3013 -6.42735
1314 2 14.3393 7.16964 25.0937 -6.91937
1564 1 16.1317 8.96205 25.0937 -8.18742
1810 3 16.1317 7.16964 26.8861 -6.33361
2061 1 14.3393 8.96205 26.8861 -8.29126
1811 3 1.79241 10.7545 23.3013 -6.4518
2062 3 0 12.5469 23.3013 -6.43763
2313 2 0 10.7545 25.0937 -6.98034
2565 2 1.79241 12.5469 25.0937 -7.01584
2811 2 1.79241 10.7545 26.8861 -7.07497
3061 1 0 12.5469 26.8861 -8.30831
46 2 3.58482 12.5469 26.8861 -7.04699
2812 2 5.37723 10.7545 23.3013 -6.94262
3062 1 3.58482 12.5469 23.3013 -8.16486
3313 2 3.58482 10.7545 25.0937 -7.03579
3564 1 5.37723 12.5469 25.0937 -8.10639
3813 3 5.37723 10.7545 26.8861 -6.47623
549 3 8.96205 12.5469 25.0937 -6.46871
47 3 7.16964 12.5469 23.3013 -6.33476
299 1 7.16964 10.7545 25.0937 -8.64157
751 3 8.96205 10.7545 26.8861 -6.51037
1062 2 7.16964 12.5469 26.8861 -6.94724
3814 2 8.96205 10.7545 23.3013 -6.952
752 3 12.5469 10.7545 23.3013 -6.56653
1063 3 10.7545 12.5469 23.3013 -6.41885
1315 2 10.7545 10.7545 25.0937 -6.94477
1565 1 12.5469 12.5469 25.0937 -8.57616
1812 3 12.5469 10.7545 26.8861 -6.46968
2063 2 10.7545 12.5469 26.8861 -6.95198
1813 1 16.1317 10.7545 23.3013 -8.23602
2064 2 14.3393 12.5469 23.3013 -6.97308
2314 3 14.3393 10.7545 25.0937 -6.36746
2566 2 16.1317 12.5469 25.0937 -6.97133
2813 1 16.1317 10.7545 26.8861 -8.17259
3063 3 14.3393 12.5469 26.8861 -6.52374
48 1 0 16.1317 26.8861 -8.44633
2814 1 1.79241 14.3393 23.3013 -8.10148
3064 2 0 16.1317 23.3013 -6.96662
3314 1 0 14.3393 25.0937 -8.41765
3565 3 1.79241 16.1317 25.0937 -6.42073
3815 2 1.79241 14.3393 26.8861 -7.04094
550 3 5.37723 16.1317 25.0937 -6.49815
49 1 3.58482 16.1317 23.3013 -8.31417
300 1 3.58482 14.3393 25.0937 -8.13251
753 1 5.37723 14.3393 26.8861 -8.1529
1064 2 3.58482 16.1317 26.8861 -7.02535
3816 2 5.37723 14.3393 23.3013 -6.98961
754 3 8.96205 14.3393 23.3013 -6.37876
1065 2 7.16964 16.1317 23.3013 -7.00625