ITEM: TIMESTEP
0
ITEM: NUMBER OF ATOMS
4000
ITEM: BOX BOUNDS pp pp pp
0.0000000000000000e+00 3.5477780000000003e+01
0.0000000000000000e+00 3.5477780000000003e+01
0.0000000000000000e+00 3.5477780000000003e+01
ITEM: ATOMS id type x y z c_peratom
267 1 0 0 0 -8.73577
517 1 1.77389 1.77389 0 -8.29221
766 1 1.77389 0 1.77389 -8.54596
1016 3 0 1.77389 1.77389 -6.32551
1269 2 0 0 3.54778 -7.02795
1517 2 1.77389 1.77389 3.54778 -6.88887
1267 2 3.54778 0 0 -6.91906
1518 2 5.32167 1.77389 0 -6.90837
1767 1 5.32167 0 1.77389 -8.66963
2017 3 3.54778 1.77389 1.77389 -6.23977
2267 1 3.54778 0 3.54778 -8.51307
2517 2 5.32167 1.77389 3.54778 -7.01302
1 3 10.6433 1.77389 1.77389 -6.33182
270 2 10.6433 0 3.54778 -6.89565
2269 2 7.09556 0 0 -6.96088
2518 1 8.86945 1.77389 0 -8.40081
2768 2 8.86945 0 1.77389 -6.9907
3017 2 7.09556 1.77389 1.77389 -7.00931
3269 2 10.6433 0 0 -6.8182
3268 3 7.09556 0 3.54778 -6.71321
3517 3 8.86945 1.77389 3.54778 -6.60447
271 1 14.1911 0 0 -8.68835
518 3 12.4172 1.77389 3.54778 -6.23795
1017 2 14.1911 1.77389 1.77389 -6.8675
1272 1 14.1911 0 3.54778 -8.55257
3518 3 12.4172 1.77389 0 -6.14951
3769 1 12.4172 0 1.77389 -8.51842
519 3 15.965 1.77389 0 -6.27778
768 2 15.965 0 1.77389 -6.87292
1519 2 15.965 1.77389 3.54778 -6.93351
1268 3 0 3.54778 0 -6.15873
1520 1 1.77389 5.32167 0 -8.27654
1766 1 1.77389 3.54778 1.77389 -8.54309
2018 2 0 5.32167 1.77389 -6.97761
2268 2 0 3.54778 3.54778 -6.92117
2519 1 1.77389 5.32167 3.54778 -8.26432
2266 2 3.54778 3.54778 0 -6.92661
2520 1 5.32167 5.32167 0 -8.56834
2767 1 5.32167 3.54778 1.77389 -8.70673
3018 3 3.54778 5.32167 1.77389 -6.21595
3266 3 3.54778 3.54778 3.54778 -6.22243
3519 3 5.32167 5.32167 3.54778 -6.44825
2 2 7.09556 5.32167 1.77389 -6.95506
269 1 10.6433 3.54778 0 -8.18845
268 2 7.09556 3.54778 3.54778 -7.03764
520 1 8.86945 5.32167 3.54778 -8.491
1018 1 10.6433 5.32167 1.77389 -8.15134
1270 1 10.6433 3.54778 3.54778 -8.38941
3267 3 7.09556 3.54778 0 -6.19359
3520 1 8.86945 5.32167 0 -8.31786
3768 3 8.86945 3.54778 1.77389 -6.26087
521 1 12.4172 5.32167 0 -8.39171
767 3 12.4172 3.54778 1.77389 -6.22425
1271 2 14.1911 3.54778 0 -6.8161
1521 1 12.4172 5.32167 3.54778 -8.42697
2019 3 14.1911 5.32167 1.77389 -6.06518
2270 3 14.1911 3.54778 3.54778 -6.22539
1522 1 15.965 5.32167 0 -8.38598
1768 1 15.965 3.54778 1.77389 -8.30858
2521 1 15.965 5.32167 3.54778 -8.07647
275 1 0 10.6433 3.54778 -8.55182
2271 1 0 7.09556 0 -8.28031
2522 2 1.77389 8.86945 0 -7.00451
2769 1 1.77389 7.09556 1.77389 -8.30712
3019 2 0 8.86945 1.77389 -6.9631
3273 2 0 10.6433 0 -7.02912
3271 2 0 7.09556 3.54778 -6.90448
3521 3 1.77389 8.86945 3.54778 -6.27194
3771 3 1.77389 10.6433 1.77389 -6.45996
3 1 3.54778 8.86945 1.77389 -8.54517
274 3 3.54778 10.6433 0 -6.48399
272 3 3.54778 7.09556 3.54778 -6.18365
522 3 5.32167 8.86945 3.54778 -6.4848
770 2 5.32167 10.6433 1.77389 -7.04664
1275 1 3.54778 10.6433 3.54778 -8.32342
3270 2 3.54778 7.09556 0 -6.96338
3522 2 5.32167 8.86945 0 -7.06778
3770 2 5.32167 7.09556 1.77389 -6.95448
273 2 7.09556 7.09556 0 -7.06432
523 2 8.86945 8.86945 0 -7.00126
769 1 8.86945 7.09556 1.77389 -8.42941
1019 3 7.09556 8.86945 1.77389 -6.54426
1276 2 7.09556 10.6433 0 -7.11541
1274 3 10.6433 7.09556 0 -6.21146
1273 2 7.09556 7.09556 3.54778 -6.93271
1523 1 8.86945 8.86945 3.54778 -8.55354
1770 1 8.86945 10.6433 1.77389 -8.51707
2020 3 10.6433 8.86945 1.77389 -6.41117
2275 3 10.6433 10.6433 0 -6.50598
2274 2 7.09556 10.6433 3.54778 -6.93634
2272 3 10.6433 7.09556 3.54778 -6.16704
3274 3 10.6433 10.6433 3.54778 -6.21777
276 3 14.1911 10.6433 3.54778 -6.4311
1524 3 12.4172 8.86945 0 -6.41957
1769 3 12.4172 7.09556 1.77389 -6.20091
2273 1 14.1911 7.09556 0 -8.58061
2523 3 12.4172 8.86945 3.54778 -6.45379
2771 3 12.4172 10.6433 1.77389 -6.44658
3020 2 14.1911 8.86945 1.77389 -6.90824
3275 1 14.1911 10.6433 0 -8.73044
3272 1 14.1911 7.09556 3.54778 -8.29395
2524 2 15.965 8.86945 0 -6.98415
2770 1 15.965 7.09556 1.77389 -7.93581
3523 1 15.965 8.86945 3.54778 -8.39237
3772 2 15.965 10.6433 1.77389 -6.98827
4 2 0 12.4172 1.77389 -7.0733
277 2 0 14.1911 0 -7.04114
524 1 1.77389 12.4172 3.54778 -8.48641
771 2 1.77389 14.1911 1.77389 -7.05347
1278 2 0 14.1911 3.54778 -7.05175
3524 3 1.77389 12.4172 0 -6.6693
525 2 5.32167 12.4172 0 -6.98538
1020 2 3.54778 12.4172 1.77389 -7.00614
1277 3 3.54778 14.1911 0 -6.56865
1525 1 5.32167 12.4172 3.54778 -8.72112
1771 2 5.32167 14.1911 1.77389 -6.95646
2276 3 3.54778 14.1911 3.54778 -6.4107
278 2 10.6433 14.1911 3.54778 -6.91781
1526 2 8.86945 12.4172 0 -6.97008
2021 3 7.09556 12.4172 1.77389 -6.5198
2277 3 7.09556 14.1911 0 -6.44388
2525 1 8.86945 12.4172 3.54778 -8.74768
2772 3 8.86945 14.1911 1.77389 -6.43105
3021 1 10.6433 12.4172 1.77389 -8.52819
3277 2 10.6433 14.1911 0 -6.93676
3276 3 7.09556 14.1911 3.54778 -6.46368
5 2 14.1911 12.4172 1.77389 -6.96393
279 1 14.1911 14.1911 0 -8.59566
1279 3 14.1911 14.1911 3.54778 -6.37034
2526 2 12.4172 12.4172 0 -6.98289
3525 1 12.4172 12.4172 3.54778 -8.88229
3773 3 12.4172 14.1911 1.77389 -6.48737
526 1 15.965 12.4172 3.54778 -8.41706
772 1 15.965 14.1911 1.77389 -8.38313
3526 2 15.965 12.4172 0 -6.96862
527 3 1.77389 15.965 0 -6.58377
1021 1 0 15.965 1.77389 -8.57051
1527 1 1.77389 15.965 3.54778 -8.39811
1528 1 5.32167 15.965 0 -8.64994
2022 2 3.54778 15.965 1.77389 -6.98769
2527 1 5.32167 15.965 3.54778 -8.61276
6 3 10.6433 15.965 1.77389 -6.45029
2528 1 8.86945 15.965 0 -8.83312
3022 2 7.09556 15.965 1.77389 -6.89171
3527 3 8.86945 15.965 3.54778 -6.52116
528 2 12.4172 15.965 3.54778 -6.95683
1022 2 14.1911 15.965 1.77389 -6.91951
3528 3 12.4172 15.965 0 -6.54279
529 1 15.965 15.965 0 -8.18538
1529 3 15.965 15.965 3.54778 -6.45182
1772 2 1.77389 0 5.32167 -6.96463
2023 3 0 1.77389 5.32167 -6.50872
2278 2 0 0 7.09556 -7.01536
2529 1 1.77389 1.77389 7.09556 -8.29885
2775 3 5.32167 0 5.32167 -6.54762
2774 1 3.54778 0 7.09556 -8.82017
3024 3 5.32167 1.77389 7.09556 -6.44733
3023 1 3.54778 1.77389 5.32167 -8.31883
7 2 7.09556 1.77389 5.32167 -7.11723
1023 1 10.6433 1.77389 5.32167 -8.38324
3278 3 7.09556 0 7.09556 -6.57507
3529 2 8.86945 1.77389 7.09556 -6.96901
3776 1 10.6433 0 7.09556 -8.21358
3775 2 8.86945 0 5.32167 -7.08429
8 1 12.4172 1.77389 7.09556 -8.14253
280 1 14.1911 0 7.09556 -8.54515
775 3 12.4172 0 5.32167 -6.24272
2024 3 14.1911 1.77389 5.32167 -6.2131
530 3 15.965 1.77389 7.09556 -6.31627
1775 1 15.965 0 5.32167 -8.48543
773 2 0 3.54778 7.09556 -6.96997
1024 3 1.77389 5.32167 7.09556 -6.35835
2773 1 1.77389 3.54778 5.32167 -8.46263
3025 3 0 5.32167 5.32167 -6.47712
9 1 3.54778 5.32167 5.32167 -8.25609
1280 2 3.54778 3.54778 7.09556 -6.94589
1530 1 5.32167 5.32167 7.09556 -8.17136
3774 2 5.32167 3.54778 5.32167 -6.96172
774 2 8.86945 3.54778 5.32167 -6.9956
1025 3 7.09556 5.32167 5.32167 -6.38234
1773 2 7.09556 3.54778 7.09556 -6.99123
2026 1 8.86945 5.32167 7.09556 -8.45479
2025 3 10.6433 5.32167 5.32167 -6.15434
2279 3 10.6433 3.54778 7.09556 -6.1116
1774 1 12.4172 3.54778 5.32167 -8.24283
2530 1 12.4172 5.32167 7.09556 -8.31943
2776 2 14.1911 3.54778 7.09556 -6.91834
3026 1 14.1911 5.32167 5.32167 -8.16133
2777 2 15.965 3.54778 5.32167 -6.89928
3027 1 15.965 5.32167 7.09556 -8.3214
10 2 0 8.86945 5.32167 -6.96516
778 1 1.77389 10.6433 5.32167 -8.59207
1777 2 0 10.6433 7.09556 -6.98758
3279 2 0 7.09556 7.09556 -6.94433
3530 3 1.77389 8.86945 7.09556 -6.55781
3777 1 1.77389 7.09556 5.32167 -8.68886
11 1 5.32167 8.86945 7.09556 -8.49509
776 1 5.32167 7.09556 5.32167 -8.58872
1026 3 3.54778 8.86945 5.32167 -6.26038
1778 2 5.32167 10.6433 5.32167 -6.91196
2280 3 3.54778 10.6433 7.09556 -6.4806
3778 2 3.54778 7.09556 7.09556 -6.99104
281 1 7.09556 7.09556 7.09556 -8.27536
531 2 8.86945 8.86945 7.09556 -6.8351
777 2 10.6433 7.09556 7.09556 -6.91595
1776 2 8.86945 7.09556 5.32167 -6.85821
2027 3 7.09556 8.86945 5.32167 -6.36332
2780 3 8.86945 10.6433 5.32167 -6.44277
2779 3 7.09556 10.6433 7.09556 -6.423
3028 1 10.6433 8.86945 5.32167 -8.64025
3280 3 10.6433 10.6433 7.09556 -6.44677
12 2 14.1911 8.86945 5.32167 -6.82333
1027 1 12.4172 8.86945 7.09556 -8.59255
1281 3 14.1911 7.09556 7.09556 -6.26979
2778 3 12.4172 7.09556 5.32167 -6.14813
3781 1 14.1911 10.6433 7.09556 -8.45613
3780 3 12.4172 10.6433 5.32167 -6.33809
779 3 15.965 10.6433 5.32167 -6.2268
1531 2 15.965 8.86945 7.09556 -6.87579
3779 2 15.965 7.09556 5.32167 -6.9724
282 2 0 14.1911 7.09556 -6.99302
1028 3 0 12.4172 5.32167 -6.55661
1779 3 1.77389 14.1911 5.32167 -6.50771
2029 3 1.77389 12.4172 7.09556 -6.65655
780 2 3.54778 14.1911 7.09556 -7.14778
2028 2 3.54778 12.4172 5.32167 -7.01477
2531 2 5.32167 12.4172 7.09556 -7.02278
2781 3 5.32167 14.1911 5.32167 -6.5772
13 3 10.6433 12.4172 5.32167 -6.52967
1282 3 7.09556 14.1911 7.09556 -6.66692
1780 2 10.6433 14.1911 7.09556 -7.03583
3030 3 8.86945 12.4172 7.09556 -6.58448
3029 2 7.09556 12.4172 5.32167 -6.95025
3782 3 8.86945 14.1911 5.32167 -6.61708
781 3 12.4172 14.1911 5.32167 -6.45769
1029 2 14.1911 12.4172 5.32167 -6.90889
2281 1 14.1911 14.1911 7.09556 -8.3045
3531 2 12.4172 12.4172 7.09556 -6.96715
14 1 15.965 12.4172 7.09556 -8.29527
1781 1 15.965 14.1911 5.32167 -8.18583
532 2 1.77389 15.965 7.09556 -7.02102
2030 1 0 15.965 5.32167 -8.49315
1030 2 5.32167 15.965 7.09556 -7.1535
3031 2 3.54778 15.965 5.32167 -7.02673
15 3 7.09556 15.965 5.32167 -6.58241
1031 2 10.6433 15.965 5.32167 -6.9717
1532 3 8.86945 15.965 7.09556 -6.68253
2032 3 12.4172 15.965 7.09556 -6.30054
2031 1 14.1911 15.965 5.32167 -8.43807
2532 1 15.965 15.965 7.09556 -8.02027
16 2 0 1.77389 12.4172 -7.03337
2782 2 1.77389 0 8.86945 -7.03009
3032 1 0 1.77389 8.86945 -8.39791
3281 3 0 0 10.6433 -6.56835
3533 2 1.77389 1.77389 10.6433 -7.01043
3783 2 1.77389 0 12.4172 -7.00847
251 2 3.54778 0 10.6433 -7.01429
533 3 5.32167 1.77389 10.6433 -6.52389
783 3 5.32167 0 12.4172 -6.54019
1032 3 3.54778 1.77389 12.4172 -6.52589
3282 3 5.32167 0 8.86945 -6.49882
3532 3 3.54778 1.77389 8.86945 -6.57974
17 1 7.09556 1.77389 8.86945 -8.59145
534 1 10.6433 1.77389 8.86945 -8.14956
1285 3 7.09556 0 10.6433 -6.48068
1533 1 8.86945 1.77389 10.6433 -8.15266
1784 3 8.86945 0 12.4172 -6.32205
2033 2 7.09556 1.77389 12.4172 -6.90918
2284 2 10.6433 0 10.6433 -6.89899
3033 1 10.6433 1.77389 12.4172 -8.32509
3784 1 8.86945 0 8.86945 -8.48118
253 2 12.4172 0 8.86945 -6.96931
18 2 14.1911 1.77389 12.4172 -6.94548
1033 3 14.1911 1.77389 8.86945 -6.37749
2533 3 12.4172 1.77389 10.6433 -6.36193
2785 3 12.4172 0 12.4172 -6.45978
3284 2 14.1911 0 10.6433 -7.10874
784 3 15.965 0 8.86945 -6.50064
3534 2 15.965 1.77389 10.6433 -6.9438
3786 3 15.965 0 12.4172 -6.53237
252 3 0 3.54778 10.6433 -6.3394
535 1 1.77389 5.32167 10.6433 -8.10999
782 1 1.77389 3.54778 12.4172 -8.32449
1034 2 0 5.32167 12.4172 -7.02026
1283 2 1.77389 3.54778 8.86945 -6.9263
1534 1 0 5.32167 8.86945 -8.67582
1284 2 3.54778 3.54778 10.6433 -7.00704
1535 1 5.32167 5.32167 10.6433 -8.13907
1783 2 5.32167 3.54778 12.4172 -6.92313
1782 3 5.32167 3.54778 8.86945 -6.27084
2035 1 3.54778 5.32167 12.4172 -8.01439
2034 1 3.54778 5.32167 8.86945 -8.41591
19 2 10.6433 5.32167 12.4172 -6.97564
2283 2 8.86945 3.54778 8.86945 -6.97892
2282 1 7.09556 3.54778 10.6433 -8.35906
2535 2 8.86945 5.32167 10.6433 -6.95857
2534 1 7.09556 5.32167 8.86945 -8.00782
2783 2 8.86945 3.54778 12.4172 -7.01756
3035 1 10.6433 5.32167 8.86945 -8.09811
3034 3 7.09556 5.32167 12.4172 -6.35779
3283 1 10.6433 3.54778 10.6433 -8.14647
254 3 14.1911 3.54778 10.6433 -6.38981
1035 3 14.1911 5.32167 12.4172 -6.47525
2784 1 12.4172 3.54778 8.86945 -8.38821
3536 3 12.4172 5.32167 10.6433 -6.34506
3535 2 14.1911 5.32167 8.86945 -6.88585
3785 1 12.4172 3.54778 12.4172 -8.52175
536 3 15.965 5.32167 10.6433 -6.51696
785 2 15.965 3.54778 12.4172 -6.90288
3285 1 15.965 3.54778 8.86945 -8.64214
20 2 0 8.86945 8.86945 -6.98677
1286 1 0 7.09556 10.6433 -8.26327
1536 1 1.77389 8.86945 10.6433 -8.4219
1785 1 1.77389 7.09556 12.4172 -8.16938
2036 3 0 8.86945 12.4172 -6.39641
2287 2 0 10.6433 10.6433 -6.97205
2286 2 1.77389 10.6433 8.86945 -6.98626
2787 3 1.77389 10.6433 12.4172 -6.3188
3787 2 1.77389 7.09556 8.86945 -7.012
255 2 5.32167 7.09556 8.86945 -6.94638
537 2 3.54778 8.86945 8.86945 -6.94142
2285 3 3.54778 7.09556 10.6433 -6.19387
2536 3 5.32167 8.86945 10.6433 -6.19931
2788 1 5.32167 10.6433 8.86945 -8.54165
2786 1 5.32167 7.09556 12.4172 -8.57583
3036 3 3.54778 8.86945 12.4172 -6.13716
3287 1 3.54778 10.6433 10.6433 -8.3986
3789 1 5.32167 10.6433 12.4172 -8.31969
256 2 10.6433 7.09556 10.6433 -6.91586
257 2 7.09556 10.6433 10.6433 -6.91517
21 2 7.09556 8.86945 12.4172 -6.83271
788 1 8.86945 10.6433 12.4172 -8.20521
786 1 8.86945 7.09556 8.86945 -8.36333
1037 3 10.6433 8.86945 12.4172 -6.27962
1036 3 7.09556 8.86945 8.86945 -6.19474
1289 1 10.6433 10.6433 10.6433 -8.46458
1537 3 10.6433 8.86945 8.86945 -6.21707
3288 1 8.86945 10.6433 8.86945 -8.58731
3286 1 7.09556 7.09556 10.6433 -8.46027
3537 3 8.86945 8.86945 10.6433 -6.21497
3788 3 8.86945 7.09556 12.4172 -6.47767
538 1 12.4172 8.86945 10.6433 -8.62499
787 2 12.4172 7.09556 12.4172 -6.9079
1288 2 14.1911 7.09556 10.6433 -6.97859
1287 1 12.4172 7.09556 8.86945 -8.35354
1788 3 12.4172 10.6433 12.4172 -6.2764
2038 3 14.1911 8.86945 12.4172 -6.43891
2037 3 14.1911 8.86945 8.86945 -6.33822
2288 2 14.1911 10.6433 10.6433 -6.94195
3790 3 12.4172 10.6433 8.86945 -6.3848
258 1 15.965 10.6433 8.86945 -8.21279
1538 2 15.965 8.86945 10.6433 -7.03549
1787 3 15.965 7.09556 12.4172 -6.52195
1786 3 15.965 7.09556 8.86945 -6.5546
2789 2 15.965 10.6433 12.4172 -6.99074
789 3 1.77389 14.1911 8.86945 -6.46207
2538 3 1.77389 12.4172 10.6433 -6.32997
2537 3 0 12.4172 8.86945 -6.60934
3038 2 0 12.4172 12.4172 -6.91363
3289 1 0 14.1911 10.6433 -8.63817
3791 1 1.77389 14.1911 12.4172 -8.21629
259 1 3.54778 14.1911 10.6433 -8.47903
22 1 3.54778 12.4172 12.4172 -8.32241
790 3 5.32167 14.1911 12.4172 -6.28951
1290 2 5.32167 14.1911 8.86945 -7.04811
3037 3 3.54778 12.4172 8.86945 -6.4938
3539 2 5.32167 12.4172 10.6433 -6.95974
23 2 10.6433 12.4172 8.86945 -7.0068
539 1 8.86945 12.4172 10.6433 -7.99294
1038 1 7.09556 12.4172 12.4172 -8.28681
1291 2 7.09556 14.1911 10.6433 -6.97173
1790 1 8.86945 14.1911 12.4172 -8.27336
1789 2 8.86945 14.1911 8.86945 -6.98895
2039 2 10.6433 12.4172 12.4172 -6.95352
2289 1 10.6433 14.1911 10.6433 -8.42287
3538 1 7.09556 12.4172 8.86945 -8.42447
540 2 14.1911 12.4172 8.86945 -6.99784
1539 2 12.4172 12.4172 10.6433 -6.94488
2290 2 12.4172 14.1911 8.86945 -6.97459
2790 3 12.4172 14.1911 12.4172 -6.29671
3039 1 14.1911 12.4172 12.4172 -8.48505
3290 3 14.1911 14.1911 10.6433 -6.43117
2539 1 15.965 12.4172 10.6433 -8.45843
2791 3 15.965 14.1911 8.86945 -6.24019
3792 2 15.965 14.1911 12.4172 -6.91597
24 2 0 15.965 12.4172 -6.96946
1039 1 0 15.965 8.86945 -8.28842
3540 1 1.77389 15.965 10.6433 -8.2487
541 1 5.32167 15.965 10.6433 -8.76543
1040 3 3.54778 15.965 12.4172 -6.27318
1540 2 3.54778 15.965 8.86945 -7.09888
1541 2 8.86945 15.965 10.6433 -7.02179
2041 3 7.09556 15.965 12.4172 -6.39153
2040 3 7.09556 15.965 8.86945 -6.74225
2540 1 10.6433 15.965 8.86945 -8.6131
3040 2 10.6433 15.965 12.4172 -6.98484
25 2 14.1911 15.965 12.4172 -6.94952
2541 3 12.4172 15.965 10.6433 -6.4358
3041 1 14.1911 15.965 8.86945 -8.42766
3541 3 15.965 15.965 10.6433 -6.29031
260 1 0 0 14.1911 -8.5181
542 1 1.77389 1.77389 14.1911 -8.59732
791 3 1.77389 0 15.965 -6.27463
1041 3 0 1.77389 15.965 -6.28296
1292 3 3.54778 0 14.1911 -6.46916
1542 2 5.32167 1.77389 14.1911 -6.93474
1792 1 5.32167 0 15.965 -8.43486
2042 3 3.54778 1.77389 15.965 -6.26848
26 1 10.6433 1.77389 15.965 -8.4575
2292 1 7.09556 0 14.1911 -8.50744
2542 1 8.86945 1.77389 14.1911 -8.1375
2793 3 8.86945 0 15.965 -6.2378
3042 1 7.09556 1.77389 15.965 -8.40849
3292 1 10.6433 0 14.1911 -8.41475
262 3 14.1911 0 14.1911 -6.35258
1042 1 14.1911 1.77389 15.965 -8.16894
3542 3 12.4172 1.77389 14.1911 -6.17717
3794 1 12.4172 0 15.965 -8.13542
543 1 15.965 1.77389 14.1911 -8.44769
793 2 15.965 0 15.965 -6.94843
1293 2 0 3.54778 14.1911 -7.00577
1543 1 1.77389 5.32167 14.1911 -8.17346
1791 3 1.77389 3.54778 15.965 -6.23842
2043 1 0 5.32167 15.965 -8.61914
2291 1 3.54778 3.54778 14.1911 -8.34998
2543 2 5.32167 5.32167 14.1911 -6.93488
2792 2 5.32167 3.54778 15.965 -6.97443
3043 1 3.54778 5.32167 15.965 -8.58841
261 2 10.6433 3.54778 14.1911 -6.9247
27 1 7.09556 5.32167 15.965 -8.81755
1043 2 10.6433 5.32167 15.965 -7.00652
3291 1 7.09556 3.54778 14.1911 -8.40403
3543 3 8.86945 5.32167 14.1911 -6.4545
3793 2 8.86945 3.54778 15.965 -6.99221
544 2 12.4172 5.32167 14.1911 -6.93985
792 3 12.4172 3.54778 15.965 -6.35146
1294 1 14.1911 3.54778 14.1911 -8.53448
2044 3 14.1911 5.32167 15.965 -6.40568
1544 3 15.965 5.32167 14.1911 -6.34923
1793 2 15.965 3.54778 15.965 -6.95203
2293 2 0 7.09556 14.1911 -7.0348
2544 1 1.77389 8.86945 14.1911 -8.41886
2794 3 1.77389 7.09556 15.965 -6.39028
3044 2 0 8.86945 15.965 -6.99818
3294 2 0 10.6433 14.1911 -6.95591
3796 1 1.77389 10.6433 15.965 -8.07717
264 1 3.54778 10.6433 14.1911 -8.36837
28 2 3.54778 8.86945 15.965 -6.99237
795 2 5.32167 10.6433 15.965 -6.78896
3293 2 3.54778 7.09556 14.1911 -6.9666
3544 3 5.32167 8.86945 14.1911 -6.27174
3795 3 5.32167 7.09556 15.965 -6.42831
263 3 7.09556 7.09556 14.1911 -6.46617
545 2 8.86945 8.86945 14.1911 -6.8647
794 3 8.86945 7.09556 15.965 -6.43043
1044 1 7.09556 8.86945 15.965 -8.70879
1296 1 7.09556 10.6433 14.1911 -8.42546
1295 1 10.6433 7.09556 14.1911 -8.92745
1795 3 8.86945 10.6433 15.965 -6.21436
2045 3 10.6433 8.86945 15.965 -6.40279
2295 1 10.6433 10.6433 14.1911 -8.85133
1545 3 12.4172 8.86945 14.1911 -6.28329
1794 3 12.4172 7.09556 15.965 -6.5353
2294 1 14.1911 7.09556 14.1911 -9.06275
2796 2 12.4172 10.6433 15.965 -6.83853
3045 3 14.1911 8.86945 15.965 -6.38267
3295 1 14.1911 10.6433 14.1911 -8.62437
2545 3 15.965 8.86945 14.1911 -6.33482
2795 3 15.965 7.09556 15.965 -6.29528
3797 1 15.965 10.6433 15.965 -8.18792
265 1 0 14.1911 14.1911 -8.47841
29 1 0 12.4172 15.965 -8.26815
796 1 1.77389 14.1911 15.965 -8.28843
3545 3 1.77389 12.4172 14.1911 -6.11438
546 3 5.32167 12.4172 14.1911 -6.08761
1045 1 3.54778 12.4172 15.965 -8.19502
1297 2 3.54778 14.1911 14.1911 -6.84295
1796 1 5.32167 14.1911 15.965 -8.41567
1546 2 8.86945 12.4172 14.1911 -6.90718
2046 3 7.09556 12.4172 15.965 -6.1825
2296 3 7.09556 14.1911 14.1911 -6.17704
2797 1 8.86945 14.1911 15.965 -8.53885
3046 3 10.6433 12.4172 15.965 -6.31204
3296 1 10.6433 14.1911 14.1911 -8.53902
266 1 14.1911 14.1911 14.1911 -8.24167
30 1 14.1911 12.4172 15.965 -8.21228
2546 3 12.4172 12.4172 14.1911 -6.1747
3798 3 12.4172 14.1911 15.965 -6.2938
797 1 15.965 14.1911 15.965 -8.4085
3546 2 15.965 12.4172 14.1911 -6.99239
547 2 1.77389 15.965 14.1911 -6.8976
1046 2 0 15.965 15.965 -6.95953
1547 1 5.32167 15.965 14.1911 -8.65943
2047 3 3.54778 15.965 15.965 -6.11067
31 3 10.6433 15.965 15.965 -6.3914
2547 2 8.86945 15.965 14.1911 -6.87828
3047 1 7.09556 15.965 15.965 -8.28252
1047 3 14.1911 15.965 15.965 -6.22053
3547 1 12.4172 15.965 14.1911 -8.5578
548 1 15.965 15.965 14.1911 -8.13988
1298 1 0 0 17.7389 -8.65177
1548 1 1.77389 1.77389 17.7389 -8.77116
1797 3 1.77389 0 19.5128 -6.16688
2048 3 0 1.77389 19.5128 -6.22788
2299 1 0 0 21.2867 -8.59298
2548 2 1.77389 1.77389 21.2867 -6.87844
2297 1 3.54778 0 17.7389 -8.51332
2549 3 5.32167 1.77389 17.7389 -6.43142
2799 3 5.32167 0 19.5128 -6.21543
3048 3 3.54778 1.77389 19.5128 -6.36517
3298 3 3.54778 0 21.2867 -6.37092
3548 3 5.32167 1.77389 21.2867 -6.40944
501 2 8.86945 1.77389 21.2867 -6.94726
32 3 7.09556 1.77389 19.5128 -6.60509
286 2 10.6433 0 17.7389 -6.98366
285 1 7.09556 0 21.2867 -8.62162
1048 2 10.6433 1.77389 19.5128 -7.0647
1301 1 10.6433 0 21.2867 -8.3603
3300 3 7.09556 0 17.7389 -6.32286
3549 2 8.86945 1.77389 17.7389 -6.95624
3800 3 8.86945 0 19.5128 -6.37855
502 1 12.4172 1.77389 17.7389 -8.35793
799 2 12.4172 0 19.5128 -7.01999
1302 2 14.1911 0 17.7389 -6.95403
1549 2 12.4172 1.77389 21.2867 -6.99274
2049 2 14.1911 1.77389 19.5128 -6.98677
2302 3 14.1911 0 21.2867 -6.36332
1550 1 15.965 1.77389 17.7389 -8.24554
1799 1 15.965 0 19.5128 -8.22718
2550 2 15.965 1.77389 21.2867 -6.93624
2298 3 0 3.54778 17.7389 -6.42169
2551 3 1.77389 5.32167 17.7389 -6.40117
2798 3 1.77389 3.54778 19.5128 -6.35396
3049 2 0 5.32167 19.5128 -6.84164
3299 1 0 3.54778 21.2867 -8.64554
3550 3 1.77389 5.32167 21.2867 -6.30429
503 3 5.32167 5.32167 21.2867 -6.44975
33 1 3.54778 5.32167 19.5128 -8.659
283 1 3.54778 3.54778 21.2867 -8.57447
3297 2 3.54778 3.54778 17.7389 -6.89485
3551 2 5.32167 5.32167 17.7389 -7.01178
3799 2 5.32167 3.54778 19.5128 -6.98559
504 3 8.86945 5.32167 17.7389 -6.63289
284 3 7.09556 3.54778 17.7389 -6.60687
798 2 8.86945 3.54778 19.5128 -7.07805
1049 2 7.09556 5.32167 19.5128 -7.04318
1300 3 10.6433 3.54778 17.7389 -6.61886
1299 3 7.09556 3.54778 21.2867 -6.60753
1551 2 8.86945 5.32167 21.2867 -6.94913
2050 3 10.6433 5.32167 19.5128 -6.57105
2300 1 10.6433 3.54778 21.2867 -8.38537
1552 2 12.4172 5.32167 17.7389 -6.97856
1798 2 12.4172 3.54778 19.5128 -6.96126
2301 1 14.1911 3.54778 17.7389 -8.3751
2552 1 12.4172 5.32167 21.2867 -8.2587
3050 1 14.1911 5.32167 19.5128 -8.47182
3301 3 14.1911 3.54778 21.2867 -6.3616
2553 3 15.965 5.32167 17.7389 -6.33486
2800 3 15.965 3.54778 19.5128 -6.26163
3552 1 15.965 5.32167 21.2867 -8.42938
505 2 1.77389 8.86945 21.2867 -6.9454
34 2 0 8.86945 19.5128 -6.9643
290 1 0 10.6433 17.7389 -8.23279
288 1 0 7.09556 21.2867 -8.45501
801 1 1.77389 10.6433 19.5128 -8.36255
1306 3 0 10.6433 21.2867 -6.30339
3302 1 0 7.09556 17.7389 -8.73327
3553 2 1.77389 8.86945 17.7389 -7.0183
3801 2 1.77389 7.09556 19.5128 -6.99708
506 2 5.32167 8.86945 17.7389 -7.02478
287 2 3.54778 7.09556 17.7389 -7.06475
800 2 5.32167 7.09556 19.5128 -7.01635
1050 3 3.54778 8.86945 19.5128 -6.50386
1305 1 3.54778 10.6433 17.7389 -8.29906
1303 2 3.54778 7.09556 21.2867 -7.02172
1553 3 5.32167 8.86945 21.2867 -6.37555
1801 1 5.32167 10.6433 19.5128 -8.3924
2305 2 3.54778 10.6433 21.2867 -6.9209
291 3 10.6433 10.6433 21.2867 -6.34787
1304 3 7.09556 7.09556 17.7389 -6.45656
1554 3 8.86945 8.86945 17.7389 -6.28462
1800 3 8.86945 7.09556 19.5128 -6.52479
2051 1 7.09556 8.86945 19.5128 -8.54979
2306 1 7.09556 10.6433 17.7389 -8.42351
2304 3 10.6433 7.09556 17.7389 -6.71436
2303 3 7.09556 7.09556 21.2867 -6.45801
2554 2 8.86945 8.86945 21.2867 -6.87838
2802 1 8.86945 10.6433 19.5128 -8.12638
3051 2 10.6433 8.86945 19.5128 -6.88975
3306 1 10.6433 10.6433 17.7389 -8.73514
3305 1 7.09556 10.6433 21.2867 -8.11835
3303 1 10.6433 7.09556 21.2867 -8.47108
35 3 14.1911 8.86945 19.5128 -6.62357
292 2 14.1911 10.6433 17.7389 -6.98467
289 3 14.1911 7.09556 21.2867 -6.4446
1307 3 14.1911 10.6433 21.2867 -6.56256
2555 3 12.4172 8.86945 17.7389 -6.59434
2801 2 12.4172 7.09556 19.5128 -6.98993
3304 2 14.1911 7.09556 17.7389 -6.89095
3554 2 12.4172 8.86945 21.2867 -7.02744
3803 3 12.4172 10.6433 19.5128 -6.52918
507 3 15.965 8.86945 21.2867 -6.4444
802 2 15.965 10.6433 19.5128 -6.92934
3555 1 15.965 8.86945 17.7389 -8.41506
3802 3 15.965 7.09556 19.5128 -6.28397
508 1 1.77389 12.4172 17.7389 -8.25977
1051 2 0 12.4172 19.5128 -6.94322
1308 3 0 14.1911 17.7389 -6.29846
1555 1 1.77389 12.4172 21.2867 -8.44639
1802 3 1.77389 14.1911 19.5128 -6.41143
2308 2 0 14.1911 21.2867 -6.98775
1556 3 5.32167 12.4172 17.7389 -6.08746
2052 3 3.54778 12.4172 19.5128 -6.30681
2307 3 3.54778 14.1911 17.7389 -6.15886
2556 2 5.32167 12.4172 21.2867 -7.00747
2803 2 5.32167 14.1911 19.5128 -6.96468
3307 2 3.54778 14.1911 21.2867 -7.06777
36 1 10.6433 12.4172 19.5128 -8.30137
294 2 10.6433 14.1911 17.7389 -6.9023
293 2 7.09556 14.1911 21.2867 -6.994
1309 2 10.6433 14.1911 21.2867 -7.02019
2557 3 8.86945 12.4172 17.7389 -6.13097
3052 1 7.09556 12.4172 19.5128 -8.15313
3308 1 7.09556 14.1911 17.7389 -8.33001
3556 1 8.86945 12.4172 21.2867 -8.16947
3804 2 8.86945 14.1911 19.5128 -6.9536
509 1 12.4172 12.4172 21.2867 -8.62063
803 2 12.4172 14.1911 19.5128 -6.90464
1052 3 14.1911 12.4172 19.5128 -6.51882
1310 2 14.1911 14.1911 17.7389 -6.88973
2309 3 14.1911 14.1911 21.2867 -6.40987
3557 2 12.4172 12.4172 17.7389 -6.90876
510 1 15.965 12.4172 17.7389 -8.52204
1557 2 15.965 12.4172 21.2867 -6.92625
1803 3 15.965 14.1911 19.5128 -6.4603
1558 1 1.77389 15.965 17.7389 -8.50406
2053 3 0 15.965 19.5128 -6.38701
2558 3 1.77389 15.965 21.2867 -6.53468
2559 1 5.32167 15.965 17.7389 -8.36264
3053 3 3.54778 15.965 19.5128 -6.33572
3558 2 5.32167 15.965 21.2867 -7.01681
511 3 8.86945 15.965 21.2867 -6.50779
37 2 7.09556 15.965 19.5128 -6.94468
1053 3 10.6433 15.965 19.5128 -6.47805
3559 3 8.86945 15.965 17.7389 -6.46819
512 1 12.4172 15.965 17.7389 -8.62936
1559 1 12.4172 15.965 21.2867 -8.28878
2054 1 14.1911 15.965 19.5128 -8.39271
1560 3 15.965 15.965 17.7389 -6.36135
2560 2 15.965 15.965 21.2867 -6.93515
39 3 0 1.77389 26.6083 -6.62571
2804 2 1.77389 0 23.0606 -6.99037
3054 2 0 1.77389 23.0606 -7.05125
3309 2 0 0 24.8344 -7.09337
3560 3 1.77389 1.77389 24.8344 -6.65345
3806 2 1.77389 0 26.6083 -7.06522
513 3 5.32167 1.77389 24.8344 -6.4356
38 3 3.54778 1.77389 23.0606 -6.45299
295 2 3.54778 0 24.8344 -6.96973
806 1 5.32167 0 26.6083 -8.57189
1054 2 3.54778 1.77389 26.6083 -6.97214
3807 2 5.32167 0 23.0606 -6.8738
807 2 8.86945 0 23.0606 -6.93651
1055 3 7.09556 1.77389 23.0606 -6.42048
1312 3 7.09556 0 24.8344 -6.25343
1561 1 8.86945 1.77389 24.8344 -8.59382
1806 1 8.86945 0 26.6083 -8.27244
2056 2 10.6433 1.77389 23.0606 -6.95675
2055 2 7.09556 1.77389 26.6083 -6.92978
2311 1 10.6433 0 24.8344 -7.88389
3055 1 10.6433 1.77389 26.6083 -8.36156
40 2 14.1911 1.77389 26.6083 -6.91468
1807 1 12.4172 0 23.0606 -8.2319
2561 1 12.4172 1.77389 24.8344 -8.3527
2807 1 12.4172 0 26.6083 -8.41168
3056 3 14.1911 1.77389 23.0606 -6.43592
3311 3 14.1911 0 24.8344 -6.18582
2808 3 15.965 0 23.0606 -6.44448
3561 3 15.965 1.77389 24.8344 -6.52647
3810 1 15.965 0 26.6083 -8.61358
514 3 1.77389 5.32167 24.8344 -6.41348
41 2 0 5.32167 23.0606 -6.97183
296 2 0 3.54778 24.8344 -7.04791
804 2 1.77389 3.54778 26.6083 -6.9808
1057 1 0 5.32167 26.6083 -8.81378
3805 1 1.77389 3.54778 23.0606 -8.66937
805 1 5.32167 3.54778 23.0606 -8.76079
1056 3 3.54778 5.32167 23.0606 -6.39361
1311 3 3.54778 3.54778 24.8344 -6.39295
1562 2 5.32167 5.32167 24.8344 -6.98617
1804 1 5.32167 3.54778 26.6083 -8.67932
2057 1 3.54778 5.32167 26.6083 -8.47517
42 2 10.6433 5.32167 26.6083 -7.0245
1805 3 8.86945 3.54778 23.0606 -6.41466
2058 1 7.09556 5.32167 23.0606 -8.71887
2310 2 7.09556 3.54778 24.8344 -6.98608
2562 2 8.86945 5.32167 24.8344 -6.96609
2805 3 8.86945 3.54778 26.6083 -6.42685
3058 1 10.6433 5.32167 23.0606 -8.55401
3057 2 7.09556 5.32167 26.6083 -7.0469
3310 3 10.6433 3.54778 24.8344 -6.31771
43 1 14.1911 5.32167 23.0606 -8.38033
297 3 14.1911 3.54778 24.8344 -6.45962
1058 3 14.1911 5.32167 26.6083 -6.60057
2806 1 12.4172 3.54778 23.0606 -8.4054
3562 3 12.4172 5.32167 24.8344 -6.45425
3808 2 12.4172 3.54778 26.6083 -6.98315
515 3 15.965 5.32167 24.8344 -6.51786
808 3 15.965 3.54778 26.6083 -6.66358
3809 2 15.965 3.54778 23.0606 -6.90853
809 1 1.77389 7.09556 23.0606 -8.576
1059 3 0 8.86945 23.0606 -6.25003
1313 2 0 7.09556 24.8344 -6.99647
1563 1 1.77389 8.86945 24.8344 -8.15273
1811 1 1.77389 10.6433 23.0606 -8.28263
1808 2 1.77389 7.09556 26.6083 -6.95466
2060 2 0 8.86945 26.6083 -7.03009
2313 1 0 10.6433 24.8344 -8.27076
2811 1 1.77389 10.6433 26.6083 -8.28062
1809 2 5.32167 7.09556 23.0606 -7.00451
2059 2 3.54778 8.86945 23.0606 -7.03303
2312 2 3.54778 7.09556 24.8344 -7.00582
2563 2 5.32167 8.86945 24.8344 -6.98414
2812 1 5.32167 10.6433 23.0606 -8.40559
2809 1 5.32167 7.09556 26.6083 -8.29436
3059 1 3.54778 8.86945 26.6083 -7.95488
3313 1 3.54778 10.6433 24.8344 -8.08907
3813 1 5.32167 10.6433 26.6083 -8.44373
45 2 10.6433 8.86945 23.0606 -6.92829
44 2 7.09556 8.86945 26.6083 -6.94544
299 3 7.09556 10.6433 24.8344 -6.23243
298 3 10.6433 7.09556 24.8344 -6.49496
812 1 8.86945 10.6433 26.6083 -8.67966
1060 3 10.6433 8.86945 26.6083 -6.37775
1315 3 10.6433 10.6433 24.8344 -6.27673
2810 3 8.86945 7.09556 23.0606 -6.34355
3060 1 7.09556 8.86945 23.0606 -8.52134
3312 2 7.09556 7.09556 24.8344 -7.03933
3563 1 8.86945 8.86945 24.8344 -8.73313
3814 3 8.86945 10.6433 23.0606 -6.17342
3811 3 8.86945 7.09556 26.6083 -6.57679
516 1 12.4172 8.86945 24.8344 -8.59222
813 2 12.4172 10.6433 23.0606 -6.93252
810 2 12.4172 7.09556 26.6083 -7.00725
1061 2 14.1911 8.86945 23.0606 -7.02912
1314 1 14.1911 7.09556 24.8344 -8.41819
1812 2 12.4172 10.6433 26.6083 -6.8468
2061 2 14.1911 8.86945 26.6083 -7.0118
2314 1 14.1911 10.6433 24.8344 -8.47558
3812 2 12.4172 7.09556 23.0606 -6.95378
811 2 15.965 7.09556 23.0606 -6.90941
1564 2 15.965 8.86945 24.8344 -6.98796
1813 1 15.965 10.6433 23.0606 -8.5352
1810 2 15.965 7.09556 26.6083 -7.01606
2813 3 15.965 10.6433 26.6083 -6.5689
2062 2 0 12.4172 23.0606 -7.00403
2564 1 1.77389 12.4172 24.8344 -8.29637
2814 1 1.77389 14.1911 23.0606 -8.42823
3062 3 0 12.4172 26.6083 -6.33918
3314 2 0 14.1911 24.8344 -6.99287
3815 3 1.77389 14.1911 26.6083 -6.58288
46 3 3.54778 12.4172 26.6083 -6.41407
300 2 3.54778 14.1911 24.8344 -6.93498
751 3 5.32167 14.1911 26.6083 -6.6197
3061 2 3.54778 12.4172 23.0606 -7.07286
3564 2 5.32167 12.4172 24.8344 -6.94264
3816 3 5.32167 14.1911 23.0606 -6.72841
549 1 8.86945 12.4172 24.8344 -8.62126
47 3 7.09556 12.4172 23.0606 -6.29504
752 1 8.86945 14.1911 23.0606 -8.447
1063 1 10.6433 12.4172 23.0606 -8.22943
1062 3 7.09556 12.4172 26.6083 -6.45618
1316 3 7.09556 14.1911 24.8344 -6.49223
1814 3 8.86945 14.1911 26.6083 -6.48029
2063 3 10.6433 12.4172 26.6083 -6.23864
2315 1 10.6433 14.1911 24.8344 -8.2094
1565 2 12.4172 12.4172 24.8344 -6.87909
1815 1 12.4172 14.1911 23.0606 -8.23861
2064 3 14.1911 12.4172 23.0606 -6.33673
2815 1 12.4172 14.1911 26.6083 -8.42448
3063 3 14.1911 12.4172 26.6083 -6.40687
3315 1 14.1911 14.1911 24.8344 -8.66463
2565 2 15.965 12.4172 24.8344 -6.88656
2816 3 15.965 14.1911 23.0606 -6.58707
3817 3 15.965 14.1911 26.6083 -6.60451
49 2 0 15.965 26.6083 -7.04764
3064 2 0 15.965 23.0606 -6.96956
3565 3 1.77389 15.965 24.8344 -6.50624
550 3 5.32167 15.965 24.8344 -6.37656