ITEM: TIMESTEP
0
ITEM: NUMBER OF ATOMS
4000
ITEM: BOX BOUNDS pp pp pp
0.0000000000000000e+00 3.6097780000000000e+01
0.0000000000000000e+00 3.6097780000000000e+01
0.0000000000000000e+00 3.6097780000000000e+01
ITEM: ATOMS id type x y z c_peratom
267 1 0 0 0 -8.07234
516 3 1.80489 1.80489 0 -6.46897
767 3 1.80489 0 1.80489 -6.50982
1016 1 0 1.80489 1.80489 -8.18378
1267 2 0 0 3.60978 -6.94485
1517 1 1.80489 1.80489 3.60978 -8.20727
1268 2 3.60978 0 0 -7.06266
1518 2 5.41467 1.80489 0 -7.00502
1767 2 5.41467 0 1.80489 -7.12257
2017 2 3.60978 1.80489 1.80489 -6.99895
2266 2 3.60978 0 3.60978 -7.06484
2517 3 5.41467 1.80489 3.60978 -6.52167
1 1 10.8293 1.80489 1.80489 -8.07761
268 2 10.8293 0 3.60978 -7.05666
2267 3 7.21956 0 0 -6.5488
2518 1 9.02445 1.80489 0 -8.25461
2766 2 9.02445 0 1.80489 -7.01602
3017 1 7.21956 1.80489 1.80489 -8.34175
3266 3 7.21956 0 3.60978 -6.58655
3267 1 10.8293 0 0 -8.32152
3517 2 9.02445 1.80489 3.60978 -6.91106
269 2 14.4391 0 0 -7.08506
517 1 12.6342 1.80489 3.60978 -8.28419
1017 3 14.4391 1.80489 1.80489 -6.43631
1269 3 14.4391 0 3.60978 -6.40335
3518 2 12.6342 1.80489 0 -6.96955
3767 2 12.6342 0 1.80489 -7.02262
518 2 16.244 1.80489 0 -7.0353
768 1 16.244 0 1.80489 -8.31058
1519 3 16.244 1.80489 3.60978 -6.48102
1270 2 0 3.60978 0 -6.88441
1520 1 1.80489 5.41467 0 -8.12375
1768 3 1.80489 3.60978 1.80489 -6.3662
2018 1 0 5.41467 1.80489 -8.1904
2268 1 0 3.60978 3.60978 -8.15049
2519 2 1.80489 5.41467 3.60978 -6.99973
2269 1 3.60978 3.60978 0 -8.43521
2520 2 5.41467 5.41467 0 -6.93671
2767 3 5.41467 3.60978 1.80489 -6.41977
3018 2 3.60978 5.41467 1.80489 -6.96044
3268 1 3.60978 3.60978 3.60978 -8.25742
3519 1 5.41467 5.41467 3.60978 -8.20254
2 1 7.21956 5.41467 1.80489 -8.18027
271 3 10.8293 3.60978 0 -6.24962
270 3 7.21956 3.60978 3.60978 -6.40354
519 2 9.02445 5.41467 3.60978 -6.96853
1018 2 10.8293 5.41467 1.80489 -6.9781
1271 3 10.8293 3.60978 3.60978 -6.40289
3269 3 7.21956 3.60978 0 -6.37752
3520 1 9.02445 5.41467 0 -8.03445
3768 1 9.02445 3.60978 1.80489 -8.10056
520 1 12.6342 5.41467 0 -8.15966
769 1 12.6342 3.60978 1.80489 -8.22436
1272 3 14.4391 3.60978 0 -6.41575
1521 1 12.6342 5.41467 3.60978 -8.36261
2019 3 14.4391 5.41467 1.80489 -6.42058
2270 3 14.4391 3.60978 3.60978 -6.38857
1522 2 16.244 5.41467 0 -7.0164
1769 1 16.244 3.60978 1.80489 -8.4762
2521 1 16.244 5.41467 3.60978 -8.3761
274 3 0 10.8293 3.60978 -6.32347
2271 1 0 7.21956 0 -8.00474
2522 1 1.80489 9.02445 0 -8.1644
2768 2 1.80489 7.21956 1.80489 -7.06641
3019 1 0 9.02445 1.80489 -8.10977
3273 2 0 10.8293 0 -6.97238
3270 2 0 7.21956 3.60978 -7.00925
3521 2 1.80489 9.02445 3.60978 -7.01087
3770 1 1.80489 10.8293 1.80489 -8.13691
3 3 3.60978 9.02445 1.80489 -6.41446
275 3 3.60978 10.8293 0 -6.53012
272 1 3.60978 7.21956 3.60978 -8.21462
521 1 5.41467 9.02445 3.60978 -8.22065
771 2 5.41467 10.8293 1.80489 -6.9886
1275 1 3.60978 10.8293 3.60978 -8.10951
3271 3 3.60978 7.21956 0 -6.48212
3522 3 5.41467 9.02445 0 -6.59006
3769 3 5.41467 7.21956 1.80489 -6.39914
273 1 7.21956 7.21956 0 -8.11789
522 2 9.02445 9.02445 0 -7.06889
770 1 9.02445 7.21956 1.80489 -8.11474
1019 2 7.21956 9.02445 1.80489 -7.00863
1276 2 7.21956 10.8293 0 -7.02989
1274 2 10.8293 7.21956 0 -7.105
1273 3 7.21956 7.21956 3.60978 -6.45238
1523 2 9.02445 9.02445 3.60978 -6.97958
1771 3 9.02445 10.8293 1.80489 -6.44458
2020 1 10.8293 9.02445 1.80489 -8.05929
2275 1 10.8293 10.8293 0 -8.04999
2274 1 7.21956 10.8293 3.60978 -8.35306
2272 2 10.8293 7.21956 3.60978 -7.01999
3274 1 10.8293 10.8293 3.60978 -8.28255
276 2 14.4391 10.8293 3.60978 -6.9386
1524 1 12.6342 9.02445 0 -8.07531
1770 2 12.6342 7.21956 1.80489 -6.97268
2273 2 14.4391 7.21956 0 -7.07872
2523 3 12.6342 9.02445 3.60978 -6.47245
2770 1 12.6342 10.8293 1.80489 -8.06577
3020 3 14.4391 9.02445 1.80489 -6.4737
3275 2 14.4391 10.8293 0 -7.09428
3272 3 14.4391 7.21956 3.60978 -6.45217
2524 1 16.244 9.02445 0 -8.16879
2769 2 16.244 7.21956 1.80489 -6.98082
3523 3 16.244 9.02445 3.60978 -6.48386
3771 1 16.244 10.8293 1.80489 -8.16421
4 1 0 12.6342 1.80489 -8.17457
277 1 0 14.4391 0 -8.23874
523 2 1.80489 12.6342 3.60978 -6.97174
772 3 1.80489 14.4391 1.80489 -6.42121
1277 3 0 14.4391 3.60978 -6.4396
3524 2 1.80489 12.6342 0 -7.02212
524 1 5.41467 12.6342 0 -8.36284
1020 2 3.60978 12.6342 1.80489 -7.04999
1278 2 3.60978 14.4391 0 -7.09492
1525 3 5.41467 12.6342 3.60978 -6.50876
1772 2 5.41467 14.4391 1.80489 -7.08652
2276 1 3.60978 14.4391 3.60978 -8.34655
278 1 10.8293 14.4391 3.60978 -8.16822
1526 2 9.02445 12.6342 0 -7.03376
2021 3 7.21956 12.6342 1.80489 -6.45998
2277 1 7.21956 14.4391 0 -8.01961
2525 1 9.02445 12.6342 3.60978 -8.18765
2771 1 9.02445 14.4391 1.80489 -8.03188
3021 2 10.8293 12.6342 1.80489 -6.93434
3277 3 10.8293 14.4391 0 -6.48481
3276 2 7.21956 14.4391 3.60978 -6.9992
5 1 14.4391 12.6342 1.80489 -8.26957
279 2 14.4391 14.4391 0 -7.07351
1279 3 14.4391 14.4391 3.60978 -6.49309
2526 2 12.6342 12.6342 0 -7.0719
3525 3 12.6342 12.6342 3.60978 -6.47256
3772 3 12.6342 14.4391 1.80489 -6.49485
525 3 16.244 12.6342 3.60978 -6.42762
773 2 16.244 14.4391 1.80489 -6.91755
3526 1 16.244 12.6342 0 -8.0884
526 2 1.80489 16.244 0 -7.03704
1021 3 0 16.244 1.80489 -6.38448
1527 1 1.80489 16.244 3.60978 -8.45195
1528 2 5.41467 16.244 0 -7.05728
2022 1 3.60978 16.244 1.80489 -8.26018
2527 2 5.41467 16.244 3.60978 -6.98423
6 1 10.8293 16.244 1.80489 -8.11644
2528 2 9.02445 16.244 0 -7.05336
3022 1 7.21956 16.244 1.80489 -8.15788
3527 2 9.02445 16.244 3.60978 -6.99614
527 2 12.6342 16.244 3.60978 -6.98182
1022 2 14.4391 16.244 1.80489 -6.97355
3528 3 12.6342 16.244 0 -6.46366
528 3 16.244 16.244 0 -6.42262
1529 3 16.244 16.244 3.60978 -6.41896
1773 3 1.80489 0 5.41467 -6.46178
2023 2 0 1.80489 5.41467 -7.03385
2278 3 0 0 7.21956 -6.46371
2529 2 1.80489 1.80489 7.21956 -7.035
2773 1 3.60978 0 7.21956 -8.12235
2772 2 5.41467 0 5.41467 -6.92083
3024 1 5.41467 1.80489 7.21956 -8.14976
3023 3 3.60978 1.80489 5.41467 -6.45362
7 3 7.21956 1.80489 5.41467 -6.44177
1023 1 10.8293 1.80489 5.41467 -8.29135
3278 3 7.21956 0 7.21956 -6.33719
3529 3 9.02445 1.80489 7.21956 -6.3399
3774 3 10.8293 0 7.21956 -6.38199
3773 1 9.02445 0 5.41467 -8.4165
8 3 12.6342 1.80489 7.21956 -6.37454
280 1 14.4391 0 7.21956 -8.29412
774 3 12.6342 0 5.41467 -6.41714
2024 2 14.4391 1.80489 5.41467 -6.95425
529 1 16.244 1.80489 7.21956 -8.12498
1774 3 16.244 0 5.41467 -6.41283
775 2 0 3.60978 7.21956 -7.05506
1024 1 1.80489 5.41467 7.21956 -8.24327
2774 2 1.80489 3.60978 5.41467 -7.05211
3025 2 0 5.41467 5.41467 -7.04341
9 3 3.60978 5.41467 5.41467 -6.37763
1280 2 3.60978 3.60978 7.21956 -6.97031
1530 3 5.41467 5.41467 7.21956 -6.41239
3775 1 5.41467 3.60978 5.41467 -8.31814
776 3 9.02445 3.60978 5.41467 -6.51362
1025 2 7.21956 5.41467 5.41467 -6.96445
1775 3 7.21956 3.60978 7.21956 -6.3938
2026 3 10.8293 5.41467 5.41467 -6.50005
2025 2 9.02445 5.41467 7.21956 -6.95912
2279 1 10.8293 3.60978 7.21956 -8.37296
1776 2 12.6342 3.60978 5.41467 -6.91537
2530 3 12.6342 5.41467 7.21956 -6.48825
2776 1 14.4391 3.60978 7.21956 -8.36208
3026 3 14.4391 5.41467 5.41467 -6.39019
2775 2 16.244 3.60978 5.41467 -6.92485
3027 2 16.244 5.41467 7.21956 -6.9923
10 1 0 9.02445 5.41467 -8.33338
779 1 1.80489 10.8293 5.41467 -8.01627
1778 2 0 10.8293 7.21956 -7.14237
3279 3 0 7.21956 7.21956 -6.46682
3530 2 1.80489 9.02445 7.21956 -7.01347
3776 3 1.80489 7.21956 5.41467 -6.4453
11 2 5.41467 9.02445 7.21956 -7.02973
777 2 5.41467 7.21956 5.41467 -6.98875
1026 1 3.60978 9.02445 5.41467 -7.99577
1779 2 5.41467 10.8293 5.41467 -7.01838
2280 3 3.60978 10.8293 7.21956 -6.5306
3777 1 3.60978 7.21956 7.21956 -8.22608
281 1 7.21956 7.21956 7.21956 -8.31849
530 2 9.02445 9.02445 7.21956 -6.96005
778 2 10.8293 7.21956 7.21956 -6.97625
1777 1 9.02445 7.21956 5.41467 -8.38069
2027 3 7.21956 9.02445 5.41467 -6.49816
2779 2 7.21956 10.8293 7.21956 -7.04365
2778 3 9.02445 10.8293 5.41467 -6.55388
3028 3 10.8293 9.02445 5.41467 -6.54464
3280 3 10.8293 10.8293 7.21956 -6.58808
12 2 14.4391 9.02445 5.41467 -6.96153
1027 2 12.6342 9.02445 7.21956 -6.99536
1281 3 14.4391 7.21956 7.21956 -6.438
2777 1 12.6342 7.21956 5.41467 -8.48227
3780 3 14.4391 10.8293 7.21956 -6.59286
3779 3 12.6342 10.8293 5.41467 -6.65983
780 1 16.244 10.8293 5.41467 -8.25214
1531 1 16.244 9.02445 7.21956 -8.06096
3778 1 16.244 7.21956 5.41467 -8.29573
282 2 0 14.4391 7.21956 -7.04068
1028 1 0 12.6342 5.41467 -8.29235
1780 3 1.80489 14.4391 5.41467 -6.47265
2028 1 1.80489 12.6342 7.21956 -8.35286
781 2 3.60978 14.4391 7.21956 -7.02015
2029 3 3.60978 12.6342 5.41467 -6.52174
2531 2 5.41467 12.6342 7.21956 -7.07095
2780 2 5.41467 14.4391 5.41467 -7.03045
13 2 10.8293 12.6342 5.41467 -6.96087
1282 3 7.21956 14.4391 7.21956 -6.48146
1781 2 10.8293 14.4391 7.21956 -7.05591
3030 3 9.02445 12.6342 7.21956 -6.61352
3029 3 7.21956 12.6342 5.41467 -6.58893
3781 3 9.02445 14.4391 5.41467 -6.4337
782 3 12.6342 14.4391 5.41467 -6.59589
1029 2 14.4391 12.6342 5.41467 -7.035
2281 2 14.4391 14.4391 7.21956 -7.0715
3531 2 12.6342 12.6342 7.21956 -7.14174
14 2 16.244 12.6342 7.21956 -7.09687
1782 1 16.244 14.4391 5.41467 -8.2157
531 2 1.80489 16.244 7.21956 -6.93218
2030 3 0 16.244 5.41467 -6.51274
1030 1 5.41467 16.244 7.21956 -8.15668
3031 3 3.60978 16.244 5.41467 -6.47603
15 1 7.21956 16.244 5.41467 -8.10952
1031 1 10.8293 16.244 5.41467 -8.22338
1532 1 9.02445 16.244 7.21956 -8.11149
2032 1 14.4391 16.244 5.41467 -8.33148
2031 2 12.6342 16.244 7.21956 -7.01177
2532 2 16.244 16.244 7.21956 -7.00077
16 1 0 1.80489 12.6342 -8.09497
2781 2 1.80489 0 9.02445 -7.01634
3032 3 0 1.80489 9.02445 -6.53882
3281 3 0 0 10.8293 -6.43533
3532 3 1.80489 1.80489 10.8293 -6.29861
3782 1 1.80489 0 12.6342 -7.95959
251 1 3.60978 0 10.8293 -8.03141
532 1 5.41467 1.80489 10.8293 -8.03322
783 3 5.41467 0 12.6342 -6.51926
1032 1 3.60978 1.80489 12.6342 -8.06543
3282 1 5.41467 0 9.02445 -8.00388
3533 2 3.60978 1.80489 9.02445 -7.05009
17 1 7.21956 1.80489 9.02445 -8.27479
533 2 10.8293 1.80489 9.02445 -6.81399
1283 3 7.21956 0 10.8293 -6.41327
1533 3 9.02445 1.80489 10.8293 -6.53874
1783 2 9.02445 0 12.6342 -6.90564
2033 2 7.21956 1.80489 12.6342 -6.89557
2282 3 10.8293 0 10.8293 -6.5505
3033 3 10.8293 1.80489 12.6342 -6.56667
3783 3 9.02445 0 9.02445 -6.43325
252 1 12.6342 0 9.02445 -8.46345
18 3 14.4391 1.80489 12.6342 -6.49402
1033 3 14.4391 1.80489 9.02445 -6.32377
2533 3 12.6342 1.80489 10.8293 -6.47336
2782 1 12.6342 0 12.6342 -8.49276
3283 3 14.4391 0 10.8293 -6.51225
784 1 16.244 0 9.02445 -8.33075
3534 2 16.244 1.80489 10.8293 -6.94988
3784 2 16.244 0 12.6342 -6.98534
253 3 0 3.60978 10.8293 -6.35868
534 3 1.80489 5.41467 10.8293 -6.32414
785 1 1.80489 3.60978 12.6342 -8.04108
1034 1 0 5.41467 12.6342 -8.31623
1284 1 1.80489 3.60978 9.02445 -8.29624
1534 2 0 5.41467 9.02445 -6.96645
1285 1 3.60978 3.60978 10.8293 -7.99484
1535 3 5.41467 5.41467 10.8293 -6.2911
1785 2 5.41467 3.60978 12.6342 -7.02608
1784 2 5.41467 3.60978 9.02445 -6.97811
2035 1 3.60978 5.41467 12.6342 -8.04966
2034 1 3.60978 5.41467 9.02445 -8.10179
19 1 10.8293 5.41467 12.6342 -8.29083
2284 2 7.21956 3.60978 10.8293 -6.98421
2283 1 9.02445 3.60978 9.02445 -8.2863
2535 3 9.02445 5.41467 10.8293 -6.36403
2534 1 7.21956 5.41467 9.02445 -8.35147
2783 3 9.02445 3.60978 12.6342 -6.50998
3035 3 10.8293 5.41467 9.02445 -6.47981
3034 1 7.21956 5.41467 12.6342 -8.38469
3284 3 10.8293 3.60978 10.8293 -6.52325
254 1 14.4391 3.60978 10.8293 -8.22172
1035 1 14.4391 5.41467 12.6342 -7.96593
2784 3 12.6342 3.60978 9.02445 -6.45345
3536 2 14.4391 5.41467 9.02445 -7.02969
3535 2 12.6342 5.41467 10.8293 -7.08967
3785 2 12.6342 3.60978 12.6342 -7.00242
535 2 16.244 5.41467 10.8293 -7.0484
786 1 16.244 3.60978 12.6342 -8.11259
3285 1 16.244 3.60978 9.02445 -8.11722
20 2 0 9.02445 9.02445 -7.13522
1286 2 0 7.21956 10.8293 -7.03192
1536 2 1.80489 9.02445 10.8293 -7.11043
1786 3 1.80489 7.21956 12.6342 -6.47974
2036 2 0 9.02445 12.6342 -7.08744
2287 2 0 10.8293 10.8293 -7.09019
2286 2 1.80489 10.8293 9.02445 -7.11636
2786 3 1.80489 10.8293 12.6342 -6.64263
3786 3 1.80489 7.21956 9.02445 -6.51456
255 2 5.41467 7.21956 9.02445 -6.92078
536 3 3.60978 9.02445 9.02445 -6.57088
2285 1 3.60978 7.21956 10.8293 -8.25089
2536 3 5.41467 9.02445 10.8293 -6.40964
2787 1 5.41467 10.8293 9.02445 -8.51253
2785 1 5.41467 7.21956 12.6342 -8.0144
3036 2 3.60978 9.02445 12.6342 -6.97714
3287 3 3.60978 10.8293 10.8293 -6.63139
3788 2 5.41467 10.8293 12.6342 -7.02398
256 1 10.8293 7.21956 10.8293 -8.14742
257 2 7.21956 10.8293 10.8293 -7.09139
21 1 7.21956 9.02445 12.6342 -8.03515
789 1 9.02445 10.8293 12.6342 -7.94513
787 3 9.02445 7.21956 9.02445 -6.38697
1037 3 10.8293 9.02445 12.6342 -6.32803
1036 3 7.21956 9.02445 9.02445 -6.47858
1289 1 10.8293 10.8293 10.8293 -8.15513
1537 1 10.8293 9.02445 9.02445 -8.15744
3288 1 9.02445 10.8293 9.02445 -8.18678
3286 3 7.21956 7.21956 10.8293 -6.33157
3537 1 9.02445 9.02445 10.8293 -8.06061
3787 2 9.02445 7.21956 12.6342 -6.98045
537 2 12.6342 9.02445 10.8293 -7.01565
788 1 12.6342 7.21956 12.6342 -7.94638
1288 1 14.4391 7.21956 10.8293 -7.95255
1287 2 12.6342 7.21956 9.02445 -7.0443
1789 2 12.6342 10.8293 12.6342 -7.08183
2038 1 14.4391 9.02445 12.6342 -7.92962
2037 1 14.4391 9.02445 9.02445 -8.1196
2288 1 14.4391 10.8293 10.8293 -8.27052
3789 3 12.6342 10.8293 9.02445 -6.49628
258 2 16.244 10.8293 9.02445 -7.04946
1538 1 16.244 9.02445 10.8293 -7.94811
1788 2 16.244 7.21956 12.6342 -7.03011
1787 1 16.244 7.21956 9.02445 -7.96297
2788 3 16.244 10.8293 12.6342 -6.39099
790 3 1.80489 14.4391 9.02445 -6.44683
2538 1 1.80489 12.6342 10.8293 -8.21548
2537 2 0 12.6342 9.02445 -7.13046
3037 2 0 12.6342 12.6342 -7.07167
3289 1 0 14.4391 10.8293 -8.26891
3790 1 1.80489 14.4391 12.6342 -8.05179
259 1 3.60978 14.4391 10.8293 -8.02525
22 3 3.60978 12.6342 12.6342 -6.50904
791 2 5.41467 14.4391 12.6342 -6.9961
1290 1 5.41467 14.4391 9.02445 -8.22086
3038 2 3.60978 12.6342 9.02445 -7.05342
3538 2 5.41467 12.6342 10.8293 -7.05843
23 3 10.8293 12.6342 9.02445 -6.54757
538 1 9.02445 12.6342 10.8293 -8.05982
1038 1 7.21956 12.6342 12.6342 -8.08947
1291 2 7.21956 14.4391 10.8293 -7.02604
1791 1 9.02445 14.4391 12.6342 -8.11833
1790 2 9.02445 14.4391 9.02445 -6.94597
2039 2 10.8293 12.6342 12.6342 -7.05888
2290 3 10.8293 14.4391 10.8293 -6.39116
3539 2 7.21956 12.6342 9.02445 -7.07448
539 3 14.4391 12.6342 9.02445 -6.61856
1539 3 12.6342 12.6342 10.8293 -6.51761
2289 2 12.6342 14.4391 9.02445 -7.06833
2789 1 12.6342 14.4391 12.6342 -8.26752
3039 2 14.4391 12.6342 12.6342 -7.01484
3290 2 14.4391 14.4391 10.8293 -6.94374
2539 3 16.244 12.6342 10.8293 -6.49653
2790 1 16.244 14.4391 9.02445 -8.36227
3791 3 16.244 14.4391 12.6342 -6.40457
24 3 0 16.244 12.6342 -6.38035
1039 3 0 16.244 9.02445 -6.42713
3540 3 1.80489 16.244 10.8293 -6.36181
540 1 5.41467 16.244 10.8293 -8.22308
1040 1 3.60978 16.244 12.6342 -8.11472
1540 1 3.60978 16.244 9.02445 -8.2125
1541 3 9.02445 16.244 10.8293 -6.39093
2041 3 7.21956 16.244 12.6342 -6.36449
2040 3 7.21956 16.244 9.02445 -6.39828
2540 1 10.8293 16.244 9.02445 -8.28459
3040 1 10.8293 16.244 12.6342 -8.11182
25 1 14.4391 16.244 12.6342 -8.23352
2541 3 12.6342 16.244 10.8293 -6.37647
3041 3 14.4391 16.244 9.02445 -6.52278
3541 3 16.244 16.244 10.8293 -6.29232
260 1 0 0 14.4391 -8.20242
541 2 1.80489 1.80489 14.4391 -7.0772
792 3 1.80489 0 16.244 -6.49012
1041 2 0 1.80489 16.244 -7.01135
1292 2 3.60978 0 14.4391 -6.99945
1542 3 5.41467 1.80489 14.4391 -6.4158
1792 3 5.41467 0 16.244 -6.41735
2042 1 3.60978 1.80489 16.244 -8.26957
26 2 10.8293 1.80489 16.244 -7.06651
2291 3 7.21956 0 14.4391 -6.46436
2542 1 9.02445 1.80489 14.4391 -8.48905
2791 3 9.02445 0 16.244 -6.49467
3042 1 7.21956 1.80489 16.244 -8.36464
3291 3 10.8293 0 14.4391 -6.50299
261 3 14.4391 0 14.4391 -6.53071
1042 2 14.4391 1.80489 16.244 -7.16905
3542 2 12.6342 1.80489 14.4391 -7.0444
3792 3 12.6342 0 16.244 -6.69418
542 1 16.244 1.80489 14.4391 -8.19102
793 1 16.244 0 16.244 -8.12472
1293 3 0 3.60978 14.4391 -6.38812
1543 2 1.80489 5.41467 14.4391 -6.99037
1793 3 1.80489 3.60978 16.244 -6.51656
2043 1 0 5.41467 16.244 -8.33471
2292 1 3.60978 3.60978 14.4391 -8.20433
2543 2 5.41467 5.41467 14.4391 -7.08716
2792 3 5.41467 3.60978 16.244 -6.49917
3043 3 3.60978 5.41467 16.244 -6.48674
262 3 10.8293 3.60978 14.4391 -6.6041
27 2 7.21956 5.41467 16.244 -7.0303
1043 1 10.8293 5.41467 16.244 -8.18174
3292 3 7.21956 3.60978 14.4391 -6.51208
3543 2 9.02445 5.41467 14.4391 -6.98824
3793 2 9.02445 3.60978 16.244 -7.05138
543 2 12.6342 5.41467 14.4391 -7.0848
794 2 12.6342 3.60978 16.244 -7.18294
1294 2 14.4391 3.60978 14.4391 -7.17646
2044 2 14.4391 5.41467 16.244 -7.12546
1544 1 16.244 5.41467 14.4391 -8.14656
1794 2 16.244 3.60978 16.244 -7.06052
2293 2 0 7.21956 14.4391 -6.99978
2544 3 1.80489 9.02445 14.4391 -6.51303
2793 1 1.80489 7.21956 16.244 -8.23902
3044 1 0 9.02445 16.244 -8.50485
3294 2 0 10.8293 14.4391 -7.043
3795 2 1.80489 10.8293 16.244 -6.98356
264 1 3.60978 10.8293 14.4391 -8.27871
28 2 3.60978 9.02445 16.244 -6.925
796 3 5.41467 10.8293 16.244 -6.23846
3293 1 3.60978 7.21956 14.4391 -8.09079
3544 1 5.41467 9.02445 14.4391 -7.98178
3794 1 5.41467 7.21956 16.244 -8.12028
263 1 7.21956 7.21956 14.4391 -7.96649
544 1 9.02445 9.02445 14.4391 -8.07644
795 3 9.02445 7.21956 16.244 -6.28439
1044 1 7.21956 9.02445 16.244 -8.00495
1296 3 7.21956 10.8293 14.4391 -6.215
1295 2 10.8293 7.21956 14.4391 -7.07552
1796 1 9.02445 10.8293 16.244 -7.98208
2045 2 10.8293 9.02445 16.244 -7.06747
2295 2 10.8293 10.8293 14.4391 -7.06283
1545 1 12.6342 9.02445 14.4391 -8.15162
1795 1 12.6342 7.21956 16.244 -7.96586
2294 2 14.4391 7.21956 14.4391 -7.13282
2795 2 12.6342 10.8293 16.244 -7.0536
3045 2 14.4391 9.02445 16.244 -7.1156
3295 2 14.4391 10.8293 14.4391 -7.0636
2545 1 16.244 9.02445 14.4391 -8.16156
2794 1 16.244 7.21956 16.244 -8.187
3796 1 16.244 10.8293 16.244 -8.23222
265 1 0 14.4391 14.4391 -8.28251
29 2 0 12.6342 16.244 -6.99106
797 3 1.80489 14.4391 16.244 -6.45164
3545 2 1.80489 12.6342 14.4391 -7.05865
545 2 5.41467 12.6342 14.4391 -7.03212
1045 1 3.60978 12.6342 16.244 -8.33706
1297 2 3.60978 14.4391 14.4391 -7.02456
1797 2 5.41467 14.4391 16.244 -7.05802
1546 1 9.02445 12.6342 14.4391 -7.93216
2046 1 7.21956 12.6342 16.244 -8.08047
2296 1 7.21956 14.4391 14.4391 -8.23844
2796 2 9.02445 14.4391 16.244 -6.89512
3046 3 10.8293 12.6342 16.244 -6.35185
3296 1 10.8293 14.4391 14.4391 -8.1493
266 3 14.4391 14.4391 14.4391 -6.48323
30 3 14.4391 12.6342 16.244 -6.44665
2546 2 12.6342 12.6342 14.4391 -7.06552
3797 3 12.6342 14.4391 16.244 -6.5161
798 2 16.244 14.4391 16.244 -6.95056
3546 1 16.244 12.6342 14.4391 -8.38722
546 2 1.80489 16.244 14.4391 -7.04503
1046 1 0 16.244 16.244 -7.99161
1547 3 5.41467 16.244 14.4391 -6.47716
2047 2 3.60978 16.244 16.244 -7.02372
31 2 10.8293 16.244 16.244 -7.01771
2547 3 9.02445 16.244 14.4391 -6.23932
3047 3 7.21956 16.244 16.244 -6.28799
1047 2 14.4391 16.244 16.244 -7.07181
3547 2 12.6342 16.244 14.4391 -7.04179
547 1 16.244 16.244 14.4391 -8.01202
1298 1 0 0 18.0489 -8.37586
1548 2 1.80489 1.80489 18.0489 -7.01773
1798 1 1.80489 0 19.8538 -8.11012
2048 3 0 1.80489 19.8538 -6.53894
2297 2 0 0 21.6587 -6.82299
2548 3 1.80489 1.80489 21.6587 -6.43899
2298 1 3.60978 0 18.0489 -8.17116
2549 1 5.41467 1.80489 18.0489 -8.23772
2797 3 5.41467 0 19.8538 -6.42021
3048 1 3.60978 1.80489 19.8538 -8.26292
3297 1 3.60978 0 21.6587 -8.32066
3548 3 5.41467 1.80489 21.6587 -6.42293
501 1 9.02445 1.80489 21.6587 -8.21174
32 3 7.21956 1.80489 19.8538 -6.48026
284 3 10.8293 0 18.0489 -6.7004
283 3 7.21956 0 21.6587 -6.42733
1048 3 10.8293 1.80489 19.8538 -6.59135
1299 1 10.8293 0 21.6587 -8.16638
3298 2 7.21956 0 18.0489 -6.98384
3549 2 9.02445 1.80489 18.0489 -6.98698
3798 1 9.02445 0 19.8538 -8.27903
502 2 12.6342 1.80489 18.0489 -7.16934
799 2 12.6342 0 19.8538 -7.0683
1300 2 14.4391 0 18.0489 -7.10901
1549 2 12.6342 1.80489 21.6587 -6.97701
2049 2 14.4391 1.80489 19.8538 -7.06294
2299 1 14.4391 0 21.6587 -8.36535
1550 1 16.244 1.80489 18.0489 -8.17864
1799 1 16.244 0 19.8538 -8.06874
2550 3 16.244 1.80489 21.6587 -6.62403
2300 2 0 3.60978 18.0489 -7.07746
2551 3 1.80489 5.41467 18.0489 -6.60132
2798 3 1.80489 3.60978 19.8538 -6.65888
3049 2 0 5.41467 19.8538 -7.11508
3299 2 0 3.60978 21.6587 -7.05128
3550 2 1.80489 5.41467 21.6587 -7.07295
503 3 5.41467 5.41467 21.6587 -6.59784
33 3 3.60978 5.41467 19.8538 -6.6639
285 3 3.60978 3.60978 21.6587 -6.55584
3300 2 3.60978 3.60978 18.0489 -6.95193
3551 2 5.41467 5.41467 18.0489 -7.0561
3799 3 5.41467 3.60978 19.8538 -6.57508
504 1 9.02445 5.41467 18.0489 -8.19031
286 2 7.21956 3.60978 18.0489 -7.0701
800 2 9.02445 3.60978 19.8538 -7.03183
1049 2 7.21956 5.41467 19.8538 -7.13779
1302 3 10.8293 3.60978 18.0489 -6.63097
1301 3 7.21956 3.60978 21.6587 -6.50154
1551 2 9.02445 5.41467 21.6587 -7.00345
2050 2 10.8293 5.41467 19.8538 -7.02318
2301 3 10.8293 3.60978 21.6587 -6.48741
1552 1 12.6342 5.41467 18.0489 -8.10681
1800 3 12.6342 3.60978 19.8538 -6.59975
2302 2 14.4391 3.60978 18.0489 -7.13647
2552 1 12.6342 5.41467 21.6587 -8.4319
3050 2 14.4391 5.41467 19.8538 -6.99952
3301 3 14.4391 3.60978 21.6587 -6.64504
2553 3 16.244 5.41467 18.0489 -6.65553
2799 3 16.244 3.60978 19.8538 -6.70184
3552 3 16.244 5.41467 21.6587 -6.66857
505 2 1.80489 9.02445 21.6587 -7.046
34 2 0 9.02445 19.8538 -7.04611
290 3 0 10.8293 18.0489 -6.54494
287 1 0 7.21956 21.6587 -8.38686
802 1 1.80489 10.8293 19.8538 -8.42366
1305 3 0 10.8293 21.6587 -6.59049
3302 3 0 7.21956 18.0489 -6.59867
3553 3 1.80489 9.02445 18.0489 -6.46138
3800 2 1.80489 7.21956 19.8538 -7.02104
506 3 5.41467 9.02445 18.0489 -6.27883
288 3 3.60978 7.21956 18.0489 -6.54442
801 2 5.41467 7.21956 19.8538 -6.9905
1050 3 3.60978 9.02445 19.8538 -6.48062
1306 1 3.60978 10.8293 18.0489 -8.18384
1303 1 3.60978 7.21956 21.6587 -8.48206
1553 2 5.41467 9.02445 21.6587 -7.05759
1802 1 5.41467 10.8293 19.8538 -8.1329
2305 2 3.60978 10.8293 21.6587 -6.91997
291 1 10.8293 10.8293 21.6587 -8.47972
1304 1 7.21956 7.21956 18.0489 -8.09812
1554 3 9.02445 9.02445 18.0489 -6.25611
1801 2 9.02445 7.21956 19.8538 -7.06758
2051 1 7.21956 9.02445 19.8538 -8.20813
2306 1 7.21956 10.8293 18.0489 -8.12047
2304 1 10.8293 7.21956 18.0489 -8.03445
2303 2 7.21956 7.21956 21.6587 -7.04202
2554 3 9.02445 9.02445 21.6587 -6.44439
2801 3 9.02445 10.8293 19.8538 -6.2329
3051 2 10.8293 9.02445 19.8538 -6.93966
3306 1 10.8293 10.8293 18.0489 -8.17587
3305 1 7.21956 10.8293 21.6587 -8.47249
3303 3 10.8293 7.21956 21.6587 -6.43921
35 3 14.4391 9.02445 19.8538 -6.37661
292 1 14.4391 10.8293 18.0489 -8.21084
289 3 14.4391 7.21956 21.6587 -6.43789
1307 2 14.4391 10.8293 21.6587 -7.0176
2555 1 12.6342 9.02445 18.0489 -7.95449
2800 1 12.6342 7.21956 19.8538 -8.16757
3304 1 14.4391 7.21956 18.0489 -8.01834
3554 3 12.6342 9.02445 21.6587 -6.46612
3802 3 12.6342 10.8293 19.8538 -6.39641
507 3 16.244 9.02445 21.6587 -6.56014
803 2 16.244 10.8293 19.8538 -6.99111
3555 3 16.244 9.02445 18.0489 -6.46522
3801 1 16.244 7.21956 19.8538 -8.39769
508 3 1.80489 12.6342 18.0489 -6.39693
1051 3 0 12.6342 19.8538 -6.41434
1308 1 0 14.4391 18.0489 -8.1305
1555 3 1.80489 12.6342 21.6587 -6.46865
1803 3 1.80489 14.4391 19.8538 -6.39914
2307 2 0 14.4391 21.6587 -6.96235
1556 2 5.41467 12.6342 18.0489 -7.0784
2052 1 3.60978 12.6342 19.8538 -8.22408
2308 3 3.60978 14.4391 18.0489 -6.49771
2556 3 5.41467 12.6342 21.6587 -6.4152
2802 2 5.41467 14.4391 19.8538 -6.97322
3307 1 3.60978 14.4391 21.6587 -8.29039
36 1 10.8293 12.6342 19.8538 -8.2046
294 3 10.8293 14.4391 18.0489 -6.42238
293 2 7.21956 14.4391 21.6587 -6.97102
1309 2 10.8293 14.4391 21.6587 -6.96735
2557 3 9.02445 12.6342 18.0489 -6.25788
3052 2 7.21956 12.6342 19.8538 -6.893
3308 1 7.21956 14.4391 18.0489 -8.16271
3556 3 9.02445 12.6342 21.6587 -6.36932
3803 1 9.02445 14.4391 19.8538 -8.26079
509 3 12.6342 12.6342 21.6587 -6.50329
804 2 12.6342 14.4391 19.8538 -6.96574
1052 2 14.4391 12.6342 19.8538 -7.06356
1310 1 14.4391 14.4391 18.0489 -8.27632
2309 2 14.4391 14.4391 21.6587 -6.99141
3557 1 12.6342 12.6342 18.0489 -8.15605
510 2 16.244 12.6342 18.0489 -6.9582
1557 1 16.244 12.6342 21.6587 -8.07478
1804 1 16.244 14.4391 19.8538 -8.00028
1558 1 1.80489 16.244 18.0489 -8.28588
2053 2 0 16.244 19.8538 -7.01041
2558 3 1.80489 16.244 21.6587 -6.4717
2559 3 5.41467 16.244 18.0489 -6.40316
3053 2 3.60978 16.244 19.8538 -6.91462
3558 1 5.41467 16.244 21.6587 -8.04108
511 3 9.02445 16.244 21.6587 -6.37658
37 1 7.21956 16.244 19.8538 -8.08087
1053 3 10.8293 16.244 19.8538 -6.3195
3559 1 9.02445 16.244 18.0489 -8.14083
512 2 12.6342 16.244 18.0489 -7.00246
1559 1 12.6342 16.244 21.6587 -8.1171
2054 3 14.4391 16.244 19.8538 -6.397
1560 3 16.244 16.244 18.0489 -6.50245
2560 1 16.244 16.244 21.6587 -8.07264
47 1 0 1.80489 27.0733 -8.08141
2803 1 1.80489 0 23.4636 -8.15077
3054 1 0 1.80489 23.4636 -8.16583
3309 2 0 0 25.2684 -7.07219
3560 1 1.80489 1.80489 25.2684 -8.25222
3813 3 1.80489 0 27.0733 -6.22376
549 3 3.60978 1.80489 27.0733 -6.32568
39 2 5.41467 1.80489 25.2684 -6.96515
38 2 3.60978 1.80489 23.4636 -6.93505
299 1 5.41467 0 27.0733 -7.91162
3805 2 3.60978 0 25.2684 -6.97932
3804 2 5.41467 0 23.4636 -6.93454
513 2 9.02445 1.80489 25.2684 -7.06005
295 1 7.21956 0 25.2684 -8.1211
752 2 9.02445 0 27.0733 -7.01671
806 1 10.8293 0 25.2684 -8.24281
805 3 9.02445 0 23.4636 -6.30931
1064 1 7.21956 1.80489 27.0733 -8.13486
1054 1 7.21956 1.80489 23.4636 -8.16588
1565 2 10.8293 1.80489 27.0733 -7.09545
2055 1 10.8293 1.80489 23.4636 -8.16178
1055 2 12.6342 1.80489 25.2684 -7.01208
1315 1 12.6342 0 27.0733 -7.96053
1311 1 14.4391 0 25.2684 -8.19247
1805 3 12.6342 0 23.4636 -6.38029
2065 3 14.4391 1.80489 27.0733 -6.37609
3055 2 14.4391 1.80489 23.4636 -6.99787
1561 3 16.244 1.80489 25.2684 -6.5659
1815 1 16.244 0 27.0733 -8.21902
2804 3 16.244 0 23.4636 -6.52547
40 2 0 5.41467 23.4636 -7.11258
1806 2 0 3.60978 25.2684 -7.09405
2056 2 1.80489 5.41467 25.2684 -7.05035
2314 2 1.80489 3.60978 27.0733 -7.04586
2565 3 0 5.41467 27.0733 -6.6717
3806 3 1.80489 3.60978 23.4636 -6.62798
807 1 5.41467 3.60978 23.4636 -8.36327
1056 2 3.60978 5.41467 23.4636 -7.01699
2310 3 3.60978 3.60978 25.2684 -6.49799
2561 1 5.41467 5.41467 25.2684 -8.33337
2814 3 5.41467 3.60978 27.0733 -6.40703
3065 3 3.60978 5.41467 27.0733 -6.36981
50 3 10.8293 5.41467 27.0733 -6.41128
1807 1 9.02445 3.60978 23.4636 -8.28579
2057 3 7.21956 5.41467 23.4636 -6.45025
2805 3 7.21956 3.60978 25.2684 -6.39161
3057 3 10.8293 5.41467 23.4636 -6.44857
3056 2 9.02445 5.41467 25.2684 -6.93054
3314 1 9.02445 3.60978 27.0733 -8.20581
3310 2 10.8293 3.60978 25.2684 -7.03997
3565 2 7.21956 5.41467 27.0733 -7.00483
552 3 14.4391 5.41467 27.0733 -6.4402
41 3 14.4391 5.41467 23.4636 -6.4685
2806 3 12.6342 3.60978 23.4636 -6.58071
3561 2 12.6342 5.41467 25.2684 -6.82398
3816 1 12.6342 3.60978 27.0733 -8.26131
3808 3 14.4391 3.60978 25.2684 -6.54297
42 1 16.244 5.41467 25.2684 -8.57299
302 3 16.244 3.60978 27.0733 -6.61663
3807 2 16.244 3.60978 23.4636 -6.97774
514 3 1.80489 9.02445 25.2684 -6.44621
296 3 0 7.21956 25.2684 -6.77705
808 3 1.80489 7.21956 23.4636 -6.59945
755 2 1.80489 7.21956 27.0733 -7.00189
1067 2 0 9.02445 27.0733 -7.06251
1057 2 0 9.02445 23.4636 -7.00822
1810 3 1.80489 10.8293 23.4636 -6.43401
2808 1 0 10.8293 25.2684 -8.35266
3317 3 1.80489 10.8293 27.0733 -6.36158
809 1 3.60978 7.21956 25.2684 -8.19062
1058 1 5.41467 9.02445 25.2684 -8.24949
1318 1 5.41467 7.21956 27.0733 -8.14624
1568 1 3.60978 9.02445 27.0733 -8.08494
1808 2 5.41467 7.21956 23.4636 -6.9622
2058 3 3.60978 9.02445 23.4636 -6.45786
2809 2 5.41467 10.8293 23.4636 -7.0086
3311 1 3.60978 10.8293 25.2684 -8.18247
3819 2 5.41467 10.8293 27.0733 -6.99161
43 3 10.8293 9.02445 23.4636 -6.36506
305 3 9.02445 10.8293 27.0733 -6.47334
297 2 10.8293 10.8293 25.2684 -6.9518
1312 3 7.21956 7.21956 25.2684 -6.38315
1562 1 9.02445 9.02445 25.2684 -8.3899
1818 2 9.02445 7.21956 27.0733 -6.91014
1809 3 10.8293 7.21956 25.2684 -6.35801
2068 3 7.21956 9.02445 27.0733 -6.42061
2568 1 10.8293 9.02445 27.0733 -8.14819
2807 1 9.02445 7.21956 23.4636 -8.50384
3058 3 7.21956 9.02445 23.4636 -6.48613
3811 2 7.21956 10.8293 25.2684 -6.86568
3810 3 9.02445 10.8293 23.4636 -6.36519
812 1 14.4391 10.8293 25.2684 -8.29267
811 3 12.6342 10.8293 23.4636 -6.45312
758 1 12.6342 10.8293 27.0733 -7.92729
1059 2 14.4391 9.02445 23.4636 -7.00121
2059 1 12.6342 9.02445 25.2684 -8.18327
2317 1 12.6342 7.21956 27.0733 -8.27876
2311 3 14.4391 7.21956 25.2684 -6.42796
3068 3 14.4391 9.02445 27.0733 -6.44325
3809 1 12.6342 7.21956 23.4636 -8.40745
810 3 16.244 7.21956 23.4636 -6.56508
1321 2 16.244 10.8293 27.0733 -6.98683
1811 2 16.244 10.8293 23.4636 -7.08627
2562 2 16.244 9.02445 25.2684 -7.01122
2817 3 16.244 7.21956 27.0733 -6.54964
1313 1 0 14.4391 25.2684 -8.24688
1821 3 1.80489 14.4391 27.0733 -6.30533
2060 3 0 12.6342 23.4636 -6.39061
2810 2 1.80489 14.4391 23.4636 -6.94577
3059 1 1.80489 12.6342 25.2684 -8.22089
3568 3 0 12.6342 27.0733 -6.31049
53 3 3.60978 12.6342 27.0733 -6.28511
1812 3 3.60978 14.4391 25.2684 -6.28282
2320 2 5.41467 14.4391 27.0733 -6.91105
3060 1 3.60978 12.6342 23.4636 -8.16186
3562 1 5.41467 12.6342 25.2684 -8.28425
3812 3 5.41467 14.4391 23.4636 -6.27733
555 3 7.21956 12.6342 27.0733 -6.42871
45 1 9.02445 12.6342 25.2684 -8.13294
44 3 7.21956 12.6342 23.4636 -6.36985
813 1 9.02445 14.4391 23.4636 -8.17888
1070 1 10.8293 12.6342 27.0733 -8.12683
1060 1 10.8293 12.6342 23.4636 -8.12884
2312 1 7.21956 14.4391 25.2684 -8.11827
2820 1 9.02445 14.4391 27.0733 -8.23435
2811 2 10.8293 14.4391 25.2684 -7.07251
515 2 12.6342 12.6342 25.2684 -7.00998
1571 2 14.4391 12.6342 27.0733 -7.09091
1813 1 12.6342 14.4391 23.4636 -8.32292
2061 3 14.4391 12.6342 23.4636 -6.53977
3320 2 12.6342 14.4391 27.0733 -6.94332
3312 3 14.4391 14.4391 25.2684 -6.5107
1061 2 16.244 12.6342 25.2684 -7.04313
2812 2 16.244 14.4391 23.4636 -7.06787
3822 1 16.244 14.4391 27.0733 -8.11305
1563 1 1.80489 16.244 25.2684 -8.27167
2071 2 0 16.244 27.0733 -7.07816
3061 3 0 16.244 23.4636 -6.43464
46 3 3.60978 16.244 23.4636 -6.24817