ITEM: TIMESTEP
0
ITEM: NUMBER OF ATOMS
4000
ITEM: BOX BOUNDS pp pp pp
0.0000000000000000e+00 3.5907429999999998e+01
0.0000000000000000e+00 3.5907429999999998e+01
0.0000000000000000e+00 3.5907429999999998e+01
ITEM: ATOMS id type x y z c_peratom
267 1 0 0 0 -8.09377
516 1 1.79537 1.79537 0 -8.03876
767 2 1.79537 0 1.79537 -6.98913
1016 1 0 1.79537 1.79537 -8.06479
1267 2 0 0 3.59074 -7.02109
1268 1 3.59074 0 0 -7.95436
1270 3 0 3.59074 0 -6.38934
1517 2 1.79537 1.79537 3.59074 -7.08401
1768 1 1.79537 3.59074 1.79537 -8.3829
2017 2 3.59074 1.79537 1.79537 -7.01203
2266 2 3.59074 0 3.59074 -7.12046
2268 3 0 3.59074 3.59074 -6.51715
2269 3 3.59074 3.59074 0 -6.57547
3268 3 3.59074 3.59074 3.59074 -6.68563
1518 3 5.38611 1.79537 0 -6.25551
1767 1 5.38611 0 1.79537 -7.99034
2517 2 5.38611 1.79537 3.59074 -7.08371
2767 2 5.38611 3.59074 1.79537 -7.07429
1 3 10.7722 1.79537 1.79537 -6.27602
268 1 10.7722 0 3.59074 -8.3011
270 3 7.18149 3.59074 3.59074 -6.597
271 1 10.7722 3.59074 0 -8.5416
1271 1 10.7722 3.59074 3.59074 -8.32379
2267 1 7.18149 0 0 -8.02729
2518 3 8.97686 1.79537 0 -6.2221
2766 3 8.97686 0 1.79537 -6.1666
3017 1 7.18149 1.79537 1.79537 -8.31493
3266 1 7.18149 0 3.59074 -8.0554
3269 1 7.18149 3.59074 0 -8.39933
3267 1 10.7722 0 0 -8.34436
3517 2 8.97686 1.79537 3.59074 -6.95283
3768 3 8.97686 3.59074 1.79537 -6.36032
517 2 12.5676 1.79537 3.59074 -6.97409
769 1 12.5676 3.59074 1.79537 -8.3149
3518 2 12.5676 1.79537 0 -6.95262
3767 3 12.5676 0 1.79537 -6.37568
269 1 14.363 0 0 -8.24427
376 2 17.9537 0 0 -7.02898
518 1 16.1583 1.79537 0 -8.33881
768 2 16.1583 0 1.79537 -7.00985
1017 2 14.363 1.79537 1.79537 -7.00517
1126 3 17.9537 1.79537 1.79537 -6.45117
1379 2 17.9537 3.59074 0 -6.95519
1376 1 17.9537 0 3.59074 -8.30808
1269 1 14.363 0 3.59074 -8.27836
1272 3 14.363 3.59074 0 -6.5192
1519 2 16.1583 1.79537 3.59074 -6.98173
1769 3 16.1583 3.59074 1.79537 -6.48648
2270 3 14.363 3.59074 3.59074 -6.3218
2393 1 17.9537 3.59074 3.59074 -8.43518
1520 3 1.79537 5.38611 0 -6.57697
2018 1 0 5.38611 1.79537 -8.51999
2519 2 1.79537 5.38611 3.59074 -7.0833
3018 2 3.59074 5.38611 1.79537 -7.08921
2520 2 5.38611 5.38611 0 -7.09146
3519 2 5.38611 5.38611 3.59074 -7.10349
2 2 7.18149 5.38611 1.79537 -7.09106
519 1 8.97686 5.38611 3.59074 -8.40486
1018 3 10.7722 5.38611 1.79537 -6.30031
3520 3 8.97686 5.38611 0 -6.45925
520 3 12.5676 5.38611 0 -6.42435
1521 3 12.5676 5.38611 3.59074 -6.27741
1522 2 16.1583 5.38611 0 -6.99905
2002 3 17.9537 5.38611 1.79537 -6.46685
2019 1 14.363 5.38611 1.79537 -8.36471
2521 3 16.1583 5.38611 3.59074 -6.22378
3 3 3.59074 8.97686 1.79537 -6.49806
272 3 3.59074 7.18149 3.59074 -6.68345
274 3 0 10.7722 3.59074 -6.63512
275 1 3.59074 10.7722 0 -8.54019
1275 1 3.59074 10.7722 3.59074 -8.53279
2271 3 0 7.18149 0 -6.60009
2522 3 1.79537 8.97686 0 -6.55036
2768 2 1.79537 7.18149 1.79537 -6.94839
3019 3 0 8.97686 1.79537 -6.61186
3273 3 0 10.7722 0 -6.5648
3271 1 3.59074 7.18149 0 -8.43654
3270 3 0 7.18149 3.59074 -6.68098
3521 3 1.79537 8.97686 3.59074 -6.5258
3770 3 1.79537 10.7722 1.79537 -6.57668
521 3 5.38611 8.97686 3.59074 -6.56723
771 2 5.38611 10.7722 1.79537 -7.0147
3522 1 5.38611 8.97686 0 -8.26028
3769 2 5.38611 7.18149 1.79537 -7.12251
273 2 7.18149 7.18149 0 -7.03768
522 3 8.97686 8.97686 0 -6.50545
770 2 8.97686 7.18149 1.79537 -7.07725
1019 2 7.18149 8.97686 1.79537 -7.03186
1276 3 7.18149 10.7722 0 -6.56068
1274 1 10.7722 7.18149 0 -8.57638
1273 2 7.18149 7.18149 3.59074 -7.04091
1523 1 8.97686 8.97686 3.59074 -8.51206
1771 3 8.97686 10.7722 1.79537 -6.59219
2020 2 10.7722 8.97686 1.79537 -7.01846
2272 1 10.7722 7.18149 3.59074 -8.4097
2275 2 10.7722 10.7722 0 -7.02738
2274 3 7.18149 10.7722 3.59074 -6.59787
3274 3 10.7722 10.7722 3.59074 -6.45241
1524 3 12.5676 8.97686 0 -6.41275
1770 2 12.5676 7.18149 1.79537 -6.88157
2523 2 12.5676 8.97686 3.59074 -6.9411
2770 1 12.5676 10.7722 1.79537 -8.36975
383 2 17.9537 10.7722 3.59074 -7.04584
276 1 14.363 10.7722 3.59074 -8.26884
2273 1 14.363 7.18149 0 -8.5754
2396 2 17.9537 7.18149 0 -7.07199
2524 2 16.1583 8.97686 0 -7.05368
2769 3 16.1583 7.18149 1.79537 -6.4717
3144 1 17.9537 8.97686 1.79537 -8.46373
3020 3 14.363 8.97686 1.79537 -6.44315
3398 3 17.9537 10.7722 0 -6.64239
3395 2 17.9537 7.18149 3.59074 -6.91279
3275 2 14.363 10.7722 0 -6.96448
3272 1 14.363 7.18149 3.59074 -8.39489
3523 2 16.1583 8.97686 3.59074 -7.03619
3771 3 16.1583 10.7722 1.79537 -6.55838
4 3 0 12.5676 1.79537 -6.74252
523 2 1.79537 12.5676 3.59074 -6.98483
1020 2 3.59074 12.5676 1.79537 -7.02548
3524 2 1.79537 12.5676 0 -6.95103
524 2 5.38611 12.5676 0 -6.99166
1525 2 5.38611 12.5676 3.59074 -6.90526
1526 2 8.97686 12.5676 0 -7.03711
2021 3 7.18149 12.5676 1.79537 -6.52849
2525 1 8.97686 12.5676 3.59074 -8.42581
3021 2 10.7722 12.5676 1.79537 -7.09743
2526 2 12.5676 12.5676 0 -7.08089
3525 1 12.5676 12.5676 3.59074 -8.08004
5 3 14.363 12.5676 1.79537 -6.3436
129 2 17.9537 12.5676 1.79537 -7.01257
525 2 16.1583 12.5676 3.59074 -7.01027
3526 1 16.1583 12.5676 0 -8.44618
314 1 3.59074 17.9537 3.59074 -7.91139
277 2 0 14.363 0 -7.07298
526 1 1.79537 16.1583 0 -8.20115
772 3 1.79537 14.363 1.79537 -6.5754
1021 1 0 16.1583 1.79537 -8.27236
1278 3 3.59074 14.363 0 -6.55151
1277 2 0 14.363 3.59074 -7.0759
1527 2 1.79537 16.1583 3.59074 -6.97231
2022 1 3.59074 16.1583 1.79537 -8.22904
2328 1 0 17.9537 0 -7.92278
2276 3 3.59074 14.363 3.59074 -6.51741
2828 2 1.79537 17.9537 1.79537 -7.04024
3329 1 3.59074 17.9537 0 -8.06563
3328 3 0 17.9537 3.59074 -6.41058
1528 2 5.38611 16.1583 0 -6.99049
1772 3 5.38611 14.363 1.79537 -6.54957
2527 1 5.38611 16.1583 3.59074 -8.22277
3829 1 5.38611 17.9537 1.79537 -7.99161
6 2 10.7722 16.1583 1.79537 -7.03885
315 2 7.18149 17.9537 0 -7.02283
278 1 10.7722 14.363 3.59074 -8.14751
814 2 8.97686 17.9537 1.79537 -7.00255
1331 1 10.7722 17.9537 0 -8.22311
1330 2 7.18149 17.9537 3.59074 -7.01756
2329 1 10.7722 17.9537 3.59074 -8.51841
2277 3 7.18149 14.363 0 -6.55435
2528 3 8.97686 16.1583 0 -6.4806
2771 1 8.97686 14.363 1.79537 -8.28804
3022 2 7.18149 16.1583 1.79537 -7.03942
3277 2 10.7722 14.363 0 -7.05543
3276 1 7.18149 14.363 3.59074 -8.2704
3527 2 8.97686 16.1583 3.59074 -7.00029
527 2 12.5676 16.1583 3.59074 -6.95951
1830 3 12.5676 17.9537 1.79537 -6.29242
3528 1 12.5676 16.1583 0 -8.15926
3772 2 12.5676 14.363 1.79537 -7.03714
386 1 17.9537 14.363 0 -8.39179
279 1 14.363 14.363 0 -8.31579
528 3 16.1583 16.1583 0 -6.4866
773 3 16.1583 14.363 1.79537 -6.43311
1131 2 17.9537 16.1583 1.79537 -6.95228
1022 1 14.363 16.1583 1.79537 -8.20765
1386 3 17.9537 14.363 3.59074 -6.51463
1279 1 14.363 14.363 3.59074 -8.15868
1529 2 16.1583 16.1583 3.59074 -6.90691
2438 2 17.9537 17.9537 0 -6.96434
2330 2 14.363 17.9537 0 -6.98216
2829 1 16.1583 17.9537 1.79537 -8.20319
3453 1 17.9537 17.9537 3.59074 -8.13859
3330 3 14.363 17.9537 3.59074 -6.33381
775 1 0 3.59074 7.18149 -8.0585
1280 2 3.59074 3.59074 7.18149 -7.04485
1773 2 1.79537 0 5.38611 -7.06341
2023 3 0 1.79537 5.38611 -6.40711
2278 2 0 0 7.18149 -6.95273
2529 1 1.79537 1.79537 7.18149 -8.1464
2774 2 1.79537 3.59074 5.38611 -7.08575
2773 1 3.59074 0 7.18149 -8.18114
3023 2 3.59074 1.79537 5.38611 -7.12664
2772 2 5.38611 0 5.38611 -7.04256
3024 1 5.38611 1.79537 7.18149 -8.33441
3775 1 5.38611 3.59074 5.38611 -8.39776
7 2 7.18149 1.79537 5.38611 -7.0103
776 3 8.97686 3.59074 5.38611 -6.58205
1023 1 10.7722 1.79537 5.38611 -8.25497
1775 2 7.18149 3.59074 7.18149 -7.1011
2279 2 10.7722 3.59074 7.18149 -7.02687
3278 3 7.18149 0 7.18149 -6.21868
3529 2 8.97686 1.79537 7.18149 -7.0447
3774 1 10.7722 0 7.18149 -7.97743
3773 1 8.97686 0 5.38611 -8.01225
8 3 12.5676 1.79537 7.18149 -6.20374
774 2 12.5676 0 5.38611 -6.95608
1776 3 12.5676 3.59074 5.38611 -6.32087
280 2 14.363 0 7.18149 -6.93107
529 2 16.1583 1.79537 7.18149 -7.11036
884 2 17.9537 3.59074 7.18149 -6.97915
1774 1 16.1583 0 5.38611 -8.39523
2024 1 14.363 1.79537 5.38611 -8.22413
2007 3 17.9537 1.79537 5.38611 -6.45789
2403 2 17.9537 0 7.18149 -7.11887
2776 1 14.363 3.59074 7.18149 -8.18165
2775 1 16.1583 3.59074 5.38611 -8.15192
9 3 3.59074 5.38611 5.38611 -6.59251
1024 2 1.79537 5.38611 7.18149 -7.06508
3025 2 0 5.38611 5.38611 -7.04416
1530 2 5.38611 5.38611 7.18149 -7.06043
1025 2 7.18149 5.38611 5.38611 -7.07567
2026 2 10.7722 5.38611 5.38611 -6.9887
2025 2 8.97686 5.38611 7.18149 -7.08794
2530 2 12.5676 5.38611 7.18149 -7.01553
3150 1 17.9537 5.38611 5.38611 -8.07753
3027 3 16.1583 5.38611 7.18149 -6.16303
3026 1 14.363 5.38611 5.38611 -8.24049
10 3 0 8.97686 5.38611 -6.44057
779 1 1.79537 10.7722 5.38611 -8.34526
1026 3 3.59074 8.97686 5.38611 -6.32411
1778 1 0 10.7722 7.18149 -8.06147
2280 1 3.59074 10.7722 7.18149 -8.17661
3279 1 0 7.18149 7.18149 -8.16588
3530 3 1.79537 8.97686 7.18149 -6.20254
3777 1 3.59074 7.18149 7.18149 -8.28121
3776 2 1.79537 7.18149 5.38611 -6.99683
11 2 5.38611 8.97686 7.18149 -6.99048
777 1 5.38611 7.18149 5.38611 -8.398
1779 3 5.38611 10.7722 5.38611 -6.41223
281 1 7.18149 7.18149 7.18149 -8.17439
530 2 8.97686 8.97686 7.18149 -7.02689
778 3 10.7722 7.18149 7.18149 -6.6467
1777 3 8.97686 7.18149 5.38611 -6.52933
2027 3 7.18149 8.97686 5.38611 -6.43398
2779 1 7.18149 10.7722 7.18149 -8.21718
2778 3 8.97686 10.7722 5.38611 -6.5397
3028 2 10.7722 8.97686 5.38611 -7.01106
3280 2 10.7722 10.7722 7.18149 -7.09963
1027 1 12.5676 8.97686 7.18149 -8.31027
2777 3 12.5676 7.18149 5.38611 -6.3865
3779 1 12.5676 10.7722 5.38611 -8.19055
12 3 14.363 8.97686 5.38611 -6.2534
135 1 17.9537 8.97686 5.38611 -8.00083
780 1 16.1583 10.7722 5.38611 -8.11928
1281 1 14.363 7.18149 7.18149 -8.14504
1531 3 16.1583 8.97686 7.18149 -6.13101
1887 1 17.9537 10.7722 7.18149 -8.14846
3404 1 17.9537 7.18149 7.18149 -8.06164
3780 2 14.363 10.7722 7.18149 -6.98961
3778 1 16.1583 7.18149 5.38611 -8.09017
1028 3 0 12.5676 5.38611 -6.49615
2029 3 3.59074 12.5676 5.38611 -6.38703
2028 1 1.79537 12.5676 7.18149 -8.1209
2531 1 5.38611 12.5676 7.18149 -8.45367
13 2 10.7722 12.5676 5.38611 -7.13496
3030 2 8.97686 12.5676 7.18149 -7.04221
3029 2 7.18149 12.5676 5.38611 -6.95562
3531 2 12.5676 12.5676 7.18149 -7.05043
14 1 16.1583 12.5676 7.18149 -8.00454
1138 1 17.9537 12.5676 5.38611 -8.10763
1029 2 14.363 12.5676 5.38611 -7.08232
326 1 0 17.9537 7.18149 -8.32021
282 1 0 14.363 7.18149 -8.34455
531 3 1.79537 16.1583 7.18149 -6.23473
821 1 3.59074 17.9537 7.18149 -8.1693
781 3 3.59074 14.363 7.18149 -6.34619
1780 2 1.79537 14.363 5.38611 -6.94552
2030 3 0 16.1583 5.38611 -6.46915
3031 1 3.59074 16.1583 5.38611 -8.17789
3835 1 1.79537 17.9537 5.38611 -8.19843
820 2 5.38611 17.9537 5.38611 -7.04602
1030 1 5.38611 16.1583 7.18149 -8.53589
2780 3 5.38611 14.363 5.38611 -6.34095
15 3 7.18149 16.1583 5.38611 -6.36449
1031 3 10.7722 16.1583 5.38611 -6.38062
1342 3 7.18149 17.9537 7.18149 -6.32644
1282 3 7.18149 14.363 7.18149 -6.41086
1532 1 8.97686 16.1583 7.18149 -8.41045
1837 2 10.7722 17.9537 7.18149 -6.95995
1836 3 8.97686 17.9537 5.38611 -6.41919
1781 1 10.7722 14.363 7.18149 -8.15603
3781 2 8.97686 14.363 5.38611 -6.97224
782 1 12.5676 14.363 5.38611 -8.11879
2031 1 12.5676 16.1583 7.18149 -8.26741
2835 2 12.5676 17.9537 5.38611 -7.01017
451 3 17.9537 17.9537 7.18149 -6.52387
391 1 17.9537 14.363 7.18149 -8.34226
1782 1 16.1583 14.363 5.38611 -8.22407
2032 3 14.363 16.1583 5.38611 -6.45898
2014 3 17.9537 16.1583 5.38611 -6.31573
2341 2 14.363 17.9537 7.18149 -7.02046
2281 2 14.363 14.363 7.18149 -6.98012
2532 3 16.1583 16.1583 7.18149 -6.47408
3836 3 16.1583 17.9537 5.38611 -6.44744
251 2 3.59074 0 10.7722 -6.88658
253 2 0 3.59074 10.7722 -7.00565
16 1 0 1.79537 12.5676 -8.6815
785 2 1.79537 3.59074 12.5676 -7.05447
1032 3 3.59074 1.79537 12.5676 -6.60363
1285 2 3.59074 3.59074 10.7722 -7.05285
1284 1 1.79537 3.59074 8.97686 -7.96899
2781 3 1.79537 0 8.97686 -6.34853
3032 1 0 1.79537 8.97686 -8.24385
3281 3 0 0 10.7722 -6.3781
3533 1 3.59074 1.79537 8.97686 -8.13019
3532 3 1.79537 1.79537 10.7722 -6.44391
3782 3 1.79537 0 12.5676 -6.41928
532 1 5.38611 1.79537 10.7722 -8.44692
783 3 5.38611 0 12.5676 -6.52432
1785 2 5.38611 3.59074 12.5676 -7.06126
1784 3 5.38611 3.59074 8.97686 -6.32537
3282 3 5.38611 0 8.97686 -6.29218
17 3 7.18149 1.79537 8.97686 -6.38343
533 1 10.7722 1.79537 8.97686 -8.20904
1283 3 7.18149 0 10.7722 -6.28657
1533 1 8.97686 1.79537 10.7722 -8.26329
1783 2 8.97686 0 12.5676 -7.02136
2033 1 7.18149 1.79537 12.5676 -8.27564
2284 2 7.18149 3.59074 10.7722 -6.94983
2283 2 8.97686 3.59074 8.97686 -7.02453
2282 1 10.7722 0 10.7722 -8.07638
2783 3 8.97686 3.59074 12.5676 -6.45437
3033 2 10.7722 1.79537 12.5676 -6.97734
3284 3 10.7722 3.59074 10.7722 -6.44173
3783 1 8.97686 0 8.97686 -8.03569
252 1 12.5676 0 8.97686 -8.20277
2533 2 12.5676 1.79537 10.7722 -6.93817
2784 3 12.5676 3.59074 8.97686 -6.37512
2782 3 12.5676 0 12.5676 -6.33584
3785 2 12.5676 3.59074 12.5676 -7.05219
254 1 14.363 3.59074 10.7722 -8.29173
394 3 17.9537 3.59074 10.7722 -6.34496
141 1 17.9537 1.79537 12.5676 -8.37733
18 3 14.363 1.79537 12.5676 -6.30949
786 3 16.1583 3.59074 12.5676 -6.3013
784 2 16.1583 0 8.97686 -7.09231
1033 1 14.363 1.79537 8.97686 -8.15692
3157 2 17.9537 1.79537 8.97686 -7.05653
3406 2 17.9537 0 10.7722 -7.12353
3285 2 16.1583 3.59074 8.97686 -7.04762
3283 3 14.363 0 10.7722 -6.53951
3534 1 16.1583 1.79537 10.7722 -8.33051
3784 2 16.1583 0 12.5676 -7.05242
534 1 1.79537 5.38611 10.7722 -8.01727
1034 3 0 5.38611 12.5676 -6.47468
1534 1 0 5.38611 8.97686 -7.9049
2035 2 3.59074 5.38611 12.5676 -7.15775
2034 1 3.59074 5.38611 8.97686 -8.01128
1535 1 5.38611 5.38611 10.7722 -8.217
19 1 10.7722 5.38611 12.5676 -8.44919
2535 1 8.97686 5.38611 10.7722 -8.37379
2534 1 7.18149 5.38611 8.97686 -8.12486
3035 3 10.7722 5.38611 8.97686 -6.63653
3034 3 7.18149 5.38611 12.5676 -6.55144
3535 3 12.5676 5.38611 10.7722 -6.49052
535 2 16.1583 5.38611 10.7722 -6.9939
1144 3 17.9537 5.38611 12.5676 -6.33397
1035 2 14.363 5.38611 12.5676 -6.95079
1643 1 17.9537 5.38611 8.97686 -8.22815
3536 1 14.363 5.38611 8.97686 -8.28954
20 1 0 8.97686 8.97686 -8.0086
536 2 3.59074 8.97686 8.97686 -7.07023
1286 1 0 7.18149 10.7722 -8.0303
1536 2 1.79537 8.97686 10.7722 -7.05267
1786 1 1.79537 7.18149 12.5676 -8.06119
2036 1 0 8.97686 12.5676 -8.00374
2287 1 0 10.7722 10.7722 -8.08309
2286 1 1.79537 10.7722 8.97686 -7.9886
2285 1 3.59074 7.18149 10.7722 -8.00542
2786 3 1.79537 10.7722 12.5676 -6.36587
3036 2 3.59074 8.97686 12.5676 -7.08431
3287 1 3.59074 10.7722 10.7722 -8.28073
3786 2 1.79537 7.18149 8.97686 -7.04912
255 1 5.38611 7.18149 8.97686 -7.88871
2536 1 5.38611 8.97686 10.7722 -8.06394
2787 1 5.38611 10.7722 8.97686 -7.98111
2785 2 5.38611 7.18149 12.5676 -7.07148
3788 2 5.38611 10.7722 12.5676 -7.00479
256 3 10.7722 7.18149 10.7722 -6.35706
257 1 7.18149 10.7722 10.7722 -7.9621
21 3 7.18149 8.97686 12.5676 -6.42169
789 1 8.97686 10.7722 12.5676 -8.29462
787 2 8.97686 7.18149 8.97686 -6.99436
1037 1 10.7722 8.97686 12.5676 -8.33157
1036 1 7.18149 8.97686 8.97686 -7.91221
1289 2 10.7722 10.7722 10.7722 -7.01275
1537 2 10.7722 8.97686 8.97686 -6.99429
3288 1 8.97686 10.7722 8.97686 -8.14394
3286 3 7.18149 7.18149 10.7722 -6.21714
3537 1 8.97686 8.97686 10.7722 -8.14977
3787 1 8.97686 7.18149 12.5676 -8.2737
537 1 12.5676 8.97686 10.7722 -8.3313
788 3 12.5676 7.18149 12.5676 -6.37167
1287 2 12.5676 7.18149 8.97686 -7.06425
1789 3 12.5676 10.7722 12.5676 -6.37532
3789 3 12.5676 10.7722 8.97686 -6.42361
258 1 16.1583 10.7722 8.97686 -8.05758
145 3 17.9537 8.97686 8.97686 -6.24448
1395 3 17.9537 7.18149 10.7722 -6.43282
1288 2 14.363 7.18149 10.7722 -6.99816
1538 2 16.1583 8.97686 10.7722 -6.97265
1788 3 16.1583 7.18149 12.5676 -6.42467
1787 2 16.1583 7.18149 8.97686 -6.96736
2145 2 17.9537 8.97686 12.5676 -6.92786
2038 1 14.363 8.97686 12.5676 -8.36694
2037 1 14.363 8.97686 8.97686 -8.17444
2256 1 17.9537 10.7722 10.7722 -8.25938
2288 3 14.363 10.7722 10.7722 -6.22931
2788 1 16.1583 10.7722 12.5676 -8.18249
22 3 3.59074 12.5676 12.5676 -6.47338
2538 2 1.79537 12.5676 10.7722 -7.00032
2537 1 0 12.5676 8.97686 -7.93518
3038 2 3.59074 12.5676 8.97686 -7.01829
3037 3 0 12.5676 12.5676 -6.39453
3538 3 5.38611 12.5676 10.7722 -6.34984
23 2 10.7722 12.5676 8.97686 -7.12945
538 2 8.97686 12.5676 10.7722 -6.96485
1038 1 7.18149 12.5676 12.5676 -8.22703
2039 3 10.7722 12.5676 12.5676 -6.41187
3539 2 7.18149 12.5676 8.97686 -7.00078
1539 1 12.5676 12.5676 10.7722 -8.30832
539 1 14.363 12.5676 8.97686 -8.22211
2662 3 17.9537 12.5676 8.97686 -6.15206
2539 1 16.1583 12.5676 10.7722 -8.15245
3162 3 17.9537 12.5676 12.5676 -6.33085
3039 2 14.363 12.5676 12.5676 -6.98259
259 3 3.59074 14.363 10.7722 -6.53108
24 3 0 16.1583 12.5676 -6.40859
829 3 1.79537 17.9537 8.97686 -6.38069
790 1 1.79537 14.363 8.97686 -8.23863
1040 2 3.59074 16.1583 12.5676 -6.98425
1039 1 0 16.1583 8.97686 -8.19555
1251 3 0 17.9537 10.7722 -6.34862
1540 2 3.59074 16.1583 8.97686 -6.91879
1845 1 1.79537 17.9537 12.5676 -8.25091
2344 2 3.59074 17.9537 10.7722 -7.05712
3289 1 0 14.363 10.7722 -8.38139
3540 2 1.79537 16.1583 10.7722 -6.97147
3790 3 1.79537 14.363 12.5676 -6.5292
540 3 5.38611 16.1583 10.7722 -6.61802
791 1 5.38611 14.363 12.5676 -8.47121
1252 3 5.38611 17.9537 8.97686 -6.54281
1290 3 5.38611 14.363 8.97686 -6.50408
2844 2 5.38611 17.9537 12.5676 -7.08937
330 3 10.7722 17.9537 10.7722 -6.44142
1291 3 7.18149 14.363 10.7722 -6.36356
1541 1 8.97686 16.1583 10.7722 -8.29407
1846 1 8.97686 17.9537 8.97686 -8.2469
1791 1 8.97686 14.363 12.5676 -8.38782
1790 1 8.97686 14.363 8.97686 -8.23863
2041 3 7.18149 16.1583 12.5676 -6.49992
2040 3 7.18149 16.1583 8.97686 -6.34797
2290 1 10.7722 14.363 10.7722 -8.14079
2540 2 10.7722 16.1583 8.97686 -7.0607
3040 3 10.7722 16.1583 12.5676 -6.44037
3344 2 7.18149 17.9537 10.7722 -7.02022
3845 2 8.97686 17.9537 12.5676 -6.92988
830 2 12.5676 17.9537 12.5676 -7.02425
2345 3 12.5676 17.9537 8.97686 -6.63532
2289 2 12.5676 14.363 8.97686 -7.02421
2541 3 12.5676 16.1583 10.7722 -6.5759
2789 1 12.5676 14.363 12.5676 -8.37475
149 2 17.9537 16.1583 12.5676 -7.00767
25 2 14.363 16.1583 12.5676 -7.1488
1149 2 17.9537 16.1583 8.97686 -6.98707
1253 2 14.363 17.9537 10.7722 -7.08246
1454 1 17.9537 17.9537 10.7722 -8.2702
1847 3 16.1583 17.9537 12.5676 -6.56991
2845 3 16.1583 17.9537 8.97686 -6.63319
2790 3 16.1583 14.363 8.97686 -6.35575
3041 1 14.363 16.1583 8.97686 -8.52126
3414 1 17.9537 14.363 10.7722 -8.33028
3290 2 14.363 14.363 10.7722 -7.04842
3541 2 16.1583 16.1583 10.7722 -7.03111
3791 2 16.1583 14.363 12.5676 -7.07063
260 3 0 0 14.363 -6.35451
541 2 1.79537 1.79537 14.363 -6.93887
792 1 1.79537 0 16.1583 -8.19209
1041 2 0 1.79537 16.1583 -7.00735
1298 1 0 0 17.9537 -8.11699
1293 3 0 3.59074 14.363 -6.61314
1292 3 3.59074 0 14.363 -6.42113
1548 1 1.79537 1.79537 17.9537 -8.36822
1793 3 1.79537 3.59074 16.1583 -6.64851
2042 3 3.59074 1.79537 16.1583 -6.49993
2300 2 0 3.59074 17.9537 -6.95718
2298 2 3.59074 0 17.9537 -6.99676
2292 2 3.59074 3.59074 14.363 -7.11869
3300 1 3.59074 3.59074 17.9537 -8.46018
1542 1 5.38611 1.79537 14.363 -8.51444
1792 2 5.38611 0 16.1583 -7.02519
2549 2 5.38611 1.79537 17.9537 -6.94629
2792 3 5.38611 3.59074 16.1583 -6.45233
262 2 10.7722 3.59074 14.363 -7.02186
286 1 7.18149 3.59074 17.9537 -8.11256
284 3 10.7722 0 17.9537 -6.40275
26 3 10.7722 1.79537 16.1583 -6.42369
1302 3 10.7722 3.59074 17.9537 -6.41175
2291 2 7.18149 0 14.363 -6.99886
2542 3 8.97686 1.79537 14.363 -6.62286
2791 2 8.97686 0 16.1583 -6.97115
3042 3 7.18149 1.79537 16.1583 -6.5544
3298 3 7.18149 0 17.9537 -6.63441
3292 2 7.18149 3.59074 14.363 -6.98773
3291 1 10.7722 0 14.363 -8.23492
3549 1 8.97686 1.79537 17.9537 -8.34898
3793 2 8.97686 3.59074 16.1583 -7.0292
502 3 12.5676 1.79537 17.9537 -6.3088
794 3 12.5676 3.59074 16.1583 -6.33417
3542 1 12.5676 1.79537 14.363 -8.24167
3792 1 12.5676 0 16.1583 -8.05458
261 1 14.363 0 14.363 -8.23931
401 3 17.9537 0 14.363 -6.45994
542 1 16.1583 1.79537 14.363 -8.30609
793 3 16.1583 0 16.1583 -6.28991
1151 2 17.9537 1.79537 16.1583 -6.98562
1042 1 14.363 1.79537 16.1583 -8.10556
1407 2 17.9537 0 17.9537 -6.9768
1402 2 17.9537 3.59074 14.363 -6.94292
1300 1 14.363 0 17.9537 -8.07754
1294 1 14.363 3.59074 14.363 -8.18668
1550 1 16.1583 1.79537 17.9537 -8.38053
1794 3 16.1583 3.59074 16.1583 -6.3145
2410 2 17.9537 3.59074 17.9537 -7.00753
2302 3 14.363 3.59074 17.9537 -6.29156
1543 2 1.79537 5.38611 14.363 -7.08214
2043 3 0 5.38611 16.1583 -6.52746
2551 2 1.79537 5.38611 17.9537 -7.01156
3043 2 3.59074 5.38611 16.1583 -7.08122
2543 3 5.38611 5.38611 14.363 -6.70213
3551 1 5.38611 5.38611 17.9537 -8.21655
27 1 7.18149 5.38611 16.1583 -8.24141
504 1 8.97686 5.38611 17.9537 -8.40233
1043 3 10.7722 5.38611 16.1583 -6.55042
3543 2 8.97686 5.38611 14.363 -6.96437
543 2 12.5676 5.38611 14.363 -6.89834
1552 1 12.5676 5.38611 17.9537 -8.67241
1544 1 16.1583 5.38611 14.363 -8.35156
2152 2 17.9537 5.38611 16.1583 -7.1042
2044 1 14.363 5.38611 16.1583 -8.30656
2553 2 16.1583 5.38611 17.9537 -6.88781
264 2 3.59074 10.7722 14.363 -7.01573
290 1 0 10.7722 17.9537 -8.34038
288 2 3.59074 7.18149 17.9537 -6.9669
28 1 3.59074 8.97686 16.1583 -8.21203
1306 1 3.59074 10.7722 17.9537 -8.33588
2293 2 0 7.18149 14.363 -6.97747
2544 1 1.79537 8.97686 14.363 -8.05652
2793 1 1.79537 7.18149 16.1583 -8.13426
3044 1 0 8.97686 16.1583 -8.00781
3302 1 0 7.18149 17.9537 -8.28287
3294 1 0 10.7722 14.363 -8.32149
3293 2 3.59074 7.18149 14.363 -7.16737
3553 2 1.79537 8.97686 17.9537 -7.00347
3795 3 1.79537 10.7722 16.1583 -6.29112
506 3 5.38611 8.97686 17.9537 -6.47483
796 2 5.38611 10.7722 16.1583 -7.02528
3544 2 5.38611 8.97686 14.363 -7.13265
3794 2 5.38611 7.18149 16.1583 -7.06366
263 2 7.18149 7.18149 14.363 -7.06271
544 2 8.97686 8.97686 14.363 -6.87858
795 3 8.97686 7.18149 16.1583 -6.40287
1044 1 7.18149 8.97686 16.1583 -8.4221
1304 1 7.18149 7.18149 17.9537 -8.21144
1296 3 7.18149 10.7722 14.363 -6.43931
1295 3 10.7722 7.18149 14.363 -6.39138
1554 1 8.97686 8.97686 17.9537 -8.36836
1796 3 8.97686 10.7722 16.1583 -6.43589
2045 1 10.7722 8.97686 16.1583 -8.58894
2306 3 7.18149 10.7722 17.9537 -6.52223
2304 2 10.7722 7.18149 17.9537 -6.91294
2295 3 10.7722 10.7722 14.363 -6.43572
3306 2 10.7722 10.7722 17.9537 -6.94108
1545 3 12.5676 8.97686 14.363 -6.33679
1795 3 12.5676 7.18149 16.1583 -6.45266
2555 2 12.5676 8.97686 17.9537 -6.92893
2795 3 12.5676 10.7722 16.1583 -6.52407
415 2 17.9537 10.7722 17.9537 -6.92727
292 3 14.363 10.7722 17.9537 -6.62497
2262 1 17.9537 7.18149 14.363 -8.07834
2294 3 14.363 7.18149 14.363 -6.3493
2545 1 16.1583 8.97686 14.363 -8.27373
2794 1 16.1583 7.18149 16.1583 -8.13708
3169 3 17.9537 8.97686 16.1583 -6.24466
3045 3 14.363 8.97686 16.1583 -6.43563
3427 1 17.9537 7.18149 17.9537 -8.21434
3419 3 17.9537 10.7722 14.363 -6.33713
3304 3 14.363 7.18149 17.9537 -6.50739
3295 1 14.363 10.7722 14.363 -8.44151
3555 3 16.1583 8.97686 17.9537 -6.52847
3796 3 16.1583 10.7722 16.1583 -6.52092
29 2 0 12.5676 16.1583 -6.91123
508 1 1.79537 12.5676 17.9537 -8.19001
1045 3 3.59074 12.5676 16.1583 -6.42767
3545 3 1.79537 12.5676 14.363 -6.4097
545 2 5.38611 12.5676 14.363 -7.00244
1556 2 5.38611 12.5676 17.9537 -6.96433
1546 3 8.97686 12.5676 14.363 -6.4228
2046 1 7.18149 12.5676 16.1583 -8.55242
2557 3 8.97686 12.5676 17.9537 -6.58186
3046 3 10.7722 12.5676 16.1583 -6.65045
2546 2 12.5676 12.5676 14.363 -7.00371
3557 1 12.5676 12.5676 17.9537 -8.41813
154 3 17.9537 12.5676 16.1583 -6.56034
30 3 14.363 12.5676 16.1583 -6.64747
510 2 16.1583 12.5676 17.9537 -7.10967
3546 3 16.1583 12.5676 14.363 -6.59024
265 2 0 14.363 14.363 -6.89747
346 1 3.59074 17.9537 17.9537 -8.2599
546 2 1.79537 16.1583 14.363 -6.99156
797 1 1.79537 14.363 16.1583 -8.10997
1046 1 0 16.1583 16.1583 -8.30529
1308 1 0 14.363 17.9537 -8.28063
1297 1 3.59074 14.363 14.363 -8.38252
1558 3 1.79537 16.1583 17.9537 -6.33119
2047 1 3.59074 16.1583 16.1583 -8.34628
2353 1 0 17.9537 14.363 -8.33985
2308 3 3.59074 14.363 17.9537 -6.38547
2853 3 1.79537 17.9537 16.1583 -6.3095
3359 3 0 17.9537 17.9537 -6.31447
3353 1 3.59074 17.9537 14.363 -8.46007
1547 3 5.38611 16.1583 14.363 -6.38358
1797 3 5.38611 14.363 16.1583 -6.32298
2559 3 5.38611 16.1583 17.9537 -6.32665
3854 3 5.38611 17.9537 16.1583 -6.30963
339 2 7.18149 17.9537 14.363 -7.01181
294 2 10.7722 14.363 17.9537 -7.02964
31 2 10.7722 16.1583 16.1583 -7.13414
839 1 8.97686 17.9537 16.1583 -8.09589
1261 1 10.7722 17.9537 14.363 -8.21144
1346 3 7.18149 17.9537 17.9537 -6.3441
2361 2 10.7722 17.9537 17.9537 -7.12236
2296 3 7.18149 14.363 14.363 -6.37552
2547 2 8.97686 16.1583 14.363 -6.99698
2796 2 8.97686 14.363 16.1583 -7.01561
3047 1 7.18149 16.1583 16.1583 -8.41381
3308 1 7.18149 14.363 17.9537 -8.28019
3296 2 10.7722 14.363 14.363 -7.05665
3559 1 8.97686 16.1583 17.9537 -8.24981
512 3 12.5676 16.1583 17.9537 -6.76814
1855 3 12.5676 17.9537 16.1583 -6.59936
3547 2 12.5676 16.1583 14.363 -7.13462
3797 2 12.5676 14.363 16.1583 -7.15222
266 2 14.363 14.363 14.363 -7.16472
406 3 17.9537 14.363 14.363 -6.63295
547 3 16.1583 16.1583 14.363 -6.73546
798 2 16.1583 14.363 16.1583 -7.1614
1156 2 17.9537 16.1583 16.1583 -7.04008
1047 2 14.363 16.1583 16.1583 -7.1728
1417 3 17.9537 14.363 17.9537 -6.60316
1310 2 14.363 14.363 17.9537 -7.18367
1560 2 16.1583 16.1583 17.9537 -7.1148
2463 3 17.9537 17.9537 14.363 -6.5611
2354 3 14.363 17.9537 14.363 -6.53721
2854 1 16.1583 17.9537 16.1583 -8.38774
3469 2 17.9537 17.9537 17.9537 -7.03903
3361 2 14.363 17.9537 17.9537 -7.12252
285 2 3.59074 3.59074 21.5445 -7.05592
1798 3 1.79537 0 19.7491 -6.48188
2048 3 0 1.79537 19.7491 -6.48406
2297 2 0 0 21.5445 -7.00902
2548 3 1.79537 1.79537 21.5445 -6.60965
2798 3 1.79537 3.59074 19.7491 -6.64417
3048 2 3.59074 1.79537 19.7491 -6.98309
3299 2 0 3.59074 21.5445 -7.0176
3297 3 3.59074 0 21.5445 -6.4995
2797 3 5.38611 0 19.7491 -6.57407
3548 1 5.38611 1.79537 21.5445 -8.43241
3799 2 5.38611 3.59074 19.7491 -7.05573
501 1 8.97686 1.79537 21.5445 -8.10424
32 1 7.18149 1.79537 19.7491 -8.23682
283 3 7.18149 0 21.5445 -6.48298
800 2 8.97686 3.59074 19.7491 -7.04569
1048 1 10.7722 1.79537 19.7491 -8.40369
1301 3 7.18149 3.59074 21.5445 -6.31428
1299 2 10.7722 0 21.5445 -7.01413
2301 2 10.7722 3.59074 21.5445 -7.06286
3798 2 8.97686 0 19.7491 -7.02533
799 3 12.5676 0 19.7491 -6.31294
1549 3 12.5676 1.79537 21.5445 -6.39937
1800 2 12.5676 3.59074 19.7491 -6.94865
1799 3 16.1583 0 19.7491 -6.27479
2157 2 17.9537 1.79537 19.7491 -6.93305
2049 1 14.363 1.79537 19.7491 -8.4175
2407 3 17.9537 0 21.5445 -6.38289
2299 2 14.363 0 21.5445 -6.82607
2550 3 16.1583 1.79537 21.5445 -6.50796
2799 3 16.1583 3.59074 19.7491 -6.41818
3424 2 17.9537 3.59074 21.5445 -6.89299
3301 1 14.363 3.59074 21.5445 -8.34089
33 3 3.59074 5.38611 19.7491 -6.51369
3049 2 0 5.38611 19.7491 -7.05253
3550 2 1.79537 5.38611 21.5445 -7.08888
503 1 5.38611 5.38611 21.5445 -8.47852
1049 2 7.18149 5.38611 19.7491 -7.00069
1551 2 8.97686 5.38611 21.5445 -7.02485
2050 3 10.7722 5.38611 19.7491 -6.57812
2552 2 12.5676 5.38611 21.5445 -6.99139
3174 3 17.9537 5.38611 19.7491 -6.36857
3050 3 14.363 5.38611 19.7491 -6.42129
3552 1 16.1583 5.38611 21.5445 -8.36604
505 3 1.79537 8.97686 21.5445 -6.42195
34 2 0 8.97686 19.7491 -6.85641
287 1 0 7.18149 21.5445 -8.5946
802 3 1.79537 10.7722 19.7491 -6.25007
1050 3 3.59074 8.97686 19.7491 -6.47262
1305 1 0 10.7722 21.5445 -8.37687
1303 2 3.59074 7.18149 21.5445 -7.02952
2305 1 3.59074 10.7722 21.5445 -8.49492
3800 1 1.79537 7.18149 19.7491 -8.33493
801 3 5.38611 7.18149 19.7491 -6.51743
1553 3 5.38611 8.97686 21.5445 -6.60692
1802 2 5.38611 10.7722 19.7491 -7.02449
291 3 10.7722 10.7722 21.5445 -6.43082
1801 3 8.97686 7.18149 19.7491 -6.48356
2051 2 7.18149 8.97686 19.7491 -6.96165
2303 2 7.18149 7.18149 21.5445 -6.97758
2554 1 8.97686 8.97686 21.5445 -8.53978
2801 3 8.97686 10.7722 19.7491 -6.46188
3051 2 10.7722 8.97686 19.7491 -7.00628
3305 1 7.18149 10.7722 21.5445 -8.276
3303 2 10.7722 7.18149 21.5445 -7.01152
2800 3 12.5676 7.18149 19.7491 -6.58348
3554 3 12.5676 8.97686 21.5445 -6.45759
3802 1 12.5676 10.7722 19.7491 -8.4151
507 2 16.1583 8.97686 21.5445 -7.03886
159 2 17.9537 8.97686 19.7491 -7.03813
35 2 14.363 8.97686 19.7491 -7.00384
412 3 17.9537 7.18149 21.5445 -6.39244
289 1 14.363 7.18149 21.5445 -8.26718
803 3 16.1583 10.7722 19.7491 -6.76391
1414 3 17.9537 10.7722 21.5445 -6.58985
1307 2 14.363 10.7722 21.5445 -7.05798
3801 3 16.1583 7.18149 19.7491 -6.48232
1051 3 0 12.5676 19.7491 -6.29314
1555 1 1.79537 12.5676 21.5445 -8.30703
2052 1 3.59074 12.5676 19.7491 -8.24073
2556 2 5.38611 12.5676 21.5445 -6.93102
36 3 10.7722 12.5676 19.7491 -6.46061
3052 2 7.18149 12.5676 19.7491 -6.95575
3556 1 8.97686 12.5676 21.5445 -8.36921
509 2 12.5676 12.5676 21.5445 -6.9742
1161 3 17.9537 12.5676 19.7491 -6.57193
1052 2 14.363 12.5676 19.7491 -7.1372
1557 2 16.1583 12.5676 21.5445 -7.13958
345 3 0 17.9537 21.5445 -6.32555
1345 3 3.59074 17.9537 21.5445 -6.30909
1803 3 1.79537 14.363 19.7491 -6.35818
2053 2 0 16.1583 19.7491 -6.88602
2307 3 0 14.363 21.5445 -6.44186
2558 3 1.79537 16.1583 21.5445 -6.44759
3053 3 3.59074 16.1583 19.7491 -6.40782
3307 3 3.59074 14.363 21.5445 -6.33198
3860 3 1.79537 17.9537 19.7491 -6.37796
845 1 5.38611 17.9537 19.7491 -8.38983
2802 2 5.38611 14.363 19.7491 -6.98074
3558 1 5.38611 16.1583 21.5445 -8.34476
511 1 8.97686 16.1583 21.5445 -8.26984
37 2 7.18149 16.1583 19.7491 -6.92977
293 3 7.18149 14.363 21.5445 -6.34126
1053 2 10.7722 16.1583 19.7491 -7.06929
1309 2 10.7722 14.363 21.5445 -6.99481
1861 2 8.97686 17.9537 19.7491 -7.03914
2360 3 7.18149 17.9537 21.5445 -6.39024
3360 1 10.7722 17.9537 21.5445 -8.29499
3803 3 8.97686 14.363 19.7491 -6.43802
804 1 12.5676 14.363 19.7491 -8.29525
1559 1 12.5676 16.1583 21.5445 -8.13286
2860 2 12.5676 17.9537 19.7491 -7.13383
470 2 17.9537 17.9537 21.5445 -6.97458
347 1 14.363 17.9537 21.5445 -8.12426
1804 2 16.1583 14.363 19.7491 -7.10482
2162 1 17.9537 16.1583 19.7491 -8.31555
2054 2 14.363 16.1583 19.7491 -7.1397
2417 3 17.9537 14.363 21.5445 -6.57294
2309 2 14.363 14.363 21.5445 -7.08069
2560 1 16.1583 16.1583 21.5445 -8.2773
3861 1 16.1583 17.9537 19.7491 -8.27655
38 2 3.59074 1.79537 23.3398 -6.91931