ITEM: TIMESTEP
0
ITEM: NUMBER OF ATOMS
4000
ITEM: BOX BOUNDS pp pp pp
0.0000000000000000e+00 3.5576430000000002e+01
0.0000000000000000e+00 3.5576430000000002e+01
0.0000000000000000e+00 3.5576430000000002e+01
ITEM: ATOMS id type x y z c_peratom
267 3 0 0 0 -6.33679
516 3 1.77882 1.77882 0 -6.29388
767 1 1.77882 0 1.77882 -8.51202
1016 1 0 1.77882 1.77882 -8.52231
1267 1 0 0 3.55764 -8.31295
1268 3 3.55764 0 0 -6.28335
1270 3 0 3.55764 0 -6.51398
1517 2 1.77882 1.77882 3.55764 -6.97015
1768 3 1.77882 3.55764 1.77882 -6.57571
2017 3 3.55764 1.77882 1.77882 -6.28172
2266 2 3.55764 0 3.55764 -6.97025
2268 3 0 3.55764 3.55764 -6.34297
2269 1 3.55764 3.55764 0 -8.43923
3268 2 3.55764 3.55764 3.55764 -6.9907
1518 3 5.33646 1.77882 0 -6.31686
1767 1 5.33646 0 1.77882 -8.50854
2517 1 5.33646 1.77882 3.55764 -8.04358
2767 1 5.33646 3.55764 1.77882 -8.42608
1 1 10.6729 1.77882 1.77882 -8.48695
268 3 10.6729 0 3.55764 -6.31399
270 1 7.11529 3.55764 3.55764 -8.45444
271 2 10.6729 3.55764 0 -7.03668
1271 2 10.6729 3.55764 3.55764 -6.98968
2267 3 7.11529 0 0 -6.49915
2518 3 8.89411 1.77882 0 -6.5536
2766 1 8.89411 0 1.77882 -8.56571
3017 2 7.11529 1.77882 1.77882 -6.89367
3266 1 7.11529 0 3.55764 -8.3075
3269 3 7.11529 3.55764 0 -6.40895
3267 2 10.6729 0 0 -6.95176
3517 3 8.89411 1.77882 3.55764 -6.32083
3768 2 8.89411 3.55764 1.77882 -6.95197
517 1 12.4518 1.77882 3.55764 -8.39376
769 2 12.4518 3.55764 1.77882 -7.03433
3518 2 12.4518 1.77882 0 -6.95172
3767 3 12.4518 0 1.77882 -6.32173
269 3 14.2306 0 0 -6.39778
376 3 17.7882 0 0 -6.34077
518 1 16.0094 1.77882 0 -8.58402
768 3 16.0094 0 1.77882 -6.38819
1017 2 14.2306 1.77882 1.77882 -6.9203
1126 1 17.7882 1.77882 1.77882 -8.47965
1379 2 17.7882 3.55764 0 -6.92805
1377 3 17.7882 0 3.55764 -6.29415
1269 1 14.2306 0 3.55764 -8.25629
1272 3 14.2306 3.55764 0 -6.27207
1519 1 16.0094 1.77882 3.55764 -8.20574
1769 1 16.0094 3.55764 1.77882 -8.27939
2270 2 14.2306 3.55764 3.55764 -7.06146
2394 3 17.7882 3.55764 3.55764 -6.19972
1520 3 1.77882 5.33646 0 -6.49324
2018 2 0 5.33646 1.77882 -6.91228
2519 2 1.77882 5.33646 3.55764 -6.97782
3018 2 3.55764 5.33646 1.77882 -7.0064
2520 1 5.33646 5.33646 0 -8.36705
3519 3 5.33646 5.33646 3.55764 -6.47376
2 3 7.11529 5.33646 1.77882 -6.38784
519 2 8.89411 5.33646 3.55764 -6.96379
1018 1 10.6729 5.33646 1.77882 -8.51079
3520 2 8.89411 5.33646 0 -6.90613
520 2 12.4518 5.33646 0 -6.95842
1521 2 12.4518 5.33646 3.55764 -7.03365
1522 1 16.0094 5.33646 0 -8.27431
2002 3 17.7882 5.33646 1.77882 -6.2557
2019 1 14.2306 5.33646 1.77882 -8.25191
2521 2 16.0094 5.33646 3.55764 -6.88531
3 3 3.55764 8.89411 1.77882 -6.3419
272 2 3.55764 7.11529 3.55764 -7.02816
274 2 0 10.6729 3.55764 -6.98957
275 3 3.55764 10.6729 0 -6.50863
1275 3 3.55764 10.6729 3.55764 -6.30913
2271 2 0 7.11529 0 -6.95894
2522 2 1.77882 8.89411 0 -6.95244
2768 1 1.77882 7.11529 1.77882 -8.37956
3019 1 0 8.89411 1.77882 -8.33708
3273 3 0 10.6729 0 -6.55133
3271 2 3.55764 7.11529 0 -6.98251
3270 1 0 7.11529 3.55764 -8.30945
3521 1 1.77882 8.89411 3.55764 -8.20326
3770 1 1.77882 10.6729 1.77882 -8.57472
521 1 5.33646 8.89411 3.55764 -8.73502
771 2 5.33646 10.6729 1.77882 -6.85441
3522 1 5.33646 8.89411 0 -8.77283
3769 2 5.33646 7.11529 1.77882 -6.90157
273 3 7.11529 7.11529 0 -6.31005
522 1 8.89411 8.89411 0 -8.29918
770 1 8.89411 7.11529 1.77882 -8.59253
1019 3 7.11529 8.89411 1.77882 -6.35206
1276 1 7.11529 10.6729 0 -8.37911
1274 3 10.6729 7.11529 0 -6.24626
1273 3 7.11529 7.11529 3.55764 -6.4081
1523 2 8.89411 8.89411 3.55764 -6.8886
1771 2 8.89411 10.6729 1.77882 -6.9831
2020 1 10.6729 8.89411 1.77882 -8.19872
2272 3 10.6729 7.11529 3.55764 -6.2083
2275 1 10.6729 10.6729 0 -8.24783
2274 3 7.11529 10.6729 3.55764 -6.48963
3274 2 10.6729 10.6729 3.55764 -6.91019
1524 1 12.4518 8.89411 0 -8.12579
1770 2 12.4518 7.11529 1.77882 -6.92813
2523 2 12.4518 8.89411 3.55764 -6.93614
2770 1 12.4518 10.6729 1.77882 -8.08909
384 1 17.7882 10.6729 3.55764 -8.56214
276 1 14.2306 10.6729 3.55764 -8.30802
2273 1 14.2306 7.11529 0 -8.19438
2396 3 17.7882 7.11529 0 -6.21528
2524 2 16.0094 8.89411 0 -6.94641
2769 1 16.0094 7.11529 1.77882 -8.65437
3144 3 17.7882 8.89411 1.77882 -6.38011
3020 3 14.2306 8.89411 1.77882 -6.28904
3398 2 17.7882 10.6729 0 -7.05603
3396 3 17.7882 7.11529 3.55764 -6.20026
3275 1 14.2306 10.6729 0 -8.26807
3272 2 14.2306 7.11529 3.55764 -6.96757
3523 3 16.0094 8.89411 3.55764 -6.24726
3771 2 16.0094 10.6729 1.77882 -6.967
4 2 0 12.4518 1.77882 -7.05061
523 2 1.77882 12.4518 3.55764 -6.90235
1020 3 3.55764 12.4518 1.77882 -6.28934
3524 2 1.77882 12.4518 0 -6.98127
524 3 5.33646 12.4518 0 -6.30668
1525 1 5.33646 12.4518 3.55764 -8.53352
1526 2 8.89411 12.4518 0 -6.94077
2021 2 7.11529 12.4518 1.77882 -6.92867
2525 3 8.89411 12.4518 3.55764 -6.39702
3021 3 10.6729 12.4518 1.77882 -6.29425
2526 2 12.4518 12.4518 0 -6.94906
3525 1 12.4518 12.4518 3.55764 -8.22976
5 1 14.2306 12.4518 1.77882 -8.20679
129 2 17.7882 12.4518 1.77882 -7.00631
525 2 16.0094 12.4518 3.55764 -6.96941
3526 2 16.0094 12.4518 0 -7.00389
316 1 3.55764 17.7882 3.55764 -8.31607
277 1 0 14.2306 0 -8.42101
526 1 1.77882 16.0094 0 -8.23041
772 1 1.77882 14.2306 1.77882 -8.48961
1021 2 0 16.0094 1.77882 -7.0906
1278 1 3.55764 14.2306 0 -8.54307
1277 2 0 14.2306 3.55764 -7.0097
1527 3 1.77882 16.0094 3.55764 -6.33019
2022 2 3.55764 16.0094 1.77882 -6.93753
2328 2 0 17.7882 0 -7.02687
2276 3 3.55764 14.2306 3.55764 -6.32161
2828 2 1.77882 17.7882 1.77882 -7.03773
3330 2 3.55764 17.7882 0 -7.00268
3329 2 0 17.7882 3.55764 -6.95557
1528 3 5.33646 16.0094 0 -6.26159
1772 1 5.33646 14.2306 1.77882 -8.33949
2527 3 5.33646 16.0094 3.55764 -6.1749
3830 2 5.33646 17.7882 1.77882 -6.92302
6 1 10.6729 16.0094 1.77882 -8.31685
317 3 7.11529 17.7882 0 -6.47194
278 1 10.6729 14.2306 3.55764 -8.4738
815 2 8.89411 17.7882 1.77882 -6.99475
1333 2 10.6729 17.7882 0 -6.96443
1332 1 7.11529 17.7882 3.55764 -8.19081
2331 2 10.6729 17.7882 3.55764 -6.88199
2277 1 7.11529 14.2306 0 -8.45538
2528 3 8.89411 16.0094 0 -6.29739
2771 3 8.89411 14.2306 1.77882 -6.18198
3022 1 7.11529 16.0094 1.77882 -8.43942
3277 1 10.6729 14.2306 0 -8.60762
3276 1 7.11529 14.2306 3.55764 -8.28498
3527 2 8.89411 16.0094 3.55764 -6.90272
527 1 12.4518 16.0094 3.55764 -8.34915
1831 3 12.4518 17.7882 1.77882 -6.38083
3528 1 12.4518 16.0094 0 -8.26065
3772 3 12.4518 14.2306 1.77882 -6.13732
386 3 17.7882 14.2306 0 -6.48231
279 3 14.2306 14.2306 0 -6.20943
528 2 16.0094 16.0094 0 -6.89024
773 1 16.0094 14.2306 1.77882 -8.47284
1131 3 17.7882 16.0094 1.77882 -6.48005
1022 1 14.2306 16.0094 1.77882 -8.2915
1387 2 17.7882 14.2306 3.55764 -6.925
1279 2 14.2306 14.2306 3.55764 -6.88737
1529 3 16.0094 16.0094 3.55764 -6.38255
2438 3 17.7882 17.7882 0 -6.50963
2332 2 14.2306 17.7882 0 -6.97549
2830 1 16.0094 17.7882 1.77882 -8.69995
3455 3 17.7882 17.7882 3.55764 -6.41199
3333 2 14.2306 17.7882 3.55764 -6.91941
775 3 0 3.55764 7.11529 -6.43274
1280 3 3.55764 3.55764 7.11529 -6.29473
1773 2 1.77882 0 5.33646 -6.95818
2023 2 0 1.77882 5.33646 -6.95277
2278 1 0 0 7.11529 -8.237
2529 2 1.77882 1.77882 7.11529 -6.94948
2774 1 1.77882 3.55764 5.33646 -8.37881
2773 3 3.55764 0 7.11529 -6.44895
3023 1 3.55764 1.77882 5.33646 -8.43217
2772 3 5.33646 0 5.33646 -6.32404
3024 3 5.33646 1.77882 7.11529 -6.31542
3775 1 5.33646 3.55764 5.33646 -8.22018
7 1 7.11529 1.77882 5.33646 -8.20132
776 3 8.89411 3.55764 5.33646 -6.2356
1023 3 10.6729 1.77882 5.33646 -6.46004
1775 1 7.11529 3.55764 7.11529 -8.22043
2279 1 10.6729 3.55764 7.11529 -8.62651
3278 2 7.11529 0 7.11529 -6.9716
3529 1 8.89411 1.77882 7.11529 -8.30349
3774 2 10.6729 0 7.11529 -6.9655
3773 2 8.89411 0 5.33646 -6.89831
8 3 12.4518 1.77882 7.11529 -6.50055
774 2 12.4518 0 5.33646 -6.92617
1776 2 12.4518 3.55764 5.33646 -6.9542
280 2 14.2306 0 7.11529 -6.93598
529 3 16.0094 1.77882 7.11529 -6.43193
884 1 17.7882 3.55764 7.11529 -8.54239
1774 1 16.0094 0 5.33646 -8.43907
2024 1 14.2306 1.77882 5.33646 -8.32289
2007 2 17.7882 1.77882 5.33646 -6.82725
2403 3 17.7882 0 7.11529 -6.37515
2776 3 14.2306 3.55764 7.11529 -6.47911
2775 1 16.0094 3.55764 5.33646 -8.37323
9 2 3.55764 5.33646 5.33646 -6.93765
1024 1 1.77882 5.33646 7.11529 -8.50398
3025 1 0 5.33646 5.33646 -8.43441
1530 1 5.33646 5.33646 7.11529 -8.39712
1025 3 7.11529 5.33646 5.33646 -6.32095
2026 1 10.6729 5.33646 5.33646 -8.32141
2025 2 8.89411 5.33646 7.11529 -6.86512
2530 2 12.4518 5.33646 7.11529 -6.98785
3150 3 17.7882 5.33646 5.33646 -6.15116
3027 3 16.0094 5.33646 7.11529 -6.30113
3026 1 14.2306 5.33646 5.33646 -8.38744
10 2 0 8.89411 5.33646 -6.94635
779 1 1.77882 10.6729 5.33646 -8.41099
1026 1 3.55764 8.89411 5.33646 -8.48822
1778 1 0 10.6729 7.11529 -8.3448
2280 3 3.55764 10.6729 7.11529 -6.5478
3279 2 0 7.11529 7.11529 -6.98395
3530 3 1.77882 8.89411 7.11529 -6.43307
3777 3 3.55764 7.11529 7.11529 -6.31864
3776 3 1.77882 7.11529 5.33646 -6.33344
11 2 5.33646 8.89411 7.11529 -6.99882
777 2 5.33646 7.11529 5.33646 -6.92166
1779 2 5.33646 10.6729 5.33646 -7.01084
281 3 7.11529 7.11529 7.11529 -6.37604
530 1 8.89411 8.89411 7.11529 -8.38445
778 2 10.6729 7.11529 7.11529 -7.04772
1777 1 8.89411 7.11529 5.33646 -8.47671
2027 3 7.11529 8.89411 5.33646 -6.44174
2779 2 7.11529 10.6729 7.11529 -7.08005
2778 1 8.89411 10.6729 5.33646 -8.4712
3028 1 10.6729 8.89411 5.33646 -8.22753
3280 2 10.6729 10.6729 7.11529 -6.99137
1027 1 12.4518 8.89411 7.11529 -8.24515
2777 1 12.4518 7.11529 5.33646 -8.18904
3779 3 12.4518 10.6729 5.33646 -6.0776
12 1 14.2306 8.89411 5.33646 -8.19523
135 3 17.7882 8.89411 5.33646 -6.12361
780 2 16.0094 10.6729 5.33646 -6.85638
1281 3 14.2306 7.11529 7.11529 -6.28207
1531 3 16.0094 8.89411 7.11529 -6.10452
1887 1 17.7882 10.6729 7.11529 -8.51213
3404 1 17.7882 7.11529 7.11529 -8.57977
3780 1 14.2306 10.6729 7.11529 -8.17711
3778 1 16.0094 7.11529 5.33646 -8.55742
1028 3 0 12.4518 5.33646 -6.38442
2029 2 3.55764 12.4518 5.33646 -6.98768
2028 2 1.77882 12.4518 7.11529 -6.94611
2531 2 5.33646 12.4518 7.11529 -7.09361
13 1 10.6729 12.4518 5.33646 -8.19939
3030 3 8.89411 12.4518 7.11529 -6.23521
3029 2 7.11529 12.4518 5.33646 -6.99611
3531 1 12.4518 12.4518 7.11529 -8.14448
14 3 16.0094 12.4518 7.11529 -6.28437
1138 1 17.7882 12.4518 5.33646 -8.25013
1029 1 14.2306 12.4518 5.33646 -8.3939
326 1 0 17.7882 7.11529 -8.51766
282 3 0 14.2306 7.11529 -6.47047
531 2 1.77882 16.0094 7.11529 -7.03959
822 2 3.55764 17.7882 7.11529 -7.0138
781 1 3.55764 14.2306 7.11529 -8.30466
1780 1 1.77882 14.2306 5.33646 -8.46627
2030 1 0 16.0094 5.33646 -8.43347
3031 1 3.55764 16.0094 5.33646 -8.26194
3835 1 1.77882 17.7882 5.33646 -8.30532
821 1 5.33646 17.7882 5.33646 -8.2229
1030 2 5.33646 16.0094 7.11529 -7.01009
2780 2 5.33646 14.2306 5.33646 -6.92945
15 1 7.11529 16.0094 5.33646 -8.25802
1031 3 10.6729 16.0094 5.33646 -6.23926
1342 2 7.11529 17.7882 7.11529 -7.01403
1282 3 7.11529 14.2306 7.11529 -6.35989
1532 1 8.89411 16.0094 7.11529 -8.47195
1838 2 10.6729 17.7882 7.11529 -6.96454
1837 3 8.89411 17.7882 5.33646 -6.29636
1781 1 10.6729 14.2306 7.11529 -8.14847
3781 2 8.89411 14.2306 5.33646 -6.90258
782 3 12.4518 14.2306 5.33646 -6.08953
2031 1 12.4518 16.0094 7.11529 -8.44988
2837 1 12.4518 17.7882 5.33646 -8.13988
451 3 17.7882 17.7882 7.11529 -6.53178
391 2 17.7882 14.2306 7.11529 -6.89108
1782 3 16.0094 14.2306 5.33646 -6.472
2032 3 14.2306 16.0094 5.33646 -6.34492
2014 3 17.7882 16.0094 5.33646 -6.48424
2341 1 14.2306 17.7882 7.11529 -8.26512
2281 3 14.2306 14.2306 7.11529 -6.36356
2532 3 16.0094 16.0094 7.11529 -6.55475
3838 1 16.0094 17.7882 5.33646 -8.62154
251 1 3.55764 0 10.6729 -8.49499
253 3 0 3.55764 10.6729 -6.50746
16 2 0 1.77882 12.4518 -6.96017
785 1 1.77882 3.55764 12.4518 -8.10731
1032 1 3.55764 1.77882 12.4518 -8.2771
1285 1 3.55764 3.55764 10.6729 -8.38044
1284 3 1.77882 3.55764 8.89411 -6.48377
2781 2 1.77882 0 8.89411 -6.95313
3032 3 0 1.77882 8.89411 -6.50211
3281 3 0 0 10.6729 -6.48839
3533 3 3.55764 1.77882 8.89411 -6.53746
3532 2 1.77882 1.77882 10.6729 -6.96232
3782 3 1.77882 0 12.4518 -6.26871
532 3 5.33646 1.77882 10.6729 -6.31406
783 3 5.33646 0 12.4518 -6.23352
1785 3 5.33646 3.55764 12.4518 -6.35807
1784 2 5.33646 3.55764 8.89411 -6.94309
3282 2 5.33646 0 8.89411 -6.94538
17 1 7.11529 1.77882 8.89411 -8.53023
533 3 10.6729 1.77882 8.89411 -6.52085
1283 2 7.11529 0 10.6729 -6.976
1533 3 8.89411 1.77882 10.6729 -6.63477
1783 2 8.89411 0 12.4518 -6.98235
2033 1 7.11529 1.77882 12.4518 -8.79004
2284 2 7.11529 3.55764 10.6729 -6.90006
2283 3 8.89411 3.55764 8.89411 -6.31764
2282 2 10.6729 0 10.6729 -6.97219
2783 2 8.89411 3.55764 12.4518 -7.01504
3033 3 10.6729 1.77882 12.4518 -6.6311
3284 2 10.6729 3.55764 10.6729 -7.0546
3783 2 8.89411 0 8.89411 -7.00065
252 1 12.4518 0 8.89411 -8.6063
2533 3 12.4518 1.77882 10.6729 -6.59549
2784 3 12.4518 3.55764 8.89411 -6.66321
2782 1 12.4518 0 12.4518 -8.70807
3785 2 12.4518 3.55764 12.4518 -7.04084
254 3 14.2306 3.55764 10.6729 -6.7381
394 2 17.7882 3.55764 10.6729 -7.09603
141 1 17.7882 1.77882 12.4518 -8.41442
18 3 14.2306 1.77882 12.4518 -6.44131
786 2 16.0094 3.55764 12.4518 -6.94702
784 2 16.0094 0 8.89411 -7.02389
1033 2 14.2306 1.77882 8.89411 -6.99891
3157 2 17.7882 1.77882 8.89411 -7.02358
3406 3 17.7882 0 10.6729 -6.51167
3285 3 16.0094 3.55764 8.89411 -6.64584
3283 3 14.2306 0 10.6729 -6.40753
3534 2 16.0094 1.77882 10.6729 -7.0559
3784 1 16.0094 0 12.4518 -8.47264
534 2 1.77882 5.33646 10.6729 -6.96502
1034 1 0 5.33646 12.4518 -8.25263
1534 2 0 5.33646 8.89411 -7.08507
2035 3 3.55764 5.33646 12.4518 -6.24044
2034 1 3.55764 5.33646 8.89411 -8.26812
1535 1 5.33646 5.33646 10.6729 -8.43412
19 2 10.6729 5.33646 12.4518 -7.06432
2535 1 8.89411 5.33646 10.6729 -8.57699
2534 1 7.11529 5.33646 8.89411 -8.3987
3035 2 10.6729 5.33646 8.89411 -6.96506
3034 3 7.11529 5.33646 12.4518 -6.4105
3535 2 12.4518 5.33646 10.6729 -7.08368
535 3 16.0094 5.33646 10.6729 -6.61513
1144 3 17.7882 5.33646 12.4518 -6.48503
1035 3 14.2306 5.33646 12.4518 -6.54835
1643 3 17.7882 5.33646 8.89411 -6.50092
3536 3 14.2306 5.33646 8.89411 -6.66311
20 2 0 8.89411 8.89411 -6.96257
536 1 3.55764 8.89411 8.89411 -8.74305
1286 2 0 7.11529 10.6729 -7.05108
1536 3 1.77882 8.89411 10.6729 -6.43012
1786 1 1.77882 7.11529 12.4518 -8.15226
2036 1 0 8.89411 12.4518 -8.44912
2287 3 0 10.6729 10.6729 -6.33942
2286 3 1.77882 10.6729 8.89411 -6.4653
2285 1 3.55764 7.11529 10.6729 -8.26244
2786 3 1.77882 10.6729 12.4518 -6.39963
3036 2 3.55764 8.89411 12.4518 -6.9498
3287 2 3.55764 10.6729 10.6729 -7.00999
3786 2 1.77882 7.11529 8.89411 -7.02052
255 3 5.33646 7.11529 8.89411 -6.30786
2536 2 5.33646 8.89411 10.6729 -7.05829
2787 2 5.33646 10.6729 8.89411 -7.062
2785 2 5.33646 7.11529 12.4518 -6.95597
3788 1 5.33646 10.6729 12.4518 -8.57061
256 1 10.6729 7.11529 10.6729 -8.61575
257 3 7.11529 10.6729 10.6729 -6.55739
21 2 7.11529 8.89411 12.4518 -7.09651
789 3 8.89411 10.6729 12.4518 -6.55729
787 3 8.89411 7.11529 8.89411 -6.43611
1037 2 10.6729 8.89411 12.4518 -6.96616
1036 2 7.11529 8.89411 8.89411 -7.02364
1289 3 10.6729 10.6729 10.6729 -6.46792
1537 2 10.6729 8.89411 8.89411 -6.95783
3288 1 8.89411 10.6729 8.89411 -8.36475
3286 3 7.11529 7.11529 10.6729 -6.50359
3537 2 8.89411 8.89411 10.6729 -7.01856
3787 3 8.89411 7.11529 12.4518 -6.49164
537 3 12.4518 8.89411 10.6729 -6.4947
788 2 12.4518 7.11529 12.4518 -7.06116
1287 3 12.4518 7.11529 8.89411 -6.49831
1789 3 12.4518 10.6729 12.4518 -6.40868
3789 2 12.4518 10.6729 8.89411 -7.00545
258 2 16.0094 10.6729 8.89411 -6.98838
145 1 17.7882 8.89411 8.89411 -8.42435
1395 2 17.7882 7.11529 10.6729 -6.95816
1288 2 14.2306 7.11529 10.6729 -6.95577
1538 1 16.0094 8.89411 10.6729 -8.09648
1788 1 16.0094 7.11529 12.4518 -8.41446
1787 3 16.0094 7.11529 8.89411 -6.37641
2145 1 17.7882 8.89411 12.4518 -8.25807
2038 2 14.2306 8.89411 12.4518 -7.00025
2037 1 14.2306 8.89411 8.89411 -8.42436
2256 2 17.7882 10.6729 10.6729 -6.93427
2288 1 14.2306 10.6729 10.6729 -8.31409
2788 2 16.0094 10.6729 12.4518 -7.0541
22 1 3.55764 12.4518 12.4518 -8.6114
2538 2 1.77882 12.4518 10.6729 -6.93575
2537 1 0 12.4518 8.89411 -8.80612
3038 2 3.55764 12.4518 8.89411 -7.03222
3037 1 0 12.4518 12.4518 -8.65962
3538 2 5.33646 12.4518 10.6729 -7.043
23 1 10.6729 12.4518 8.89411 -8.38297
538 2 8.89411 12.4518 10.6729 -6.91698
1038 2 7.11529 12.4518 12.4518 -6.95029
2039 1 10.6729 12.4518 12.4518 -8.55687
3539 1 7.11529 12.4518 8.89411 -8.41179
1539 3 12.4518 12.4518 10.6729 -6.30055
539 1 14.2306 12.4518 8.89411 -8.44025
2662 3 17.7882 12.4518 8.89411 -6.35392
2539 1 16.0094 12.4518 10.6729 -8.36025
3163 2 17.7882 12.4518 12.4518 -6.98817
3039 2 14.2306 12.4518 12.4518 -6.94799
259 1 3.55764 14.2306 10.6729 -8.47621
24 2 0 16.0094 12.4518 -7.12639
829 2 1.77882 17.7882 8.89411 -7.04893
790 3 1.77882 14.2306 8.89411 -6.52596
1040 2 3.55764 16.0094 12.4518 -7.08427
1039 3 0 16.0094 8.89411 -6.61188
1251 1 0 17.7882 10.6729 -8.70638
1540 3 3.55764 16.0094 8.89411 -6.569
1845 3 1.77882 17.7882 12.4518 -6.74026
2345 3 3.55764 17.7882 10.6729 -6.73771
3289 3 0 14.2306 10.6729 -6.56741
3540 2 1.77882 16.0094 10.6729 -7.04653
3790 2 1.77882 14.2306 12.4518 -7.07718
540 2 5.33646 16.0094 10.6729 -6.9368
791 3 5.33646 14.2306 12.4518 -6.61619
1252 2 5.33646 17.7882 8.89411 -7.05218
1290 1 5.33646 14.2306 8.89411 -8.37378
2845 1 5.33646 17.7882 12.4518 -8.41472
332 2 10.6729 17.7882 10.6729 -7.09295
1291 2 7.11529 14.2306 10.6729 -6.9848
1541 1 8.89411 16.0094 10.6729 -8.49252
1846 2 8.89411 17.7882 8.89411 -6.95084
1791 3 8.89411 14.2306 12.4518 -6.44479
1790 1 8.89411 14.2306 8.89411 -8.27144
2041 3 7.11529 16.0094 12.4518 -6.4297
2040 3 7.11529 16.0094 8.89411 -6.38811
2290 3 10.6729 14.2306 10.6729 -6.30022
2540 3 10.6729 16.0094 8.89411 -6.36972
3040 2 10.6729 16.0094 12.4518 -6.95375
3346 1 7.11529 17.7882 10.6729 -8.33342
3847 1 8.89411 17.7882 12.4518 -8.21797
832 2 12.4518 17.7882 12.4518 -7.00414
2346 2 12.4518 17.7882 8.89411 -7.08829
2289 2 12.4518 14.2306 8.89411 -6.91542
2541 3 12.4518 16.0094 10.6729 -6.65119
2789 1 12.4518 14.2306 12.4518 -8.68521
149 3 17.7882 16.0094 12.4518 -6.35308
25 3 14.2306 16.0094 12.4518 -6.46374
1149 2 17.7882 16.0094 8.89411 -6.99559
1255 2 14.2306 17.7882 10.6729 -7.04642
1454 3 17.7882 17.7882 10.6729 -6.44229
1848 1 16.0094 17.7882 12.4518 -8.75983
2846 2 16.0094 17.7882 8.89411 -7.02418
2790 3 16.0094 14.2306 8.89411 -6.4645
3041 2 14.2306 16.0094 8.89411 -7.01553
3414 1 17.7882 14.2306 10.6729 -8.74223
3290 3 14.2306 14.2306 10.6729 -6.50296
3541 3 16.0094 16.0094 10.6729 -6.57361
3791 2 16.0094 14.2306 12.4518 -6.93692
260 1 0 0 14.2306 -8.39471
541 1 1.77882 1.77882 14.2306 -7.99775
792 2 1.77882 0 16.0094 -7.0513
1041 2 0 1.77882 16.0094 -7.0655
1298 3 0 0 17.7882 -6.62911
1293 1 0 3.55764 14.2306 -8.12001
1292 1 3.55764 0 14.2306 -8.34305
1548 2 1.77882 1.77882 17.7882 -7.06145
1793 1 1.77882 3.55764 16.0094 -8.14067
2042 1 3.55764 1.77882 16.0094 -8.04461
2300 2 0 3.55764 17.7882 -7.04805
2298 2 3.55764 0 17.7882 -7.00322
2292 2 3.55764 3.55764 14.2306 -6.96353
3300 1 3.55764 3.55764 17.7882 -8.21534
1542 3 5.33646 1.77882 14.2306 -6.24633
1792 1 5.33646 0 16.0094 -8.2324
2549 1 5.33646 1.77882 17.7882 -8.01969
2792 1 5.33646 3.55764 16.0094 -8.28731
262 2 10.6729 3.55764 14.2306 -7.00487
286 1 7.11529 3.55764 17.7882 -8.19887
284 3 10.6729 0 17.7882 -6.28948
26 1 10.6729 1.77882 16.0094 -8.67933
1302 2 10.6729 3.55764 17.7882 -6.89809
2291 2 7.11529 0 14.2306 -6.88836
2542 3 8.89411 1.77882 14.2306 -6.49481
2791 3 8.89411 0 16.0094 -6.41072
3042 2 7.11529 1.77882 16.0094 -6.9325
3298 1 7.11529 0 17.7882 -8.57805
3292 2 7.11529 3.55764 14.2306 -6.95596
3291 3 10.6729 0 14.2306 -6.42453
3549 3 8.89411 1.77882 17.7882 -6.30607
3793 1 8.89411 3.55764 16.0094 -8.29251
502 1 12.4518 1.77882 17.7882 -8.3197
794 3 12.4518 3.55764 16.0094 -6.45883
3542 3 12.4518 1.77882 14.2306 -6.41064
3792 3 12.4518 0 16.0094 -6.22474
261 1 14.2306 0 14.2306 -8.29555
401 2 17.7882 0 14.2306 -7.01408
542 2 16.0094 1.77882 14.2306 -6.95594
793 1 16.0094 0 16.0094 -8.00477
1151 1 17.7882 1.77882 16.0094 -8.39915
1042 2 14.2306 1.77882 16.0094 -6.90117
1407 3 17.7882 0 17.7882 -6.16481
1402 3 17.7882 3.55764 14.2306 -6.37181
1300 1 14.2306 0 17.7882 -8.25014
1294 1 14.2306 3.55764 14.2306 -8.70912
1550 2 16.0094 1.77882 17.7882 -6.96468
1794 3 16.0094 3.55764 16.0094 -6.4835
2410 3 17.7882 3.55764 17.7882 -6.50216
2302 2 14.2306 3.55764 17.7882 -7.05892
1543 1 1.77882 5.33646 14.2306 -8.097
2043 3 0 5.33646 16.0094 -6.32094
2551 2 1.77882 5.33646 17.7882 -7.02181
3043 1 3.55764 5.33646 16.0094 -8.17751
2543 2 5.33646 5.33646 14.2306 -6.94456
3551 3 5.33646 5.33646 17.7882 -6.31884
27 3 7.11529 5.33646 16.0094 -6.264
504 1 8.89411 5.33646 17.7882 -8.30907
1043 2 10.6729 5.33646 16.0094 -6.95366
3543 1 8.89411 5.33646 14.2306 -8.50276
543 3 12.4518 5.33646 14.2306 -6.70439
1552 1 12.4518 5.33646 17.7882 -8.66894
1544 1 16.0094 5.33646 14.2306 -8.55303
2152 3 17.7882 5.33646 16.0094 -6.43365
2044 2 14.2306 5.33646 16.0094 -6.9183
2553 3 16.0094 5.33646 17.7882 -6.64336
264 3 3.55764 10.6729 14.2306 -6.5732
290 1 0 10.6729 17.7882 -8.35834
288 3 3.55764 7.11529 17.7882 -6.59117
28 2 3.55764 8.89411 16.0094 -6.93831
1306 1 3.55764 10.6729 17.7882 -8.30352
2293 2 0 7.11529 14.2306 -6.91684
2544 2 1.77882 8.89411 14.2306 -6.96712
2793 2 1.77882 7.11529 16.0094 -7.03674
3044 3 0 8.89411 16.0094 -6.48203
3302 2 0 7.11529 17.7882 -7.02741
3294 1 0 10.6729 14.2306 -8.60058
3293 1 3.55764 7.11529 14.2306 -8.38714
3553 3 1.77882 8.89411 17.7882 -6.52667
3795 3 1.77882 10.6729 16.0094 -6.38753
506 1 5.33646 8.89411 17.7882 -8.28047
796 3 5.33646 10.6729 16.0094 -6.45919
3544 3 5.33646 8.89411 14.2306 -6.54685
3794 2 5.33646 7.11529 16.0094 -6.96266
263 1 7.11529 7.11529 14.2306 -8.60628
544 2 8.89411 8.89411 14.2306 -7.02495
795 2 8.89411 7.11529 16.0094 -7.01382
1044 2 7.11529 8.89411 16.0094 -7.02868
1304 1 7.11529 7.11529 17.7882 -8.33428
1296 2 7.11529 10.6729 14.2306 -6.99358
1295 3 10.6729 7.11529 14.2306 -6.70783
1554 2 8.89411 8.89411 17.7882 -7.03306
1796 2 8.89411 10.6729 16.0094 -7.04577
2045 3 10.6729 8.89411 16.0094 -6.68104
2306 3 7.11529 10.6729 17.7882 -6.38437
2304 3 10.6729 7.11529 17.7882 -6.55953
2295 1 10.6729 10.6729 14.2306 -8.47877
3306 2 10.6729 10.6729 17.7882 -7.0628
1545 3 12.4518 8.89411 14.2306 -6.68711
1795 3 12.4518 7.11529 16.0094 -6.67626
2555 2 12.4518 8.89411 17.7882 -7.03667
2795 2 12.4518 10.6729 16.0094 -7.02207
415 3 17.7882 10.6729 17.7882 -6.40118
292 3 14.2306 10.6729 17.7882 -6.68497
2262 1 17.7882 7.11529 14.2306 -8.24395
2294 3 14.2306 7.11529 14.2306 -6.60279
2545 2 16.0094 8.89411 14.2306 -7.00669
2794 3 16.0094 7.11529 16.0094 -6.42779
3169 1 17.7882 8.89411 16.0094 -8.43617
3045 3 14.2306 8.89411 16.0094 -6.72231
3427 1 17.7882 7.11529 17.7882 -8.61892
3419 1 17.7882 10.6729 14.2306 -8.42326
3304 2 14.2306 7.11529 17.7882 -6.98431
3295 3 14.2306 10.6729 14.2306 -6.68573
3555 3 16.0094 8.89411 17.7882 -6.52375
3796 2 16.0094 10.6729 16.0094 -7.0904
29 2 0 12.4518 16.0094 -6.99592
508 1 1.77882 12.4518 17.7882 -8.40945
1045 3 3.55764 12.4518 16.0094 -6.51128
3545 3 1.77882 12.4518 14.2306 -6.5247
545 3 5.33646 12.4518 14.2306 -6.49726
1556 3 5.33646 12.4518 17.7882 -6.38028
1546 1 8.89411 12.4518 14.2306 -8.52646
2046 1 7.11529 12.4518 16.0094 -8.81076
2557 3 8.89411 12.4518 17.7882 -6.55895
3046 3 10.6729 12.4518 16.0094 -6.48071
2546 1 12.4518 12.4518 14.2306 -8.34992
3557 2 12.4518 12.4518 17.7882 -7.02882
154 2 17.7882 12.4518 16.0094 -6.98999
30 2 14.2306 12.4518 16.0094 -7.06402
510 2 16.0094 12.4518 17.7882 -6.98605
3546 2 16.0094 12.4518 14.2306 -7.09047
265 2 0 14.2306 14.2306 -7.1157
347 1 3.55764 17.7882 17.7882 -8.20577
546 2 1.77882 16.0094 14.2306 -7.26372
797 2 1.77882 14.2306 16.0094 -7.10867
1046 2 0 16.0094 16.0094 -7.15109
1308 3 0 14.2306 17.7882 -6.50979
1297 2 3.55764 14.2306 14.2306 -7.06519
1558 1 1.77882 16.0094 17.7882 -8.55732
2047 2 3.55764 16.0094 16.0094 -7.08018
2353 2 0 17.7882 14.2306 -7.12925
2308 3 3.55764 14.2306 17.7882 -6.43413
2853 2 1.77882 17.7882 16.0094 -7.12688
3359 2 0 17.7882 17.7882 -7.04183
3354 2 3.55764 17.7882 14.2306 -7.05832
1547 3 5.33646 16.0094 14.2306 -6.56771
1797 3 5.33646 14.2306 16.0094 -6.51538
2559 1 5.33646 16.0094 17.7882 -8.48169
3855 2 5.33646 17.7882 16.0094 -6.95522
340 1 7.11529 17.7882 14.2306 -8.38898
294 3 10.6729 14.2306 17.7882 -6.54099
31 1 10.6729 16.0094 16.0094 -8.58185
840 3 8.89411 17.7882 16.0094 -6.43621
1262 2 10.6729 17.7882 14.2306 -6.99861
1348 1 7.11529 17.7882 17.7882 -8.57989
2363 2 10.6729 17.7882 17.7882 -6.87126
2296 3 7.11529 14.2306 14.2306 -6.55163
2547 2 8.89411 16.0094 14.2306 -6.93436
2796 2 8.89411 14.2306 16.0094 -6.85367
3047 3 7.11529 16.0094 16.0094 -6.49783
3308 3 7.11529 14.2306 17.7882 -6.54335
3296 3 10.6729 14.2306 14.2306 -6.29879
3559 3 8.89411 16.0094 17.7882 -6.51743
512 3 12.4518 16.0094 17.7882 -6.18363
1856 1 12.4518 17.7882 16.0094 -8.4294
3547 3 12.4518 16.0094 14.2306 -6.39746
3797 1 12.4518 14.2306 16.0094 -8.49776
266 2 14.2306 14.2306 14.2306 -6.93282
406 1 17.7882 14.2306 14.2306 -8.68668
547 1 16.0094 16.0094 14.2306 -8.6431
798 3 16.0094 14.2306 16.0094 -6.32047
1156 3 17.7882 16.0094 16.0094 -6.30392
1047 3 14.2306 16.0094 16.0094 -6.22373
1417 1 17.7882 14.2306 17.7882 -8.43353
1310 1 14.2306 14.2306 17.7882 -8.31903
1560 1 16.0094 16.0094 17.7882 -8.3607
2463 3 17.7882 17.7882 14.2306 -6.32665
2355 3 14.2306 17.7882 14.2306 -6.26838
2855 3 16.0094 17.7882 16.0094 -6.28501
3469 1 17.7882 17.7882 17.7882 -8.57115
3363 1 14.2306 17.7882 17.7882 -8.48298
285 2 3.55764 3.55764 21.3459 -6.95309
1798 3 1.77882 0 19.567 -6.74733
2048 2 0 1.77882 19.567 -7.01963
2297 3 0 0 21.3459 -6.63269
2548 3 1.77882 1.77882 21.3459 -6.70992
2798 2 1.77882 3.55764 19.567 -7.03061
3048 3 3.55764 1.77882 19.567 -6.51339
3299 3 0 3.55764 21.3459 -6.47332
3297 3 3.55764 0 21.3459 -6.6417
2797 2 5.33646 0 19.567 -6.90311
3548 3 5.33646 1.77882 21.3459 -6.34536
3799 1 5.33646 3.55764 19.567 -8.56454
501 1 8.89411 1.77882 21.3459 -8.22979
32 2 7.11529 1.77882 19.567 -6.91125
283 1 7.11529 0 21.3459 -8.34885
800 1 8.89411 3.55764 19.567 -8.42137
1048 3 10.6729 1.77882 19.567 -6.24523
1301 3 7.11529 3.55764 21.3459 -6.33213
1299 2 10.6729 0 21.3459 -6.88314
2301 1 10.6729 3.55764 21.3459 -8.30727
3798 3 8.89411 0 19.567 -6.34508
799 1 12.4518 0 19.567 -8.34826
1549 2 12.4518 1.77882 21.3459 -6.96178
1800 1 12.4518 3.55764 19.567 -8.23526
1799 3 16.0094 0 19.567 -6.36818
2157 1 17.7882 1.77882 19.567 -8.77763
2049 2 14.2306 1.77882 19.567 -7.07676
2408 1 17.7882 0 21.3459 -8.54093
2299 2 14.2306 0 21.3459 -6.89843
2550 2 16.0094 1.77882 21.3459 -7.02311
2799 2 16.0094 3.55764 19.567 -7.12096
3425 3 17.7882 3.55764 21.3459 -6.51411
3301 2 14.2306 3.55764 21.3459 -7.04049
33 2 3.55764 5.33646 19.567 -7.04029
3049 1 0 5.33646 19.567 -8.31709
3550 1 1.77882 5.33646 21.3459 -8.43882
503 3 5.33646 5.33646 21.3459 -6.57494
1049 2 7.11529 5.33646 19.567 -6.99304
1551 3 8.89411 5.33646 21.3459 -6.41791
2050 3 10.6729 5.33646 19.567 -6.21539
2552 1 12.4518 5.33646 21.3459 -8.38039
3174 2 17.7882 5.33646 19.567 -6.97777
3050 2 14.2306 5.33646 19.567 -7.05013
3552 3 16.0094 5.33646 21.3459 -6.7292
505 2 1.77882 8.89411 21.3459 -6.95009
34 2 0 8.89411 19.567 -6.94762
287 1 0 7.11529 21.3459 -8.34518
802 1 1.77882 10.6729 19.567 -8.47737
1050 2 3.55764 8.89411 19.567 -7.02108
1305 3 0 10.6729 21.3459 -6.30894
1303 2 3.55764 7.11529 21.3459 -7.06451
2305 3 3.55764 10.6729 21.3459 -6.38328
3800 2 1.77882 7.11529 19.567 -7.10649
801 2 5.33646 7.11529 19.567 -7.0645
1553 1 5.33646 8.89411 21.3459 -8.43299
1802 1 5.33646 10.6729 19.567 -8.16637
291 1 10.6729 10.6729 21.3459 -8.49059
1801 2 8.89411 7.11529 19.567 -6.94102
2051 1 7.11529 8.89411 19.567 -8.13314
2303 2 7.11529 7.11529 21.3459 -7.00344
2554 2 8.89411 8.89411 21.3459 -6.90599
2801 1 8.89411 10.6729 19.567 -8.39676
3051 3 10.6729 8.89411 19.567 -6.43819
3305 1 7.11529 10.6729 21.3459 -8.28472
3303 1 10.6729 7.11529 21.3459 -8.49402
2800 3 12.4518 7.11529 19.567 -6.36931
3554 1 12.4518 8.89411 21.3459 -8.44294
3802 3 12.4518 10.6729 19.567 -6.46676
507 3 16.0094 8.89411 21.3459 -6.49174
159 1 17.7882 8.89411 19.567 -8.48009
35 3 14.2306 8.89411 19.567 -6.53317
413 2 17.7882 7.11529 21.3459 -6.8915
289 3 14.2306 7.11529 21.3459 -6.47328
803 2 16.0094 10.6729 19.567 -6.89278
1415 2 17.7882 10.6729 21.3459 -6.94718
1307 1 14.2306 10.6729 21.3459 -8.68717
3801 3 16.0094 7.11529 19.567 -6.55869
1051 3 0 12.4518 19.567 -6.32344
1555 3 1.77882 12.4518 21.3459 -6.26555
2052 1 3.55764 12.4518 19.567 -8.23569
2556 1 5.33646 12.4518 21.3459 -8.42081
36 2 10.6729 12.4518 19.567 -6.9934
3052 2 7.11529 12.4518 19.567 -6.92929
3556 2 8.89411 12.4518 21.3459 -6.98517
509 3 12.4518 12.4518 21.3459 -6.38802
1161 1 17.7882 12.4518 19.567 -8.46559
1052 1 14.2306 12.4518 19.567 -8.59553
1557 3 16.0094 12.4518 21.3459 -6.31344
346 1 0 17.7882 21.3459 -8.57479
1347 3 3.55764 17.7882 21.3459 -6.34986
1803 2 1.77882 14.2306 19.567 -6.93885
2053 2 0 16.0094 19.567 -7.04515
2307 3 0 14.2306 21.3459 -6.39902
2558 2 1.77882 16.0094 21.3459 -6.89704
3053 2 3.55764 16.0094 19.567 -6.98134
3307 1 3.55764 14.2306 21.3459 -8.1535
3860 2 1.77882 17.7882 19.567 -7.01736
846 2 5.33646 17.7882 19.567 -6.95831
2802 2 5.33646 14.2306 19.567 -6.94264
3558 1 5.33646 16.0094 21.3459 -8.39625
511 2 8.89411 16.0094 21.3459 -6.96207
37 2 7.11529 16.0094 19.567 -6.96488
293 3 7.11529 14.2306 21.3459 -6.49248
1053 3 10.6729 16.0094 19.567 -6.42344
1309 1 10.6729 14.2306 21.3459 -8.49252
1862 3 8.89411 17.7882 19.567 -6.34424
2362 1 7.11529 17.7882 21.3459 -8.24104
3362 1 10.6729 17.7882 21.3459 -8.10288
3803 3 8.89411 14.2306 19.567 -6.60312
804 2 12.4518 14.2306 19.567 -6.93077
1559 1 12.4518 16.0094 21.3459 -8.03107
2861 1 12.4518 17.7882 19.567 -8.24343
472 2 17.7882 17.7882 21.3459 -6.99191
350 1 14.2306 17.7882 21.3459 -8.46495
1804 3 16.0094 14.2306 19.567 -6.30665
2162 2 17.7882 16.0094 19.567 -7.03153
2054 1 14.2306 16.0094 19.567 -8.17181
2418 2 17.7882 14.2306 21.3459 -7.02942