ITEM: TIMESTEP
0
ITEM: NUMBER OF ATOMS
4000
ITEM: BOX BOUNDS pp pp pp
0.0000000000000000e+00 3.6030929999999998e+01
0.0000000000000000e+00 3.6030929999999998e+01
0.0000000000000000e+00 3.6030929999999998e+01
ITEM: ATOMS id type x y z c_peratom
267 3 0 0 0 -6.39422
516 2 1.80155 1.80155 0 -6.9646
767 1 1.80155 0 1.80155 -8.31194
1016 1 0 1.80155 1.80155 -8.03117
1270 3 0 3.60309 0 -6.29463
1268 2 3.60309 0 0 -7.05567
1267 2 0 0 3.60309 -7.08786
1517 3 1.80155 1.80155 3.60309 -6.45812
1768 1 1.80155 3.60309 1.80155 -8.22861
2017 1 3.60309 1.80155 1.80155 -7.92417
2269 1 3.60309 3.60309 0 -8.14651
2268 1 0 3.60309 3.60309 -8.26799
2266 2 3.60309 0 3.60309 -7.06763
3268 1 3.60309 3.60309 3.60309 -8.31305
1518 1 5.40464 1.80155 0 -8.20474
1767 2 5.40464 0 1.80155 -7.07681
2517 1 5.40464 1.80155 3.60309 -8.07545
2767 2 5.40464 3.60309 1.80155 -6.98025
270 1 7.20619 3.60309 3.60309 -8.20203
2267 3 7.20619 0 0 -6.26242
2518 1 9.00773 1.80155 0 -8.22727
2766 3 9.00773 0 1.80155 -6.39296
3017 1 7.20619 1.80155 1.80155 -8.15301
3269 3 7.20619 3.60309 0 -6.29553
3266 2 7.20619 0 3.60309 -7.0202
3517 2 9.00773 1.80155 3.60309 -6.982
3768 3 9.00773 3.60309 1.80155 -6.34441
1 1 10.8093 1.80155 1.80155 -8.33339
271 2 10.8093 3.60309 0 -7.00407
268 2 10.8093 0 3.60309 -7.04653
517 1 12.6108 1.80155 3.60309 -8.2249
769 2 12.6108 3.60309 1.80155 -7.06561
1271 2 10.8093 3.60309 3.60309 -7.07657
3267 3 10.8093 0 0 -6.37642
3518 3 12.6108 1.80155 0 -6.40925
3767 3 12.6108 0 1.80155 -6.4532
269 2 14.4124 0 0 -6.97487
518 2 16.2139 1.80155 0 -7.0374
768 3 16.2139 0 1.80155 -6.37822
1017 1 14.4124 1.80155 1.80155 -8.24666
1272 3 14.4124 3.60309 0 -6.40973
1269 3 14.4124 0 3.60309 -6.39689
1519 1 16.2139 1.80155 3.60309 -8.14807
1769 1 16.2139 3.60309 1.80155 -8.10667
2270 2 14.4124 3.60309 3.60309 -7.08815
1520 3 1.80155 5.40464 0 -6.37994
2018 3 0 5.40464 1.80155 -6.41126
2519 3 1.80155 5.40464 3.60309 -6.48451
3018 3 3.60309 5.40464 1.80155 -6.47371
2520 3 5.40464 5.40464 0 -6.39082
3519 3 5.40464 5.40464 3.60309 -6.51012
2 1 7.20619 5.40464 1.80155 -8.28543
519 3 9.00773 5.40464 3.60309 -6.53025
3520 1 9.00773 5.40464 0 -8.13766
520 1 12.6108 5.40464 0 -8.1665
1018 3 10.8093 5.40464 1.80155 -6.5222
1521 2 12.6108 5.40464 3.60309 -7.06503
1522 3 16.2139 5.40464 0 -6.36909
2019 2 14.4124 5.40464 1.80155 -7.03034
2521 1 16.2139 5.40464 3.60309 -7.89819
3 2 3.60309 9.00773 1.80155 -7.09107
272 2 3.60309 7.20619 3.60309 -7.06801
2271 2 0 7.20619 0 -6.96064
2522 2 1.80155 9.00773 0 -7.04925
2768 2 1.80155 7.20619 1.80155 -7.05918
3019 2 0 9.00773 1.80155 -7.08797
3271 3 3.60309 7.20619 0 -6.52097
3270 1 0 7.20619 3.60309 -8.44098
3521 1 1.80155 9.00773 3.60309 -8.31588
521 3 5.40464 9.00773 3.60309 -6.59974
3522 1 5.40464 9.00773 0 -8.055
3769 2 5.40464 7.20619 1.80155 -6.94391
273 2 7.20619 7.20619 0 -6.99747
522 3 9.00773 9.00773 0 -6.42682
770 1 9.00773 7.20619 1.80155 -8.25711
1019 1 7.20619 9.00773 1.80155 -8.27952
1273 3 7.20619 7.20619 3.60309 -6.49621
1523 2 9.00773 9.00773 3.60309 -7.04535
1274 1 10.8093 7.20619 0 -8.11259
1524 3 12.6108 9.00773 0 -6.36407
1770 2 12.6108 7.20619 1.80155 -6.97748
2020 3 10.8093 9.00773 1.80155 -6.50128
2272 3 10.8093 7.20619 3.60309 -6.63404
2523 3 12.6108 9.00773 3.60309 -6.46326
2273 2 14.4124 7.20619 0 -7.01901
2524 2 16.2139 9.00773 0 -7.10266
2769 1 16.2139 7.20619 1.80155 -8.13892
3020 1 14.4124 9.00773 1.80155 -8.30264
3272 1 14.4124 7.20619 3.60309 -8.07311
3523 3 16.2139 9.00773 3.60309 -6.27051
4 2 0 12.6108 1.80155 -7.01794
275 1 3.60309 10.8093 0 -8.12201
274 3 0 10.8093 3.60309 -6.58908
523 2 1.80155 12.6108 3.60309 -7.08989
1020 3 3.60309 12.6108 1.80155 -6.45674
1275 2 3.60309 10.8093 3.60309 -7.04595
3273 3 0 10.8093 0 -6.61525
3524 1 1.80155 12.6108 0 -8.2825
3770 2 1.80155 10.8093 1.80155 -7.08505
524 2 5.40464 12.6108 0 -6.89803
771 1 5.40464 10.8093 1.80155 -8.32593
1525 3 5.40464 12.6108 3.60309 -6.60617
1276 3 7.20619 10.8093 0 -6.43126
1526 3 9.00773 12.6108 0 -6.63832
1771 2 9.00773 10.8093 1.80155 -7.01564
2021 3 7.20619 12.6108 1.80155 -6.56765
2274 2 7.20619 10.8093 3.60309 -7.05459
2525 3 9.00773 12.6108 3.60309 -6.76338
2275 2 10.8093 10.8093 0 -7.04204
2526 2 12.6108 12.6108 0 -7.20152
2770 3 12.6108 10.8093 1.80155 -6.51297
3021 2 10.8093 12.6108 1.80155 -7.15534
3274 1 10.8093 10.8093 3.60309 -8.37908
3525 1 12.6108 12.6108 3.60309 -8.14335
5 2 14.4124 12.6108 1.80155 -7.08995
276 2 14.4124 10.8093 3.60309 -6.88134
525 3 16.2139 12.6108 3.60309 -6.48774
3275 1 14.4124 10.8093 0 -8.17703
3526 2 16.2139 12.6108 0 -7.02171
3771 3 16.2139 10.8093 1.80155 -6.42646
277 1 0 14.4124 0 -8.36625
526 1 1.80155 16.2139 0 -8.28355
772 3 1.80155 14.4124 1.80155 -6.49267
1021 2 0 16.2139 1.80155 -6.92987
1278 1 3.60309 14.4124 0 -8.2439
1277 2 0 14.4124 3.60309 -7.03587
1527 3 1.80155 16.2139 3.60309 -6.43018
2022 3 3.60309 16.2139 1.80155 -6.34066
2276 3 3.60309 14.4124 3.60309 -6.52574
1528 3 5.40464 16.2139 0 -6.51672
1772 1 5.40464 14.4124 1.80155 -8.52629
2527 3 5.40464 16.2139 3.60309 -6.42842
2277 3 7.20619 14.4124 0 -6.44011
2528 1 9.00773 16.2139 0 -8.25928
2771 2 9.00773 14.4124 1.80155 -7.06782
3022 2 7.20619 16.2139 1.80155 -6.99369
3276 2 7.20619 14.4124 3.60309 -7.01522
3527 1 9.00773 16.2139 3.60309 -8.29448
6 2 10.8093 16.2139 1.80155 -7.13999
278 3 10.8093 14.4124 3.60309 -6.64326
527 2 12.6108 16.2139 3.60309 -7.04117
3277 2 10.8093 14.4124 0 -7.14653
3528 2 12.6108 16.2139 0 -7.0972
3772 2 12.6108 14.4124 1.80155 -7.21386
279 2 14.4124 14.4124 0 -7.11674
528 1 16.2139 16.2139 0 -7.90505
773 1 16.2139 14.4124 1.80155 -8.1575
1022 3 14.4124 16.2139 1.80155 -6.44954
1279 2 14.4124 14.4124 3.60309 -7.00899
1529 1 16.2139 16.2139 3.60309 -8.12638
775 1 0 3.60309 7.20619 -8.32303
1284 2 1.80155 3.60309 9.00773 -7.0071
1280 1 3.60309 3.60309 7.20619 -8.3663
1773 2 1.80155 0 5.40464 -7.12549
2023 2 0 1.80155 5.40464 -7.11759
2278 3 0 0 7.20619 -6.60878
2529 2 1.80155 1.80155 7.20619 -7.06064
2781 3 1.80155 0 9.00773 -6.42242
2774 2 1.80155 3.60309 5.40464 -6.95116
2773 1 3.60309 0 7.20619 -8.36058
3032 2 0 1.80155 9.00773 -6.95951
3023 3 3.60309 1.80155 5.40464 -6.44221
3533 1 3.60309 1.80155 9.00773 -8.19586
1784 1 5.40464 3.60309 9.00773 -8.06702
2772 3 5.40464 0 5.40464 -6.35062
3024 3 5.40464 1.80155 7.20619 -6.22817
3282 3 5.40464 0 9.00773 -6.22382
3775 2 5.40464 3.60309 5.40464 -6.95841
7 1 7.20619 1.80155 5.40464 -8.09598
17 1 7.20619 1.80155 9.00773 -8.1917
776 2 9.00773 3.60309 5.40464 -7.03648
1775 3 7.20619 3.60309 7.20619 -6.36048
2283 2 9.00773 3.60309 9.00773 -6.92854
3278 1 7.20619 0 7.20619 -8.10044
3529 1 9.00773 1.80155 7.20619 -7.98416
3783 3 9.00773 0 9.00773 -6.20147
3773 1 9.00773 0 5.40464 -8.15204
8 3 12.6108 1.80155 7.20619 -6.45963
252 3 12.6108 0 9.00773 -6.51789
533 1 10.8093 1.80155 9.00773 -8.37997
774 1 12.6108 0 5.40464 -8.19755
1023 3 10.8093 1.80155 5.40464 -6.42532
1776 2 12.6108 3.60309 5.40464 -7.02339
2279 1 10.8093 3.60309 7.20619 -8.24719
2784 3 12.6108 3.60309 9.00773 -6.48556
3774 1 10.8093 0 7.20619 -8.2135
280 2 14.4124 0 7.20619 -6.99359
529 1 16.2139 1.80155 7.20619 -8.24069
784 1 16.2139 0 9.00773 -8.14913
1033 3 14.4124 1.80155 9.00773 -6.50881
1774 2 16.2139 0 5.40464 -7.06825
2024 3 14.4124 1.80155 5.40464 -6.45519
2776 3 14.4124 3.60309 7.20619 -6.47836
2775 2 16.2139 3.60309 5.40464 -7.05954
3285 2 16.2139 3.60309 9.00773 -6.97317
9 2 3.60309 5.40464 5.40464 -7.02175
1024 3 1.80155 5.40464 7.20619 -6.60067
1534 2 0 5.40464 9.00773 -7.0952
2034 3 3.60309 5.40464 9.00773 -6.36062
3025 3 0 5.40464 5.40464 -6.50873
1530 3 5.40464 5.40464 7.20619 -6.42076
1025 2 7.20619 5.40464 5.40464 -6.95007
2025 2 9.00773 5.40464 7.20619 -6.98642
2534 1 7.20619 5.40464 9.00773 -8.23238
2026 3 10.8093 5.40464 5.40464 -6.676
2530 2 12.6108 5.40464 7.20619 -6.91941
3035 1 10.8093 5.40464 9.00773 -8.24802
3027 1 16.2139 5.40464 7.20619 -8.06325
3026 1 14.4124 5.40464 5.40464 -8.1162
3536 3 14.4124 5.40464 9.00773 -6.55266
10 3 0 9.00773 5.40464 -6.49069
20 1 0 9.00773 9.00773 -8.27858
536 3 3.60309 9.00773 9.00773 -6.40716
1026 2 3.60309 9.00773 5.40464 -7.01943
3279 2 0 7.20619 7.20619 -7.00383
3530 1 1.80155 9.00773 7.20619 -8.23872
3786 3 1.80155 7.20619 9.00773 -6.49981
3777 3 3.60309 7.20619 7.20619 -6.56039
3776 2 1.80155 7.20619 5.40464 -7.04535
11 3 5.40464 9.00773 7.20619 -6.57715
255 3 5.40464 7.20619 9.00773 -6.38794
777 1 5.40464 7.20619 5.40464 -8.59266
281 3 7.20619 7.20619 7.20619 -6.50906
530 3 9.00773 9.00773 7.20619 -6.60284
787 1 9.00773 7.20619 9.00773 -8.19977
1036 2 7.20619 9.00773 9.00773 -6.88317
1777 3 9.00773 7.20619 5.40464 -6.67581
2027 2 7.20619 9.00773 5.40464 -7.00478
778 3 10.8093 7.20619 7.20619 -6.58771
1027 2 12.6108 9.00773 7.20619 -7.03264
1287 2 12.6108 7.20619 9.00773 -6.9869
1537 1 10.8093 9.00773 9.00773 -8.30755
2777 3 12.6108 7.20619 5.40464 -6.50879
3028 2 10.8093 9.00773 5.40464 -7.03666
12 1 14.4124 9.00773 5.40464 -8.33308
1281 1 14.4124 7.20619 7.20619 -8.25502
1531 3 16.2139 9.00773 7.20619 -6.43605
1787 3 16.2139 7.20619 9.00773 -6.48126
2037 3 14.4124 9.00773 9.00773 -6.48211
3778 1 16.2139 7.20619 5.40464 -7.8497
779 2 1.80155 10.8093 5.40464 -7.02456
1028 2 0 12.6108 5.40464 -7.03124
1778 1 0 10.8093 7.20619 -8.1196
2029 3 3.60309 12.6108 5.40464 -6.59804
2028 3 1.80155 12.6108 7.20619 -6.4302
2286 2 1.80155 10.8093 9.00773 -7.00217
2280 1 3.60309 10.8093 7.20619 -8.53162
2537 1 0 12.6108 9.00773 -8.12426
3038 3 3.60309 12.6108 9.00773 -6.49016
1779 3 5.40464 10.8093 5.40464 -6.65039
2531 3 5.40464 12.6108 7.20619 -6.50858
2787 3 5.40464 10.8093 9.00773 -6.50257
2779 3 7.20619 10.8093 7.20619 -6.67492
2778 2 9.00773 10.8093 5.40464 -7.15792
3030 2 9.00773 12.6108 7.20619 -7.16311
3029 2 7.20619 12.6108 5.40464 -7.06637
3288 2 9.00773 10.8093 9.00773 -6.95196
3539 1 7.20619 12.6108 9.00773 -8.47694
13 2 10.8093 12.6108 5.40464 -7.09139
23 2 10.8093 12.6108 9.00773 -6.98486
3280 3 10.8093 10.8093 7.20619 -6.64124
3531 3 12.6108 12.6108 7.20619 -6.47471
3789 1 12.6108 10.8093 9.00773 -8.18223
3779 2 12.6108 10.8093 5.40464 -7.02011
14 3 16.2139 12.6108 7.20619 -6.55729
258 3 16.2139 10.8093 9.00773 -6.46159
539 1 14.4124 12.6108 9.00773 -8.21978
780 3 16.2139 10.8093 5.40464 -6.41266
1029 1 14.4124 12.6108 5.40464 -8.38454
3780 2 14.4124 10.8093 7.20619 -6.91335
282 1 0 14.4124 7.20619 -8.27376
531 2 1.80155 16.2139 7.20619 -6.9592
790 1 1.80155 14.4124 9.00773 -8.28404
781 3 3.60309 14.4124 7.20619 -6.52986
1039 2 0 16.2139 9.00773 -7.08373
1540 3 3.60309 16.2139 9.00773 -6.44228
1780 3 1.80155 14.4124 5.40464 -6.54689
2030 3 0 16.2139 5.40464 -6.41126
3031 1 3.60309 16.2139 5.40464 -8.33448
1030 3 5.40464 16.2139 7.20619 -6.40073
1290 2 5.40464 14.4124 9.00773 -6.86871
2780 3 5.40464 14.4124 5.40464 -6.52616
15 3 7.20619 16.2139 5.40464 -6.43444
1282 1 7.20619 14.4124 7.20619 -8.36667
1532 2 9.00773 16.2139 7.20619 -7.04766
1790 1 9.00773 14.4124 9.00773 -8.34732
2040 2 7.20619 16.2139 9.00773 -7.03103
3781 2 9.00773 14.4124 5.40464 -7.09247
782 1 12.6108 14.4124 5.40464 -8.34903
1031 2 10.8093 16.2139 5.40464 -7.1022
1781 2 10.8093 14.4124 7.20619 -7.14066
2031 2 12.6108 16.2139 7.20619 -7.04326
2289 3 12.6108 14.4124 9.00773 -6.47248
2540 2 10.8093 16.2139 9.00773 -7.04202
1782 2 16.2139 14.4124 5.40464 -7.00552
2032 3 14.4124 16.2139 5.40464 -6.48247
2281 3 14.4124 14.4124 7.20619 -6.45097
2532 2 16.2139 16.2139 7.20619 -7.06441
2790 2 16.2139 14.4124 9.00773 -7.05785
3041 1 14.4124 16.2139 9.00773 -8.29853
251 3 3.60309 0 10.8093 -6.53713
253 2 0 3.60309 10.8093 -6.99322
16 3 0 1.80155 12.6108 -6.55475
785 2 1.80155 3.60309 12.6108 -7.03251
1032 3 3.60309 1.80155 12.6108 -6.51495
1285 1 3.60309 3.60309 10.8093 -8.12151
3281 1 0 0 10.8093 -8.49398
3532 3 1.80155 1.80155 10.8093 -6.49419
3782 3 1.80155 0 12.6108 -6.69275
532 1 5.40464 1.80155 10.8093 -8.05712
783 3 5.40464 0 12.6108 -6.54015
1785 1 5.40464 3.60309 12.6108 -7.99974
1283 1 7.20619 0 10.8093 -8.01776
1533 3 9.00773 1.80155 10.8093 -6.18642
1783 1 9.00773 0 12.6108 -8.00891
2033 1 7.20619 1.80155 12.6108 -8.09123
2284 3 7.20619 3.60309 10.8093 -6.15886
2783 3 9.00773 3.60309 12.6108 -6.26716
2282 3 10.8093 0 10.8093 -6.40141
2533 2 12.6108 1.80155 10.8093 -6.92594
2782 2 12.6108 0 12.6108 -7.03675
3033 1 10.8093 1.80155 12.6108 -8.29241
3284 3 10.8093 3.60309 10.8093 -6.32486
3785 3 12.6108 3.60309 12.6108 -6.38735
254 3 14.4124 3.60309 10.8093 -6.49031
18 3 14.4124 1.80155 12.6108 -6.35612
786 1 16.2139 3.60309 12.6108 -8.13585
3283 1 14.4124 0 10.8093 -8.28857
3534 3 16.2139 1.80155 10.8093 -6.3588
3784 1 16.2139 0 12.6108 -8.16683
534 2 1.80155 5.40464 10.8093 -7.06679
1034 2 0 5.40464 12.6108 -6.97034
2035 1 3.60309 5.40464 12.6108 -7.95521
1535 1 5.40464 5.40464 10.8093 -8.02431
2535 1 9.00773 5.40464 10.8093 -8.19922
3034 3 7.20619 5.40464 12.6108 -6.28853
19 1 10.8093 5.40464 12.6108 -8.44819
3535 2 12.6108 5.40464 10.8093 -6.92268
535 3 16.2139 5.40464 10.8093 -6.40348
1035 1 14.4124 5.40464 12.6108 -8.31753
1286 3 0 7.20619 10.8093 -6.56187
1536 3 1.80155 9.00773 10.8093 -6.55322
1786 1 1.80155 7.20619 12.6108 -8.22575
2036 2 0 9.00773 12.6108 -6.94913
2285 1 3.60309 7.20619 10.8093 -8.21567
3036 2 3.60309 9.00773 12.6108 -6.96061
2536 1 5.40464 9.00773 10.8093 -8.3849
2785 2 5.40464 7.20619 12.6108 -6.96795
21 3 7.20619 9.00773 12.6108 -6.56252
3286 1 7.20619 7.20619 10.8093 -8.14275
3537 3 9.00773 9.00773 10.8093 -6.50628
3787 2 9.00773 7.20619 12.6108 -7.04471
256 2 10.8093 7.20619 10.8093 -7.02681
537 3 12.6108 9.00773 10.8093 -6.44269
788 3 12.6108 7.20619 12.6108 -6.49599
1037 2 10.8093 9.00773 12.6108 -7.08091
1288 3 14.4124 7.20619 10.8093 -6.48638
1538 2 16.2139 9.00773 10.8093 -6.97117
1788 1 16.2139 7.20619 12.6108 -8.02112
2038 1 14.4124 9.00773 12.6108 -8.30679
22 3 3.60309 12.6108 12.6108 -6.49809
2287 2 0 10.8093 10.8093 -7.06295
2538 2 1.80155 12.6108 10.8093 -7.11779
2786 2 1.80155 10.8093 12.6108 -7.07128
3037 2 0 12.6108 12.6108 -7.05009
3287 2 3.60309 10.8093 10.8093 -6.96867
3538 3 5.40464 12.6108 10.8093 -6.53544
3788 3 5.40464 10.8093 12.6108 -6.48702
257 3 7.20619 10.8093 10.8093 -6.56801
538 2 9.00773 12.6108 10.8093 -6.97832
789 3 9.00773 10.8093 12.6108 -6.66181
1038 3 7.20619 12.6108 12.6108 -6.53074
1289 1 10.8093 10.8093 10.8093 -8.21475
1539 1 12.6108 12.6108 10.8093 -8.00809
1789 2 12.6108 10.8093 12.6108 -7.03146
2039 2 10.8093 12.6108 12.6108 -7.0096
2288 1 14.4124 10.8093 10.8093 -8.1516
2539 1 16.2139 12.6108 10.8093 -8.08488
2788 3 16.2139 10.8093 12.6108 -6.34521
3039 2 14.4124 12.6108 12.6108 -7.07888
259 1 3.60309 14.4124 10.8093 -8.40154
24 2 0 16.2139 12.6108 -7.06059
1040 2 3.60309 16.2139 12.6108 -7.08518
3289 2 0 14.4124 10.8093 -7.08529
3540 2 1.80155 16.2139 10.8093 -7.03825
3790 1 1.80155 14.4124 12.6108 -8.2685
540 3 5.40464 16.2139 10.8093 -6.59978
791 3 5.40464 14.4124 12.6108 -6.59522
1291 3 7.20619 14.4124 10.8093 -6.55009
1541 3 9.00773 16.2139 10.8093 -6.51259
1791 1 9.00773 14.4124 12.6108 -8.41127
2041 2 7.20619 16.2139 12.6108 -7.02708
2290 3 10.8093 14.4124 10.8093 -6.42957
2541 3 12.6108 16.2139 10.8093 -6.42178
2789 1 12.6108 14.4124 12.6108 -8.16371
3040 1 10.8093 16.2139 12.6108 -8.39687
25 2 14.4124 16.2139 12.6108 -7.01692
3290 1 14.4124 14.4124 10.8093 -8.05116
3541 2 16.2139 16.2139 10.8093 -7.02933
3791 2 16.2139 14.4124 12.6108 -7.14601
260 2 0 0 14.4124 -7.10604
541 2 1.80155 1.80155 14.4124 -7.10819
792 1 1.80155 0 16.2139 -8.31573
1041 2 0 1.80155 16.2139 -7.00718
1293 1 0 3.60309 14.4124 -8.16091
1292 2 3.60309 0 14.4124 -7.12294
1793 3 1.80155 3.60309 16.2139 -6.51719
2042 2 3.60309 1.80155 16.2139 -7.0518
2292 2 3.60309 3.60309 14.4124 -7.05701
1542 2 5.40464 1.80155 14.4124 -6.92274
1792 1 5.40464 0 16.2139 -8.40824
2792 3 5.40464 3.60309 16.2139 -6.3687
2291 3 7.20619 0 14.4124 -6.39297
2542 1 9.00773 1.80155 14.4124 -8.17012
2791 1 9.00773 0 16.2139 -8.24915
3042 3 7.20619 1.80155 16.2139 -6.33716
3292 1 7.20619 3.60309 14.4124 -8.13585
3793 2 9.00773 3.60309 16.2139 -6.98475
262 2 10.8093 3.60309 14.4124 -6.96334
26 3 10.8093 1.80155 16.2139 -6.39045
794 3 12.6108 3.60309 16.2139 -6.49097
3291 2 10.8093 0 14.4124 -7.07195
3542 1 12.6108 1.80155 14.4124 -8.23536
3792 1 12.6108 0 16.2139 -7.94937
261 2 14.4124 0 14.4124 -6.98466
542 1 16.2139 1.80155 14.4124 -8.15852
793 3 16.2139 0 16.2139 -6.46687
1042 2 14.4124 1.80155 16.2139 -7.0652
1294 1 14.4124 3.60309 14.4124 -8.16812
1794 2 16.2139 3.60309 16.2139 -7.11933
1543 1 1.80155 5.40464 14.4124 -8.04458
2043 1 0 5.40464 16.2139 -8.08465
3043 2 3.60309 5.40464 16.2139 -6.90142
2543 1 5.40464 5.40464 14.4124 -8.25899
27 1 7.20619 5.40464 16.2139 -7.97674
3543 2 9.00773 5.40464 14.4124 -6.94428
543 3 12.6108 5.40464 14.4124 -6.43377
1043 3 10.8093 5.40464 16.2139 -6.45711
1544 1 16.2139 5.40464 14.4124 -8.102
2044 2 14.4124 5.40464 16.2139 -6.97436
28 3 3.60309 9.00773 16.2139 -6.40104
2293 1 0 7.20619 14.4124 -8.27119
2544 3 1.80155 9.00773 14.4124 -6.466
2793 1 1.80155 7.20619 16.2139 -8.13142
3044 2 0 9.00773 16.2139 -6.90654
3293 3 3.60309 7.20619 14.4124 -6.39379
3544 3 5.40464 9.00773 14.4124 -6.48843
3794 3 5.40464 7.20619 16.2139 -6.44284
263 3 7.20619 7.20619 14.4124 -6.46513
544 2 9.00773 9.00773 14.4124 -7.0911
795 1 9.00773 7.20619 16.2139 -8.21728
1044 1 7.20619 9.00773 16.2139 -8.3145
1295 2 10.8093 7.20619 14.4124 -7.04349
1545 2 12.6108 9.00773 14.4124 -7.0491
1795 1 12.6108 7.20619 16.2139 -8.34724
2045 3 10.8093 9.00773 16.2139 -6.48191
2294 3 14.4124 7.20619 14.4124 -6.37385
2545 1 16.2139 9.00773 14.4124 -8.15926
2794 3 16.2139 7.20619 16.2139 -6.50376
3045 2 14.4124 9.00773 16.2139 -7.01488
264 1 3.60309 10.8093 14.4124 -8.44306
29 1 0 12.6108 16.2139 -8.48437
1045 2 3.60309 12.6108 16.2139 -6.9338
3294 3 0 10.8093 14.4124 -6.59889
3545 3 1.80155 12.6108 14.4124 -6.56662
3795 3 1.80155 10.8093 16.2139 -6.47549
545 1 5.40464 12.6108 14.4124 -8.34689
796 1 5.40464 10.8093 16.2139 -8.12808
1296 2 7.20619 10.8093 14.4124 -7.00878
1546 2 9.00773 12.6108 14.4124 -7.03287
1796 2 9.00773 10.8093 16.2139 -6.99361
2046 1 7.20619 12.6108 16.2139 -8.11807
2295 3 10.8093 10.8093 14.4124 -6.69364
2546 3 12.6108 12.6108 14.4124 -6.48865
2795 1 12.6108 10.8093 16.2139 -8.52593
3046 2 10.8093 12.6108 16.2139 -7.03873
30 3 14.4124 12.6108 16.2139 -6.61408
3295 2 14.4124 10.8093 14.4124 -7.03243
3546 3 16.2139 12.6108 14.4124 -6.59072
3796 3 16.2139 10.8093 16.2139 -6.61859
265 3 0 14.4124 14.4124 -6.45876
546 1 1.80155 16.2139 14.4124 -8.0215
797 2 1.80155 14.4124 16.2139 -7.02026
1046 1 0 16.2139 16.2139 -8.15717
1297 2 3.60309 14.4124 14.4124 -6.98929
2047 2 3.60309 16.2139 16.2139 -7.04179
1547 2 5.40464 16.2139 14.4124 -7.09017
1797 3 5.40464 14.4124 16.2139 -6.39518
2296 3 7.20619 14.4124 14.4124 -6.47943
2547 3 9.00773 16.2139 14.4124 -6.40531
2796 1 9.00773 14.4124 16.2139 -8.20318
3047 3 7.20619 16.2139 16.2139 -6.46832
31 3 10.8093 16.2139 16.2139 -6.312
3296 1 10.8093 14.4124 14.4124 -8.09678
3547 3 12.6108 16.2139 14.4124 -6.44565
3797 1 12.6108 14.4124 16.2139 -8.25076
266 2 14.4124 14.4124 14.4124 -7.0128
547 2 16.2139 16.2139 14.4124 -7.10221
798 3 16.2139 14.4124 16.2139 -6.63502
1047 1 14.4124 16.2139 16.2139 -8.39418
285 2 3.60309 3.60309 21.6186 -6.84867
1298 2 0 0 18.0155 -6.9926
1548 3 1.80155 1.80155 18.0155 -6.59871
1798 3 1.80155 0 19.817 -6.55942
2048 3 0 1.80155 19.817 -6.60779
2300 3 0 3.60309 18.0155 -6.49171
2298 3 3.60309 0 18.0155 -6.54263
2297 3 0 0 21.6186 -6.52936
2548 3 1.80155 1.80155 21.6186 -6.5005
2798 3 1.80155 3.60309 19.817 -6.56838
3048 3 3.60309 1.80155 19.817 -6.43335
3300 3 3.60309 3.60309 18.0155 -6.42027
3299 3 0 3.60309 21.6186 -6.59692
3297 1 3.60309 0 21.6186 -8.52689
2549 1 5.40464 1.80155 18.0155 -8.27971
2797 3 5.40464 0 19.817 -6.49388
3548 3 5.40464 1.80155 21.6186 -6.26865
3799 1 5.40464 3.60309 19.817 -8.16885
501 2 9.00773 1.80155 21.6186 -7.13418
32 1 7.20619 1.80155 19.817 -8.01107
286 1 7.20619 3.60309 18.0155 -8.01718
283 2 7.20619 0 21.6186 -6.9701
800 1 9.00773 3.60309 19.817 -7.97546
1301 1 7.20619 3.60309 21.6186 -8.12072
3298 2 7.20619 0 18.0155 -6.97922
3549 2 9.00773 1.80155 18.0155 -7.02062
3798 1 9.00773 0 19.817 -8.08425
502 2 12.6108 1.80155 18.0155 -7.03212
284 1 10.8093 0 18.0155 -7.91009
799 1 12.6108 0 19.817 -8.03114
1048 1 10.8093 1.80155 19.817 -7.99842
1302 3 10.8093 3.60309 18.0155 -6.42799
1299 1 10.8093 0 21.6186 -8.10725
1549 2 12.6108 1.80155 21.6186 -7.03877
1800 1 12.6108 3.60309 19.817 -8.31272
2301 2 10.8093 3.60309 21.6186 -7.04853
1300 1 14.4124 0 18.0155 -8.25672
1550 2 16.2139 1.80155 18.0155 -7.04844
1799 3 16.2139 0 19.817 -6.47934
2049 2 14.4124 1.80155 19.817 -7.01038
2302 1 14.4124 3.60309 18.0155 -8.35305
2299 3 14.4124 0 21.6186 -6.37326
2550 1 16.2139 1.80155 21.6186 -8.29334
2799 2 16.2139 3.60309 19.817 -7.04549
3301 3 14.4124 3.60309 21.6186 -6.38625
33 2 3.60309 5.40464 19.817 -7.0174
2551 1 1.80155 5.40464 18.0155 -8.3543
3049 2 0 5.40464 19.817 -6.97071
3550 1 1.80155 5.40464 21.6186 -8.53256
503 3 5.40464 5.40464 21.6186 -6.40293
3551 1 5.40464 5.40464 18.0155 -8.28157
504 1 9.00773 5.40464 18.0155 -8.15784
1049 3 7.20619 5.40464 19.817 -6.26215
1551 1 9.00773 5.40464 21.6186 -8.03659
1552 3 12.6108 5.40464 18.0155 -6.36688
2050 2 10.8093 5.40464 19.817 -6.97343
2552 3 12.6108 5.40464 21.6186 -6.30873
2553 2 16.2139 5.40464 18.0155 -7.1072
3050 2 14.4124 5.40464 19.817 -7.0018
3552 3 16.2139 5.40464 21.6186 -6.53126
505 3 1.80155 9.00773 21.6186 -6.5351
34 2 0 9.00773 19.817 -7.03541
288 2 3.60309 7.20619 18.0155 -7.06223
287 2 0 7.20619 21.6186 -6.97477
1050 1 3.60309 9.00773 19.817 -8.44994
1303 2 3.60309 7.20619 21.6186 -6.98488
3302 3 0 7.20619 18.0155 -6.4038
3553 1 1.80155 9.00773 18.0155 -8.37191
3800 2 1.80155 7.20619 19.817 -7.03102
506 2 5.40464 9.00773 18.0155 -6.95325
801 2 5.40464 7.20619 19.817 -7.0255
1553 3 5.40464 9.00773 21.6186 -6.57539
1304 2 7.20619 7.20619 18.0155 -6.96643
1554 3 9.00773 9.00773 18.0155 -6.42949
1801 3 9.00773 7.20619 19.817 -6.37531
2051 3 7.20619 9.00773 19.817 -6.61157
2303 1 7.20619 7.20619 21.6186 -8.34642
2554 2 9.00773 9.00773 21.6186 -6.9731
2304 1 10.8093 7.20619 18.0155 -8.14773
2555 3 12.6108 9.00773 18.0155 -6.30202
2800 1 12.6108 7.20619 19.817 -8.09691
3051 1 10.8093 9.00773 19.817 -8.22339
3303 2 10.8093 7.20619 21.6186 -7.04517
3554 1 12.6108 9.00773 21.6186 -8.00815
507 1 16.2139 9.00773 21.6186 -8.16336
35 1 14.4124 9.00773 19.817 -7.98786
289 2 14.4124 7.20619 21.6186 -7.0458
3304 1 14.4124 7.20619 18.0155 -8.26758
3555 2 16.2139 9.00773 18.0155 -7.11502
3801 3 16.2139 7.20619 19.817 -6.53567
508 3 1.80155 12.6108 18.0155 -6.46832
290 3 0 10.8093 18.0155 -6.49379
802 3 1.80155 10.8093 19.817 -6.43259
1051 3 0 12.6108 19.817 -6.46733
1306 3 3.60309 10.8093 18.0155 -6.38493
1305 1 0 10.8093 21.6186 -8.31779
1555 2 1.80155 12.6108 21.6186 -6.98891
2052 1 3.60309 12.6108 19.817 -8.31196
2305 3 3.60309 10.8093 21.6186 -6.43063
1556 1 5.40464 12.6108 18.0155 -8.08414
1802 2 5.40464 10.8093 19.817 -6.9467
2556 1 5.40464 12.6108 21.6186 -8.13837
2306 3 7.20619 10.8093 18.0155 -6.51904
2557 2 9.00773 12.6108 18.0155 -7.08102
2801 3 9.00773 10.8093 19.817 -6.60043
3052 2 7.20619 12.6108 19.817 -7.04004
3305 3 7.20619 10.8093 21.6186 -6.59873
3556 3 9.00773 12.6108 21.6186 -6.54652
509 2 12.6108 12.6108 21.6186 -7.05264
36 3 10.8093 12.6108 19.817 -6.51779
291 2 10.8093 10.8093 21.6186 -7.04722
3306 3 10.8093 10.8093 18.0155 -6.49356
3557 2 12.6108 12.6108 18.0155 -6.98749
3802 1 12.6108 10.8093 19.817 -8.25888
510 2 16.2139 12.6108 18.0155 -7.08715
292 2 14.4124 10.8093 18.0155 -7.04365
803 1 16.2139 10.8093 19.817 -8.18997
1052 3 14.4124 12.6108 19.817 -6.58036
1307 2 14.4124 10.8093 21.6186 -7.13249
1557 2 16.2139 12.6108 21.6186 -7.10741
1308 2 0 14.4124 18.0155 -7.00925
1558 1 1.80155 16.2139 18.0155 -8.10941
1803 2 1.80155 14.4124 19.817 -6.9758
2053 1 0 16.2139 19.817 -8.22802
2308 1 3.60309 14.4124 18.0155 -8.09962
2307 1 0 14.4124 21.6186 -8.18115
2558 3 1.80155 16.2139 21.6186 -6.32903
3053 2 3.60309 16.2139 19.817 -6.93247
3307 3 3.60309 14.4124 21.6186 -6.35566
2559 1 5.40464 16.2139 18.0155 -8.33185
2802 1 5.40464 14.4124 19.817 -7.96026
3558 1 5.40464 16.2139 21.6186 -8.11064
511 3 9.00773 16.2139 21.6186 -6.3067
37 3 7.20619 16.2139 19.817 -6.25939
293 1 7.20619 14.4124 21.6186 -8.19687
3308 1 7.20619 14.4124 18.0155 -8.0888
3559 2 9.00773 16.2139 18.0155 -7.01136
3803 2 9.00773 14.4124 19.817 -6.90827
512 3 12.6108 16.2139 18.0155 -6.40387
294 1 10.8093 14.4124 18.0155 -8.15571
804 1 12.6108 14.4124 19.817 -8.27096
1053 1 10.8093 16.2139 19.817 -8.04366
1309 1 10.8093 14.4124 21.6186 -8.37905
1559 2 12.6108 16.2139 21.6186 -7.12609
1310 2 14.4124 14.4124 18.0155 -7.01851
1560 3 16.2139 16.2139 18.0155 -6.6131
1804 3 16.2139 14.4124 19.817 -6.66763
2054 2 14.4124 16.2139 19.817 -7.02291
2309 2 14.4124 14.4124 21.6186 -7.07369
2560 1 16.2139 16.2139 21.6186 -8.31993
38 1 3.60309 1.80155 23.4201 -8.21879
1806 2 0 3.60309 25.2217 -6.93009
2310 1 3.60309 3.60309 25.2217 -8.14687
2803 3 1.80155 0 23.4201 -6.26876
3054 3 0 1.80155 23.4201 -6.4931
3309 1 0 0 25.2217 -8.16968
3560 1 1.80155 1.80155 25.2217 -8.0778
3806 3 1.80155 3.60309 23.4201 -6.37483
3805 1 3.60309 0 25.2217 -8.00746
39 1 5.40464 1.80155 25.2217 -8.00444
807 3 5.40464 3.60309 23.4201 -6.33628
3804 3 5.40464 0 23.4201 -6.27907
513 3 9.00773 1.80155 25.2217 -6.34841
295 1 7.20619 0 25.2217 -8.34016
805 2 9.00773 0 23.4201 -6.99364
1054 1 7.20619 1.80155 23.4201 -8.1985
1807 1 9.00773 3.60309 23.4201 -7.95463
2805 3 7.20619 3.60309 25.2217 -6.33411
806 1 10.8093 0 25.2217 -8.26709
1055 3 12.6108 1.80155 25.2217 -6.29931
1805 3 12.6108 0 23.4201 -6.25976
2055 1 10.8093 1.80155 23.4201 -8.11367
2806 1 12.6108 3.60309 23.4201 -8.17211
3310 1 10.8093 3.60309 25.2217 -8.13135
1311 1 14.4124 0 25.2217 -8.17298
1561 3 16.2139 1.80155 25.2217 -6.34863
2804 2 16.2139 0 23.4201 -6.94441
3055 1 14.4124 1.80155 23.4201 -8.2105
3808 3 14.4124 3.60309 25.2217 -6.26992
3807 1 16.2139 3.60309 23.4201 -8.38106
40 3 0 5.40464 23.4201 -6.48272
1056 3 3.60309 5.40464 23.4201 -6.45996
2056 1 1.80155 5.40464 25.2217 -8.30749
2561 2 5.40464 5.40464 25.2217 -6.93104
2057 3 7.20619 5.40464 23.4201 -6.29692
3056 1 9.00773 5.40464 25.2217 -8.14757
3057 1 10.8093 5.40464 23.4201 -7.97532
3561 1 12.6108 5.40464 25.2217 -8.20566
42 1 16.2139 5.40464 25.2217 -8.3334
41 3 14.4124 5.40464 23.4201 -6.29641
514 2 1.80155 9.00773 25.2217 -7.03592
296 1 0 7.20619 25.2217 -8.33056
809 2 3.60309 7.20619 25.2217 -6.97127
808 3 1.80155 7.20619 23.4201 -6.52067
1057 3 0 9.00773 23.4201 -6.42213
2058 3 3.60309 9.00773 23.4201 -6.56076
1058 3 5.40464 9.00773 25.2217 -6.53524
1808 1 5.40464 7.20619 23.4201 -8.47024
1312 2 7.20619 7.20619 25.2217 -7.01982
1562 1 9.00773 9.00773 25.2217 -8.2043
2807 1 9.00773 7.20619 23.4201 -8.07351
3058 2 7.20619 9.00773 23.4201 -6.99898
43 2 10.8093 9.00773 23.4201 -6.99315
1809 3 10.8093 7.20619 25.2217 -6.1561
2059 1 12.6108 9.00773 25.2217 -8.24625
3809 1 12.6108 7.20619 23.4201 -8.13248
810 3 16.2139 7.20619 23.4201 -6.47278
1059 1 14.4124 9.00773 23.4201 -8.02484
2311 3 14.4124 7.20619 25.2217 -6.24006
2562 2 16.2139 9.00773 25.2217 -7.01521
1810 1 1.80155 10.8093 23.4201 -8.23966
2060 2 0 12.6108 23.4201 -7.01099
2808 1 0 10.8093 25.2217 -8.36783
3060 1 3.60309 12.6108 23.4201 -8.20149
3059 2 1.80155 12.6108 25.2217 -7.0628
3311 2 3.60309 10.8093 25.2217 -7.00972
2809 2 5.40464 10.8093 23.4201 -6.99243
3562 3 5.40464 12.6108 25.2217 -6.58156
45 2 9.00773 12.6108 25.2217 -6.93514
44 2 7.20619 12.6108 23.4201 -7.00514
3811 3 7.20619 10.8093 25.2217 -6.47785
3810 1 9.00773 10.8093 23.4201 -8.45848
515 1 12.6108 12.6108 25.2217 -8.2039
297 3 10.8093 10.8093 25.2217 -6.3378
811 2 12.6108 10.8093 23.4201 -7.02985
1060 3 10.8093 12.6108 23.4201 -6.55087
812 1 14.4124 10.8093 25.2217 -8.08902
1061 3 16.2139 12.6108 25.2217 -6.34436
1811 1 16.2139 10.8093 23.4201 -8.00614
2061 1 14.4124 12.6108 23.4201 -8.10392
46 3 3.60309 16.2139 23.4201 -6.36494
1313 1 0 14.4124 25.2217 -8.2862
1563 1 1.80155 16.2139 25.2217 -8.19933
1812 2 3.60309 14.4124 25.2217 -6.99741
2810 1 1.80155 14.4124 23.4201 -8.19054
3061 3 0 16.2139 23.4201 -6.17283
2062 3 5.40464 16.2139 25.2217 -6.48673
3812 2 5.40464 14.4124 23.4201 -6.98811
813 2 9.00773 14.4124 23.4201 -6.96211
1062 1 7.20619 16.2139 23.4201 -8.23422
2312 2 7.20619 14.4124 25.2217 -6.98164
2563 3 9.00773 16.2139 25.2217 -6.46107
1813 2 12.6108 14.4124 23.4201 -7.06913
2063 3 10.8093 16.2139 23.4201 -6.60082
2811 3 10.8093 14.4124 25.2217 -6.50817
3062 2 12.6108 16.2139 25.2217 -7.05937
2812 2 16.2139 14.4124 23.4201 -7.03689
3063 2 14.4124 16.2139 23.4201 -7.03527
3312 1 14.4124 14.4124 25.2217 -8.10754
3563 3 16.2139 16.2139 25.2217 -6.42333
751 1 1.80155 0 30.6263 -8.18747
47 1 0 1.80155 27.0232 -7.96842
298 3 0 0 28.8247 -6.31188
549 3 3.60309 1.80155 27.0232 -6.12975
548 1 1.80155 1.80155 28.8247 -7.99063
1063 1 0 1.80155 30.6263 -7.90743
1316 1 0 3.60309 28.8247 -7.86152
1314 1 3.60309 0 28.8247 -8.17614
1816 1 1.80155 3.60309 30.6263 -8.1197
2064 3 3.60309 1.80155 30.6263 -6.31444
2315 2 3.60309 3.60309 28.8247 -6.98211
2314 1 1.80155 3.60309 27.0232 -7.9247
3813 1 1.80155 0 27.0232 -8.04168
299 1 5.40464 0 27.0232 -8.15357
1564 2 5.40464 1.80155 28.8247 -6.98852
1814 2 5.40464 0 30.6263 -7.05286
2815 1 5.40464 3.60309 30.6263 -8.26884
2814 1 5.40464 3.60309 27.0232 -8.33775
752 2 9.00773 0 27.0232 -6.96685
1064 2 7.20619 1.80155 27.0232 -7.00955
2313 1 7.20619 0 28.8247 -8.22919
2564 1 9.00773 1.80155 28.8247 -8.15997
2813 3 9.00773 0 30.6263 -6.38112
3064 1 7.20619 1.80155 30.6263 -8.09299
3315 3 7.20619 3.60309 28.8247 -6.46591
3314 3 9.00773 3.60309 27.0232 -6.49212
3815 1 9.00773 3.60309 30.6263 -8.13256
754 3 12.6108 3.60309 30.6263 -6.63781
48 2 10.8093 1.80155 30.6263 -6.99552
301 2 10.8093 3.60309 28.8247 -7.04886
1315 2 12.6108 0 27.0232 -7.00919
1565 2 10.8093 1.80155 27.0232 -6.98603
3313 1 10.8093 0 28.8247 -8.3568
3564 2 12.6108 1.80155 28.8247 -7.03814
3816 3 12.6108 3.60309 27.0232 -6.52656