ITEM: TIMESTEP
0
ITEM: NUMBER OF ATOMS
4000
ITEM: BOX BOUNDS pp pp pp
0.0000000000000000e+00 3.6097780000000000e+01
0.0000000000000000e+00 3.6097780000000000e+01
0.0000000000000000e+00 3.6097780000000000e+01
ITEM: ATOMS id type x y z c_peratom
267 3 0 0 0 -6.32686
516 2 1.80489 1.80489 0 -7.04411
767 2 1.80489 0 1.80489 -7.03156
1016 3 0 1.80489 1.80489 -6.49497
1267 2 0 0 3.60978 -6.96992
1517 3 1.80489 1.80489 3.60978 -6.57179
1268 2 3.60978 0 0 -7.04976
1518 2 5.41467 1.80489 0 -6.99982
1767 1 5.41467 0 1.80489 -8.28756
2017 3 3.60978 1.80489 1.80489 -6.61708
2266 2 3.60978 0 3.60978 -6.97793
2517 1 5.41467 1.80489 3.60978 -8.40437
1 1 10.8293 1.80489 1.80489 -8.30098
268 3 10.8293 0 3.60978 -6.48275
2267 3 7.21956 0 0 -6.44811
2518 2 9.02445 1.80489 0 -6.87215
2766 1 9.02445 0 1.80489 -8.25653
3017 2 7.21956 1.80489 1.80489 -6.93093
3266 3 7.21956 0 3.60978 -6.30516
3267 3 10.8293 0 0 -6.43103
3517 1 9.02445 1.80489 3.60978 -8.33257
269 3 14.4391 0 0 -6.54514
517 2 12.6342 1.80489 3.60978 -7.00851
1017 1 14.4391 1.80489 1.80489 -8.12954
1269 1 14.4391 0 3.60978 -8.18233
3518 1 12.6342 1.80489 0 -8.16637
3767 2 12.6342 0 1.80489 -7.01989
518 1 16.244 1.80489 0 -8.41811
768 3 16.244 0 1.80489 -6.46025
1519 2 16.244 1.80489 3.60978 -6.99578
1270 2 0 3.60978 0 -7.07843
1520 1 1.80489 5.41467 0 -8.11573
1768 2 1.80489 3.60978 1.80489 -7.01
2018 3 0 5.41467 1.80489 -6.43982
2268 3 0 3.60978 3.60978 -6.34804
2519 1 1.80489 5.41467 3.60978 -8.36043
2269 3 3.60978 3.60978 0 -6.53186
2520 3 5.41467 5.41467 0 -6.34531
2767 3 5.41467 3.60978 1.80489 -6.45997
3018 1 3.60978 5.41467 1.80489 -8.23091
3268 2 3.60978 3.60978 3.60978 -6.98606
3519 1 5.41467 5.41467 3.60978 -8.23152
2 1 7.21956 5.41467 1.80489 -8.38557
271 2 10.8293 3.60978 0 -7.07246
270 3 7.21956 3.60978 3.60978 -6.27088
519 1 9.02445 5.41467 3.60978 -8.17105
1018 2 10.8293 5.41467 1.80489 -7.00671
1271 2 10.8293 3.60978 3.60978 -7.00128
3269 3 7.21956 3.60978 0 -6.4735
3520 2 9.02445 5.41467 0 -6.90878
3768 3 9.02445 3.60978 1.80489 -6.46381
520 3 12.6342 5.41467 0 -6.62178
769 3 12.6342 3.60978 1.80489 -6.53746
1272 2 14.4391 3.60978 0 -6.99322
1521 2 12.6342 5.41467 3.60978 -6.95817
2019 3 14.4391 5.41467 1.80489 -6.61284
2270 1 14.4391 3.60978 3.60978 -8.23727
1522 3 16.244 5.41467 0 -6.67417
1769 3 16.244 3.60978 1.80489 -6.55393
2521 3 16.244 5.41467 3.60978 -6.46635
274 3 0 10.8293 3.60978 -6.24389
2271 1 0 7.21956 0 -8.12307
2522 1 1.80489 9.02445 0 -8.12864
2768 2 1.80489 7.21956 1.80489 -7.03143
3019 1 0 9.02445 1.80489 -8.26453
3273 3 0 10.8293 0 -6.5332
3270 2 0 7.21956 3.60978 -6.96169
3521 1 1.80489 9.02445 3.60978 -8.22415
3770 1 1.80489 10.8293 1.80489 -7.93344
3 2 3.60978 9.02445 1.80489 -6.9525
275 2 3.60978 10.8293 0 -7.08682
272 3 3.60978 7.21956 3.60978 -6.34988
521 3 5.41467 9.02445 3.60978 -6.46649
771 3 5.41467 10.8293 1.80489 -6.59032
1275 1 3.60978 10.8293 3.60978 -8.11563
3271 1 3.60978 7.21956 0 -8.1143
3522 3 5.41467 9.02445 0 -6.56969
3769 3 5.41467 7.21956 1.80489 -6.38266
273 3 7.21956 7.21956 0 -6.38599
522 1 9.02445 9.02445 0 -8.51046
770 1 9.02445 7.21956 1.80489 -8.08597
1019 3 7.21956 9.02445 1.80489 -6.46153
1276 2 7.21956 10.8293 0 -6.9952
1274 3 10.8293 7.21956 0 -6.56965
1273 3 7.21956 7.21956 3.60978 -6.33072
1523 1 9.02445 9.02445 3.60978 -8.40531
1771 3 9.02445 10.8293 1.80489 -6.52589
2020 3 10.8293 9.02445 1.80489 -6.4698
2275 2 10.8293 10.8293 0 -7.06128
2274 3 7.21956 10.8293 3.60978 -6.59046
2272 1 10.8293 7.21956 3.60978 -8.06543
3274 2 10.8293 10.8293 3.60978 -6.98433
276 3 14.4391 10.8293 3.60978 -6.48681
1524 2 12.6342 9.02445 0 -7.07305
1770 3 12.6342 7.21956 1.80489 -6.61433
2273 2 14.4391 7.21956 0 -7.08062
2523 1 12.6342 9.02445 3.60978 -8.33436
2770 2 12.6342 10.8293 1.80489 -7.07112
3020 2 14.4391 9.02445 1.80489 -7.03693
3275 2 14.4391 10.8293 0 -7.11191
3272 3 14.4391 7.21956 3.60978 -6.4776
2524 3 16.244 9.02445 0 -6.61176
2769 2 16.244 7.21956 1.80489 -7.06004
3523 1 16.244 9.02445 3.60978 -8.16819
3771 2 16.244 10.8293 1.80489 -7.05833
4 1 0 12.6342 1.80489 -8.34624
277 3 0 14.4391 0 -6.48679
523 1 1.80489 12.6342 3.60978 -8.18198
772 3 1.80489 14.4391 1.80489 -6.39967
1277 1 0 14.4391 3.60978 -8.28651
3524 2 1.80489 12.6342 0 -7.01214
524 2 5.41467 12.6342 0 -7.02616
1020 1 3.60978 12.6342 1.80489 -8.16214
1278 2 3.60978 14.4391 0 -6.92506
1525 2 5.41467 12.6342 3.60978 -7.00183
1772 1 5.41467 14.4391 1.80489 -8.23041
2276 2 3.60978 14.4391 3.60978 -7.00234
278 1 10.8293 14.4391 3.60978 -8.13738
1526 1 9.02445 12.6342 0 -8.48336
2021 3 7.21956 12.6342 1.80489 -6.6195
2277 3 7.21956 14.4391 0 -6.43116
2525 2 9.02445 12.6342 3.60978 -7.04518
2771 2 9.02445 14.4391 1.80489 -6.94061
3021 3 10.8293 12.6342 1.80489 -6.49046
3277 3 10.8293 14.4391 0 -6.34293
3276 2 7.21956 14.4391 3.60978 -7.11636
5 3 14.4391 12.6342 1.80489 -6.61587
279 2 14.4391 14.4391 0 -6.98361
1279 3 14.4391 14.4391 3.60978 -6.49722
2526 3 12.6342 12.6342 0 -6.61391
3525 1 12.6342 12.6342 3.60978 -8.26957
3772 1 12.6342 14.4391 1.80489 -8.29259
525 2 16.244 12.6342 3.60978 -6.98614
773 3 16.244 14.4391 1.80489 -6.60317
3526 3 16.244 12.6342 0 -6.67667
526 3 1.80489 16.244 0 -6.42009
1021 2 0 16.244 1.80489 -7.00295
1527 3 1.80489 16.244 3.60978 -6.37082
1528 3 5.41467 16.244 0 -6.39465
2022 1 3.60978 16.244 1.80489 -8.16754
2527 1 5.41467 16.244 3.60978 -8.07768
6 1 10.8293 16.244 1.80489 -8.15288
2528 3 9.02445 16.244 0 -6.3998
3022 3 7.21956 16.244 1.80489 -6.59332
3527 3 9.02445 16.244 3.60978 -6.46263
527 1 12.6342 16.244 3.60978 -8.1062
1022 2 14.4391 16.244 1.80489 -6.89806
3528 3 12.6342 16.244 0 -6.40992
528 3 16.244 16.244 0 -6.5949
1529 3 16.244 16.244 3.60978 -6.5577
1773 3 1.80489 0 5.41467 -6.51408
2023 1 0 1.80489 5.41467 -8.19098
2278 3 0 0 7.21956 -6.44494
2529 3 1.80489 1.80489 7.21956 -6.43007
2773 3 3.60978 0 7.21956 -6.44213
2772 1 5.41467 0 5.41467 -8.26657
3024 1 5.41467 1.80489 7.21956 -8.39475
3023 3 3.60978 1.80489 5.41467 -6.42849
7 2 7.21956 1.80489 5.41467 -7.00108
1023 2 10.8293 1.80489 5.41467 -7.02827
3278 2 7.21956 0 7.21956 -7.03026
3529 2 9.02445 1.80489 7.21956 -7.06758
3774 2 10.8293 0 7.21956 -7.04093
3773 1 9.02445 0 5.41467 -8.31815
8 3 12.6342 1.80489 7.21956 -6.485
280 2 14.4391 0 7.21956 -7.02603
774 3 12.6342 0 5.41467 -6.51543
2024 2 14.4391 1.80489 5.41467 -7.02745
529 1 16.244 1.80489 7.21956 -8.09969
1774 1 16.244 0 5.41467 -8.02959
775 3 0 3.60978 7.21956 -6.26745
1024 1 1.80489 5.41467 7.21956 -8.39385
2774 1 1.80489 3.60978 5.41467 -8.29377
3025 3 0 5.41467 5.41467 -6.33796
9 2 3.60978 5.41467 5.41467 -6.91979
1280 3 3.60978 3.60978 7.21956 -6.46665
1530 2 5.41467 5.41467 7.21956 -6.95254
3775 3 5.41467 3.60978 5.41467 -6.39934
776 3 9.02445 3.60978 5.41467 -6.42172
1025 1 7.21956 5.41467 5.41467 -8.20096
1775 1 7.21956 3.60978 7.21956 -8.21275
2026 1 10.8293 5.41467 5.41467 -8.13941
2025 2 9.02445 5.41467 7.21956 -6.99809
2279 1 10.8293 3.60978 7.21956 -8.22815
1776 1 12.6342 3.60978 5.41467 -8.11841
2530 1 12.6342 5.41467 7.21956 -8.3541
2776 3 14.4391 3.60978 7.21956 -6.39298
3026 2 14.4391 5.41467 5.41467 -6.89882
2775 1 16.244 3.60978 5.41467 -8.2101
3027 3 16.244 5.41467 7.21956 -6.49418
10 1 0 9.02445 5.41467 -8.33955
779 3 1.80489 10.8293 5.41467 -6.35113
1778 3 0 10.8293 7.21956 -6.30562
3279 3 0 7.21956 7.21956 -6.36338
3530 2 1.80489 9.02445 7.21956 -6.91921
3776 3 1.80489 7.21956 5.41467 -6.38169
11 2 5.41467 9.02445 7.21956 -6.91213
777 1 5.41467 7.21956 5.41467 -8.23065
1026 3 3.60978 9.02445 5.41467 -6.39001
1779 1 5.41467 10.8293 5.41467 -8.28132
2280 2 3.60978 10.8293 7.21956 -6.98697
3777 1 3.60978 7.21956 7.21956 -8.28269
281 3 7.21956 7.21956 7.21956 -6.61925
530 2 9.02445 9.02445 7.21956 -7.02846
778 3 10.8293 7.21956 7.21956 -6.47388
1777 2 9.02445 7.21956 5.41467 -7.04347
2027 2 7.21956 9.02445 5.41467 -6.9779
2779 3 7.21956 10.8293 7.21956 -6.49182
2778 3 9.02445 10.8293 5.41467 -6.67873
3028 2 10.8293 9.02445 5.41467 -6.97205
3280 2 10.8293 10.8293 7.21956 -7.06145
12 1 14.4391 9.02445 5.41467 -8.0694
1027 1 12.6342 9.02445 7.21956 -8.21774
1281 3 14.4391 7.21956 7.21956 -6.36794
2777 3 12.6342 7.21956 5.41467 -6.317
3780 1 14.4391 10.8293 7.21956 -7.96145
3779 3 12.6342 10.8293 5.41467 -6.35626
780 2 16.244 10.8293 5.41467 -7.04927
1531 1 16.244 9.02445 7.21956 -8.06214
3778 1 16.244 7.21956 5.41467 -8.1748
282 2 0 14.4391 7.21956 -7.01812
1028 3 0 12.6342 5.41467 -6.29443
1780 3 1.80489 14.4391 5.41467 -6.48918
2028 1 1.80489 12.6342 7.21956 -8.45248
781 2 3.60978 14.4391 7.21956 -7.12282
2029 2 3.60978 12.6342 5.41467 -7.06315
2531 1 5.41467 12.6342 7.21956 -8.28608
2780 2 5.41467 14.4391 5.41467 -7.09354
13 2 10.8293 12.6342 5.41467 -7.04049
1282 2 7.21956 14.4391 7.21956 -7.0785
1781 1 10.8293 14.4391 7.21956 -8.14868
3030 3 9.02445 12.6342 7.21956 -6.49025
3029 2 7.21956 12.6342 5.41467 -7.12353
3781 3 9.02445 14.4391 5.41467 -6.5219
782 1 12.6342 14.4391 5.41467 -8.0449
1029 2 14.4391 12.6342 5.41467 -7.04159
2281 2 14.4391 14.4391 7.21956 -7.02094
3531 1 12.6342 12.6342 7.21956 -8.0198
14 1 16.244 12.6342 7.21956 -8.05321
1782 2 16.244 14.4391 5.41467 -7.08094
531 2 1.80489 16.244 7.21956 -7.04499
2030 3 0 16.244 5.41467 -6.33611
1030 1 5.41467 16.244 7.21956 -8.10789
3031 3 3.60978 16.244 5.41467 -6.47551
15 2 7.21956 16.244 5.41467 -7.09997
1031 1 10.8293 16.244 5.41467 -8.12589
1532 3 9.02445 16.244 7.21956 -6.39745
2032 3 14.4391 16.244 5.41467 -6.44684
2031 3 12.6342 16.244 7.21956 -6.36049
2532 3 16.244 16.244 7.21956 -6.5317
16 2 0 1.80489 12.6342 -6.92191
2781 3 1.80489 0 9.02445 -6.45977
3032 1 0 1.80489 9.02445 -8.48893
3281 2 0 0 10.8293 -7.01561
3532 3 1.80489 1.80489 10.8293 -6.4924
3782 3 1.80489 0 12.6342 -6.39419
251 1 3.60978 0 10.8293 -8.27742
532 1 5.41467 1.80489 10.8293 -8.25149
783 2 5.41467 0 12.6342 -7.04866
1032 1 3.60978 1.80489 12.6342 -8.29535
3282 3 5.41467 0 9.02445 -6.36235
3533 3 3.60978 1.80489 9.02445 -6.45447
17 2 7.21956 1.80489 9.02445 -7.00931
533 2 10.8293 1.80489 9.02445 -7.0404
1283 1 7.21956 0 10.8293 -8.06215
1533 1 9.02445 1.80489 10.8293 -8.38076
1783 3 9.02445 0 12.6342 -6.37725
2033 2 7.21956 1.80489 12.6342 -6.94897
2282 3 10.8293 0 10.8293 -6.4369
3033 2 10.8293 1.80489 12.6342 -6.98135
3783 3 9.02445 0 9.02445 -6.50898
252 1 12.6342 0 9.02445 -8.26815
18 2 14.4391 1.80489 12.6342 -6.98387
1033 1 14.4391 1.80489 9.02445 -8.1951
2533 3 12.6342 1.80489 10.8293 -6.53363
2782 1 12.6342 0 12.6342 -8.23891
3283 2 14.4391 0 10.8293 -7.01782
784 1 16.244 0 9.02445 -7.94384
3534 2 16.244 1.80489 10.8293 -6.97709
3784 3 16.244 0 12.6342 -6.52266
253 3 0 3.60978 10.8293 -6.45398
534 3 1.80489 5.41467 10.8293 -6.63626
785 2 1.80489 3.60978 12.6342 -6.99401
1034 3 0 5.41467 12.6342 -6.51965
1284 3 1.80489 3.60978 9.02445 -6.48228
1534 2 0 5.41467 9.02445 -6.93084
1285 3 3.60978 3.60978 10.8293 -6.58217
1535 3 5.41467 5.41467 10.8293 -6.62152
1785 3 5.41467 3.60978 12.6342 -6.38872
1784 2 5.41467 3.60978 9.02445 -7.03931
2035 2 3.60978 5.41467 12.6342 -6.9108
2034 2 3.60978 5.41467 9.02445 -7.01795
19 3 10.8293 5.41467 12.6342 -6.53825
2284 3 7.21956 3.60978 10.8293 -6.63066
2283 2 9.02445 3.60978 9.02445 -7.08508
2535 3 9.02445 5.41467 10.8293 -6.65442
2534 2 7.21956 5.41467 9.02445 -7.00374
2783 2 9.02445 3.60978 12.6342 -6.96296
3035 3 10.8293 5.41467 9.02445 -6.61587
3034 3 7.21956 5.41467 12.6342 -6.44152
3284 3 10.8293 3.60978 10.8293 -6.68063
254 1 14.4391 3.60978 10.8293 -8.20789
1035 2 14.4391 5.41467 12.6342 -7.05443
2784 2 12.6342 3.60978 9.02445 -6.94098
3536 3 14.4391 5.41467 9.02445 -6.44614
3535 2 12.6342 5.41467 10.8293 -7.00667
3785 3 12.6342 3.60978 12.6342 -6.59356
535 1 16.244 5.41467 10.8293 -8.26123
786 1 16.244 3.60978 12.6342 -8.08295
3285 3 16.244 3.60978 9.02445 -6.45574
20 2 0 9.02445 9.02445 -6.94733
1286 1 0 7.21956 10.8293 -8.22864
1536 1 1.80489 9.02445 10.8293 -8.38739
1786 3 1.80489 7.21956 12.6342 -6.51268
2036 2 0 9.02445 12.6342 -7.02303
2287 3 0 10.8293 10.8293 -6.39183
2286 3 1.80489 10.8293 9.02445 -6.47669
2786 1 1.80489 10.8293 12.6342 -8.18222
3786 2 1.80489 7.21956 9.02445 -6.96423
255 3 5.41467 7.21956 9.02445 -6.51681
536 3 3.60978 9.02445 9.02445 -6.43902
2285 3 3.60978 7.21956 10.8293 -6.54466
2536 1 5.41467 9.02445 10.8293 -8.30851
2787 1 5.41467 10.8293 9.02445 -8.25369
2785 3 5.41467 7.21956 12.6342 -6.38099
3036 3 3.60978 9.02445 12.6342 -6.2983
3287 3 3.60978 10.8293 10.8293 -6.34377
3788 1 5.41467 10.8293 12.6342 -8.15847
256 2 10.8293 7.21956 10.8293 -7.04485
257 1 7.21956 10.8293 10.8293 -8.15501
21 3 7.21956 9.02445 12.6342 -6.36364
789 2 9.02445 10.8293 12.6342 -7.15164
787 3 9.02445 7.21956 9.02445 -6.5979
1037 2 10.8293 9.02445 12.6342 -7.17689
1036 3 7.21956 9.02445 9.02445 -6.46258
1289 1 10.8293 10.8293 10.8293 -8.07139
1537 1 10.8293 9.02445 9.02445 -8.12108
3288 1 9.02445 10.8293 9.02445 -8.11936
3286 1 7.21956 7.21956 10.8293 -8.45746
3537 2 9.02445 9.02445 10.8293 -7.03059
3787 2 9.02445 7.21956 12.6342 -7.00457
537 2 12.6342 9.02445 10.8293 -7.01964
788 1 12.6342 7.21956 12.6342 -8.26805
1288 1 14.4391 7.21956 10.8293 -8.21131
1287 2 12.6342 7.21956 9.02445 -6.98497
1789 2 12.6342 10.8293 12.6342 -7.11845
2038 3 14.4391 9.02445 12.6342 -6.39763
2037 3 14.4391 9.02445 9.02445 -6.29524
2288 1 14.4391 10.8293 10.8293 -8.08899
3789 1 12.6342 10.8293 9.02445 -7.83763
258 2 16.244 10.8293 9.02445 -7.0767
1538 1 16.244 9.02445 10.8293 -8.22363
1788 3 16.244 7.21956 12.6342 -6.43798
1787 2 16.244 7.21956 9.02445 -7.02459
2788 3 16.244 10.8293 12.6342 -6.37092
790 2 1.80489 14.4391 9.02445 -7.14315
2538 2 1.80489 12.6342 10.8293 -6.95456
2537 1 0 12.6342 9.02445 -8.11714
3037 3 0 12.6342 12.6342 -6.4737
3289 2 0 14.4391 10.8293 -7.05686
3790 3 1.80489 14.4391 12.6342 -6.44754
259 2 3.60978 14.4391 10.8293 -7.13169
22 1 3.60978 12.6342 12.6342 -8.06609
791 1 5.41467 14.4391 12.6342 -8.17119
1290 2 5.41467 14.4391 9.02445 -7.05068
3038 3 3.60978 12.6342 9.02445 -6.57455
3538 2 5.41467 12.6342 10.8293 -7.01653
23 1 10.8293 12.6342 9.02445 -7.9436
538 2 9.02445 12.6342 10.8293 -7.1125
1038 2 7.21956 12.6342 12.6342 -7.15967
1291 2 7.21956 14.4391 10.8293 -7.09508
1791 3 9.02445 14.4391 12.6342 -6.58617
1790 1 9.02445 14.4391 9.02445 -8.09108
2039 2 10.8293 12.6342 12.6342 -7.11778
2290 2 10.8293 14.4391 10.8293 -7.01764
3539 3 7.21956 12.6342 9.02445 -6.42463
539 2 14.4391 12.6342 9.02445 -7.09574
1539 1 12.6342 12.6342 10.8293 -7.9925
2289 3 12.6342 14.4391 9.02445 -6.47249
2789 1 12.6342 14.4391 12.6342 -7.99056
3039 1 14.4391 12.6342 12.6342 -8.05455
3290 2 14.4391 14.4391 10.8293 -7.05885
2539 1 16.244 12.6342 10.8293 -8.09891
2790 1 16.244 14.4391 9.02445 -8.05959
3791 3 16.244 14.4391 12.6342 -6.29598
24 1 0 16.244 12.6342 -8.37182
1039 1 0 16.244 9.02445 -8.2358
3540 3 1.80489 16.244 10.8293 -6.57683
540 1 5.41467 16.244 10.8293 -8.00769
1040 2 3.60978 16.244 12.6342 -6.98565
1540 2 3.60978 16.244 9.02445 -7.10445
1541 1 9.02445 16.244 10.8293 -8.1128
2041 2 7.21956 16.244 12.6342 -7.03975
2040 1 7.21956 16.244 9.02445 -8.00451
2540 2 10.8293 16.244 9.02445 -7.00828
3040 3 10.8293 16.244 12.6342 -6.40172
25 1 14.4391 16.244 12.6342 -8.08957
2541 2 12.6342 16.244 10.8293 -7.05165
3041 2 14.4391 16.244 9.02445 -6.98052
3541 1 16.244 16.244 10.8293 -8.02285
260 3 0 0 14.4391 -6.29132
541 3 1.80489 1.80489 14.4391 -6.39199
792 3 1.80489 0 16.244 -6.26195
1041 1 0 1.80489 16.244 -8.38699
1292 3 3.60978 0 14.4391 -6.26477
1542 1 5.41467 1.80489 14.4391 -8.20973
1792 3 5.41467 0 16.244 -6.37236
2042 1 3.60978 1.80489 16.244 -8.48141
26 3 10.8293 1.80489 16.244 -6.55077
2291 1 7.21956 0 14.4391 -8.15212
2542 3 9.02445 1.80489 14.4391 -6.53282
2791 1 9.02445 0 16.244 -8.42617
3042 2 7.21956 1.80489 16.244 -6.99063
3291 2 10.8293 0 14.4391 -6.943
261 1 14.4391 0 14.4391 -8.22646
1042 1 14.4391 1.80489 16.244 -8.19455
3542 2 12.6342 1.80489 14.4391 -6.9801
3792 3 12.6342 0 16.244 -6.36795
542 3 16.244 1.80489 14.4391 -6.36837
793 3 16.244 0 16.244 -6.37926
1293 2 0 3.60978 14.4391 -6.95576
1543 3 1.80489 5.41467 14.4391 -6.59064
1793 3 1.80489 3.60978 16.244 -6.39452
2043 1 0 5.41467 16.244 -8.50754
2292 1 3.60978 3.60978 14.4391 -8.21832
2543 1 5.41467 5.41467 14.4391 -8.39406
2792 2 5.41467 3.60978 16.244 -7.05091
3043 3 3.60978 5.41467 16.244 -6.60107
262 1 10.8293 3.60978 14.4391 -8.42598
27 3 7.21956 5.41467 16.244 -6.53579
1043 2 10.8293 5.41467 16.244 -7.08001
3292 3 7.21956 3.60978 14.4391 -6.49446
3543 1 9.02445 5.41467 14.4391 -8.27985
3793 3 9.02445 3.60978 16.244 -6.62747
543 2 12.6342 5.41467 14.4391 -7.04889
794 3 12.6342 3.60978 16.244 -6.6123
1294 2 14.4391 3.60978 14.4391 -7.02324
2044 2 14.4391 5.41467 16.244 -7.00893
1544 1 16.244 5.41467 14.4391 -8.2515
1794 1 16.244 3.60978 16.244 -8.09824
2293 2 0 7.21956 14.4391 -6.97546
2544 1 1.80489 9.02445 14.4391 -8.34493
2793 2 1.80489 7.21956 16.244 -7.03359
3044 3 0 9.02445 16.244 -6.58377
3294 2 0 10.8293 14.4391 -6.94929
3795 3 1.80489 10.8293 16.244 -6.47017
264 1 3.60978 10.8293 14.4391 -8.03445
28 2 3.60978 9.02445 16.244 -7.03925
796 1 5.41467 10.8293 16.244 -8.14071
3293 3 3.60978 7.21956 14.4391 -6.51588
3544 3 5.41467 9.02445 14.4391 -6.41996
3794 3 5.41467 7.21956 16.244 -6.5976
263 1 7.21956 7.21956 14.4391 -8.30924
544 1 9.02445 9.02445 14.4391 -8.28131
795 3 9.02445 7.21956 16.244 -6.40022
1044 2 7.21956 9.02445 16.244 -7.03882
1296 2 7.21956 10.8293 14.4391 -7.00234
1295 1 10.8293 7.21956 14.4391 -8.05041
1796 3 9.02445 10.8293 16.244 -6.5219
2045 2 10.8293 9.02445 16.244 -7.06829
2295 2 10.8293 10.8293 14.4391 -7.12983
1545 2 12.6342 9.02445 14.4391 -7.0678
1795 1 12.6342 7.21956 16.244 -8.03635
2294 3 14.4391 7.21956 14.4391 -6.49197
2795 2 12.6342 10.8293 16.244 -7.07334
3045 1 14.4391 9.02445 16.244 -8.26576
3295 1 14.4391 10.8293 14.4391 -8.22612
2545 3 16.244 9.02445 14.4391 -6.47398
2794 3 16.244 7.21956 16.244 -6.50728
3796 3 16.244 10.8293 16.244 -6.46429
265 1 0 14.4391 14.4391 -8.18975
29 3 0 12.6342 16.244 -6.44181
797 1 1.80489 14.4391 16.244 -8.22049
3545 3 1.80489 12.6342 14.4391 -6.28128
545 2 5.41467 12.6342 14.4391 -7.11733
1045 1 3.60978 12.6342 16.244 -8.13671
1297 1 3.60978 14.4391 14.4391 -8.11762
1797 2 5.41467 14.4391 16.244 -6.85426
1546 2 9.02445 12.6342 14.4391 -7.0998
2046 3 7.21956 12.6342 16.244 -6.5612
2296 3 7.21956 14.4391 14.4391 -6.55822
2796 3 9.02445 14.4391 16.244 -6.52376
3046 1 10.8293 12.6342 16.244 -8.17493
3296 1 10.8293 14.4391 14.4391 -8.19674
266 2 14.4391 14.4391 14.4391 -7.02642
30 1 14.4391 12.6342 16.244 -8.23369
2546 2 12.6342 12.6342 14.4391 -7.11105
3797 1 12.6342 14.4391 16.244 -8.00229
798 2 16.244 14.4391 16.244 -7.05762
3546 3 16.244 12.6342 14.4391 -6.34499
546 2 1.80489 16.244 14.4391 -7.00101
1046 3 0 16.244 16.244 -6.33988
1547 3 5.41467 16.244 14.4391 -6.26974
2047 1 3.60978 16.244 16.244 -8.17895
31 3 10.8293 16.244 16.244 -6.40089
2547 3 9.02445 16.244 14.4391 -6.39418
3047 1 7.21956 16.244 16.244 -8.32221
1047 3 14.4391 16.244 16.244 -6.50029
3547 1 12.6342 16.244 14.4391 -8.23299
547 3 16.244 16.244 14.4391 -6.44304
1298 1 0 0 18.0489 -8.13631
1548 3 1.80489 1.80489 18.0489 -6.40238
1798 2 1.80489 0 19.8538 -7.01468
2048 3 0 1.80489 19.8538 -6.53941
2297 3 0 0 21.6587 -6.48219
2548 2 1.80489 1.80489 21.6587 -6.99909
2298 3 3.60978 0 18.0489 -6.41036
2549 2 5.41467 1.80489 18.0489 -6.94309
2797 3 5.41467 0 19.8538 -6.51898
3048 1 3.60978 1.80489 19.8538 -8.58367
3297 3 3.60978 0 21.6587 -6.64772
3548 2 5.41467 1.80489 21.6587 -6.901
501 2 9.02445 1.80489 21.6587 -7.08432
32 1 7.21956 1.80489 19.8538 -8.38888
284 3 10.8293 0 18.0489 -6.5431
283 3 7.21956 0 21.6587 -6.64352
1048 2 10.8293 1.80489 19.8538 -7.16126
1299 1 10.8293 0 21.6587 -8.12097
3298 3 7.21956 0 18.0489 -6.54799
3549 2 9.02445 1.80489 18.0489 -7.10269
3798 2 9.02445 0 19.8538 -7.04309
502 1 12.6342 1.80489 18.0489 -8.32992
799 2 12.6342 0 19.8538 -7.0168
1300 1 14.4391 0 18.0489 -8.29773
1549 1 12.6342 1.80489 21.6587 -8.32262
2049 2 14.4391 1.80489 19.8538 -7.03227
2299 2 14.4391 0 21.6587 -6.96078
1550 3 16.244 1.80489 18.0489 -6.38247
1799 3 16.244 0 19.8538 -6.47611
2550 2 16.244 1.80489 21.6587 -6.98049
2300 3 0 3.60978 18.0489 -6.4585
2551 3 1.80489 5.41467 18.0489 -6.61415
2798 3 1.80489 3.60978 19.8538 -6.61056
3049 2 0 5.41467 19.8538 -6.96332
3299 2 0 3.60978 21.6587 -7.11664
3550 2 1.80489 5.41467 21.6587 -7.02038
503 1 5.41467 5.41467 21.6587 -8.12816
33 2 3.60978 5.41467 19.8538 -6.98096
285 3 3.60978 3.60978 21.6587 -6.44425
3300 3 3.60978 3.60978 18.0489 -6.56081
3551 2 5.41467 5.41467 18.0489 -7.05945
3799 3 5.41467 3.60978 19.8538 -6.48036
504 2 9.02445 5.41467 18.0489 -7.1108
286 2 7.21956 3.60978 18.0489 -7.14175
800 2 9.02445 3.60978 19.8538 -7.20367
1049 1 7.21956 5.41467 19.8538 -8.06847
1302 2 10.8293 3.60978 18.0489 -7.17202
1301 1 7.21956 3.60978 21.6587 -8.1328
1551 2 9.02445 5.41467 21.6587 -7.0031
2050 2 10.8293 5.41467 19.8538 -7.15911
2301 2 10.8293 3.60978 21.6587 -7.17695
1552 2 12.6342 5.41467 18.0489 -7.10987
1800 2 12.6342 3.60978 19.8538 -7.10655
2302 3 14.4391 3.60978 18.0489 -6.50985
2552 3 12.6342 5.41467 21.6587 -6.6071
3050 3 14.4391 5.41467 19.8538 -6.47585
3301 3 14.4391 3.60978 21.6587 -6.53118
2553 2 16.244 5.41467 18.0489 -6.94544
2799 1 16.244 3.60978 19.8538 -8.37768
3552 1 16.244 5.41467 21.6587 -8.20452
505 3 1.80489 9.02445 21.6587 -6.48081
34 1 0 9.02445 19.8538 -8.46811
290 2 0 10.8293 18.0489 -7.03194
287 3 0 7.21956 21.6587 -6.53119
802 2 1.80489 10.8293 19.8538 -6.95905
1305 3 0 10.8293 21.6587 -6.44864
3302 3 0 7.21956 18.0489 -6.53798
3553 2 1.80489 9.02445 18.0489 -7.09261
3800 3 1.80489 7.21956 19.8538 -6.62294
506 2 5.41467 9.02445 18.0489 -7.08322
288 2 3.60978 7.21956 18.0489 -7.11293
801 1 5.41467 7.21956 19.8538 -8.14556
1050 2 3.60978 9.02445 19.8538 -7.03072
1306 1 3.60978 10.8293 18.0489 -8.14949
1303 1 3.60978 7.21956 21.6587 -8.11038
1553 2 5.41467 9.02445 21.6587 -7.04749
1802 1 5.41467 10.8293 19.8538 -8.18773
2305 3 3.60978 10.8293 21.6587 -6.51943
291 3 10.8293 10.8293 21.6587 -6.43504
1304 2 7.21956 7.21956 18.0489 -7.02664
1554 1 9.02445 9.02445 18.0489 -8.20109
1801 1 9.02445 7.21956 19.8538 -7.96895
2051 3 7.21956 9.02445 19.8538 -6.38928
2306 1 7.21956 10.8293 18.0489 -8.22533
2304 1 10.8293 7.21956 18.0489 -8.07205
2303 3 7.21956 7.21956 21.6587 -6.41819
2554 1 9.02445 9.02445 21.6587 -8.39604
2801 3 9.02445 10.8293 19.8538 -6.51514
3051 3 10.8293 9.02445 19.8538 -6.2189
3306 1 10.8293 10.8293 18.0489 -8.20784
3305 2 7.21956 10.8293 21.6587 -7.09203
3303 1 10.8293 7.21956 21.6587 -8.14252
35 1 14.4391 9.02445 19.8538 -8.2987
292 3 14.4391 10.8293 18.0489 -6.42301
289 3 14.4391 7.21956 21.6587 -6.37058
1307 3 14.4391 10.8293 21.6587 -6.38748
2555 1 12.6342 9.02445 18.0489 -8.05966
2800 1 12.6342 7.21956 19.8538 -8.06855
3304 2 14.4391 7.21956 18.0489 -7.09255
3554 1 12.6342 9.02445 21.6587 -8.25488
3802 3 12.6342 10.8293 19.8538 -6.35808
507 2 16.244 9.02445 21.6587 -6.92969
803 3 16.244 10.8293 19.8538 -6.46405
3555 2 16.244 9.02445 18.0489 -6.96307
3801 3 16.244 7.21956 19.8538 -6.46639
508 3 1.80489 12.6342 18.0489 -6.43997
1051 2 0 12.6342 19.8538 -6.95777
1308 2 0 14.4391 18.0489 -6.95135
1555 3 1.80489 12.6342 21.6587 -6.35425
1803 3 1.80489 14.4391 19.8538 -6.42004
2307 1 0 14.4391 21.6587 -8.12067
1556 3 5.41467 12.6342 18.0489 -6.34346
2052 1 3.60978 12.6342 19.8538 -8.37626
2308 3 3.60978 14.4391 18.0489 -6.3034
2556 2 5.41467 12.6342 21.6587 -7.03506
2802 1 5.41467 14.4391 19.8538 -8.36905
3307 3 3.60978 14.4391 21.6587 -6.40767
36 2 10.8293 12.6342 19.8538 -7.06545
294 2 10.8293 14.4391 18.0489 -7.04622
293 3 7.21956 14.4391 21.6587 -6.62315
1309 2 10.8293 14.4391 21.6587 -7.063
2557 2 9.02445 12.6342 18.0489 -7.00549
3052 2 7.21956 12.6342 19.8538 -7.01453
3308 3 7.21956 14.4391 18.0489 -6.51673
3556 2 9.02445 12.6342 21.6587 -7.15264
3803 3 9.02445 14.4391 19.8538 -6.66525
509 1 12.6342 12.6342 21.6587 -8.29414
804 1 12.6342 14.4391 19.8538 -8.18153
1052 3 14.4391 12.6342 19.8538 -6.48711
1310 2 14.4391 14.4391 18.0489 -7.0515
2309 2 14.4391 14.4391 21.6587 -6.90776
3557 2 12.6342 12.6342 18.0489 -7.01977
510 2 16.244 12.6342 18.0489 -7.06071
1557 3 16.244 12.6342 21.6587 -6.36191
1804 1 16.244 14.4391 19.8538 -8.28313
1558 3 1.80489 16.244 18.0489 -6.37842
2053 1 0 16.244 19.8538 -8.18691
2558 1 1.80489 16.244 21.6587 -8.09723
2559 3 5.41467 16.244 18.0489 -6.27582
3053 2 3.60978 16.244 19.8538 -6.91823
3558 3 5.41467 16.244 21.6587 -6.40917
511 3 9.02445 16.244 21.6587 -6.43727
37 1 7.21956 16.244 19.8538 -8.26782
1053 2 10.8293 16.244 19.8538 -6.99921
3559 2 9.02445 16.244 18.0489 -7.01647
512 1 12.6342 16.244 18.0489 -8.1115
1559 3 12.6342 16.244 21.6587 -6.38135
2054 1 14.4391 16.244 19.8538 -8.1089
1560 2 16.244 16.244 18.0489 -7.04947
2560 3 16.244 16.244 21.6587 -6.41082
47 1 0 1.80489 27.0733 -8.11358
2803 2 1.80489 0 23.4636 -7.03969
3054 1 0 1.80489 23.4636 -8.08892
3309 1 0 0 25.2684 -8.14202
3560 1 1.80489 1.80489 25.2684 -8.19823
3813 3 1.80489 0 27.0733 -6.38362
549 3 3.60978 1.80489 27.0733 -6.24578
39 1 5.41467 1.80489 25.2684 -8.22627
38 3 3.60978 1.80489 23.4636 -6.49578
299 1 5.41467 0 27.0733 -8.02738
3805 2 3.60978 0 25.2684 -6.94483
3804 3 5.41467 0 23.4636 -6.62402
513 3 9.02445 1.80489 25.2684 -6.5612
295 1 7.21956 0 25.2684 -8.25724
752 1 9.02445 0 27.0733 -8.368
806 3 10.8293 0 25.2684 -6.5242
805 2 9.02445 0 23.4636 -7.02549
1064 3 7.21956 1.80489 27.0733 -6.34997
1054 3 7.21956 1.80489 23.4636 -6.47922
1565 3 10.8293 1.80489 27.0733 -6.41529
2055 2 10.8293 1.80489 23.4636 -7.12864
1055 2 12.6342 1.80489 25.2684 -7.01014
1315 1 12.6342 0 27.0733 -8.39271
1311 1 14.4391 0 25.2684 -8.27143
1805 2 12.6342 0 23.4636 -6.9957
2065 2 14.4391 1.80489 27.0733 -7.10033
3055 3 14.4391 1.80489 23.4636 -6.51895
1561 2 16.244 1.80489 25.2684 -7.11759
1815 2 16.244 0 27.0733 -7.06131
2804 1 16.244 0 23.4636 -8.14162
40 1 0 5.41467 23.4636 -8.10178
1806 3 0 3.60978 25.2684 -6.35564
2056 1 1.80489 5.41467 25.2684 -8.01244
2314 2 1.80489 3.60978 27.0733 -7.04134
2565 2 0 5.41467 27.0733 -7.07272
3806 2 1.80489 3.60978 23.4636 -7.02124
807 1 5.41467 3.60978 23.4636 -8.04579
1056 1 3.60978 5.41467 23.4636 -7.92404
2310 1 3.60978 3.60978 25.2684 -8.00229
2561 1 5.41467 5.41467 25.2684 -8.0033
2814 3 5.41467 3.60978 27.0733 -6.23605
3065 1 3.60978 5.41467 27.0733 -8.04633
50 3 10.8293 5.41467 27.0733 -6.47673
1807 3 9.02445 3.60978 23.4636 -6.58299
2057 3 7.21956 5.41467 23.4636 -6.29056
2805 2 7.21956 3.60978 25.2684 -6.84503
3057 2 10.8293 5.41467 23.4636 -7.07066
3056 1 9.02445 5.41467 25.2684 -8.29703
3314 2 9.02445 3.60978 27.0733 -6.90536
3310 3 10.8293 3.60978 25.2684 -6.62779
3565 1 7.21956 5.41467 27.0733 -8.20864
552 3 14.4391 5.41467 27.0733 -6.46699
41 2 14.4391 5.41467 23.4636 -7.04732
2806 2 12.6342 3.60978 23.4636 -7.1022
3561 2 12.6342 5.41467 25.2684 -6.99457
3816 1 12.6342 3.60978 27.0733 -8.35842
3808 3 14.4391 3.60978 25.2684 -6.56709
42 1 16.244 5.41467 25.2684 -8.1104
302 2 16.244 3.60978 27.0733 -7.04717
3807 1 16.244 3.60978 23.4636 -8.30631
514 2 1.80489 9.02445 25.2684 -7.00187
296 2 0 7.21956 25.2684 -7.0796
808 1 1.80489 7.21956 23.4636 -8.07855
755 1 1.80489 7.21956 27.0733 -8.1387
1067 3 0 9.02445 27.0733 -6.52114
1057 2 0 9.02445 23.4636 -7.03434
1810 1 1.80489 10.8293 23.4636 -8.31265
2808 3 0 10.8293 25.2684 -6.49401
3317 2 1.80489 10.8293 27.0733 -6.99349
809 1 3.60978 7.21956 25.2684 -8.04529
1058 2 5.41467 9.02445 25.2684 -6.99122
1318 2 5.41467 7.21956 27.0733 -7.04895
1568 3 3.60978 9.02445 27.0733 -6.44679
1808 3 5.41467 7.21956 23.4636 -6.3592
2058 2 3.60978 9.02445 23.4636 -7.02498
2809 3 5.41467 10.8293 23.4636 -6.62436
3311 1 3.60978 10.8293 25.2684 -8.29997
3819 3 5.41467 10.8293 27.0733 -6.49151
43 2 10.8293 9.02445 23.4636 -7.04545
305 3 9.02445 10.8293 27.0733 -6.58252
297 2 10.8293 10.8293 25.2684 -7.03284
1312 1 7.21956 7.21956 25.2684 -8.25055
1562 2 9.02445 9.02445 25.2684 -7.0084
1818 3 9.02445 7.21956 27.0733 -6.5485
1809 1 10.8293 7.21956 25.2684 -8.42088
2068 2 7.21956 9.02445 27.0733 -7.07466
2568 2 10.8293 9.02445 27.0733 -7.06299
2807 3 9.02445 7.21956 23.4636 -6.44174
3058 2 7.21956 9.02445 23.4636 -7.09201
3811 1 7.21956 10.8293 25.2684 -8.36973
3810 2 9.02445 10.8293 23.4636 -7.12521
812 2 14.4391 10.8293 25.2684 -6.99643
811 1 12.6342 10.8293 23.4636 -8.25179
758 3 12.6342 10.8293 27.0733 -6.61721
1059 3 14.4391 9.02445 23.4636 -6.43312
2059 3 12.6342 9.02445 25.2684 -6.55875
2317 2 12.6342 7.21956 27.0733 -7.01555
2311 1 14.4391 7.21956 25.2684 -8.34864
3068 3 14.4391 9.02445 27.0733 -6.65356
3809 3 12.6342 7.21956 23.4636 -6.46366
810 1 16.244 7.21956 23.4636 -8.15966
1321 2 16.244 10.8293 27.0733 -7.04106
1811 3 16.244 10.8293 23.4636 -6.55802
2562 2 16.244 9.02445 25.2684 -7.06022
2817 3 16.244 7.21956 27.0733 -6.55732
1313 3 0 14.4391 25.2684 -6.35311
1821 2 1.80489 14.4391 27.0733 -6.94714
2060 1 0 12.6342 23.4636 -8.16192
2810 1 1.80489 14.4391 23.4636 -8.12883
3059 1 1.80489 12.6342 25.2684 -7.99247
3568 1 0 12.6342 27.0733 -8.32191
53 2 3.60978 12.6342 27.0733 -6.98946
1812 1 3.60978 14.4391 25.2684 -8.33817
2320 2 5.41467 14.4391 27.0733 -7.01458
3060 3 3.60978 12.6342 23.4636 -6.40202
3562 3 5.41467 12.6342 25.2684 -6.4259
3812 3 5.41467 14.4391 23.4636 -6.56239
555 2 7.21956 12.6342 27.0733 -7.00898
45 1 9.02445 12.6342 25.2684 -8.10395
44 2 7.21956 12.6342 23.4636 -7.09634
813 2 9.02445 14.4391 23.4636 -7.08438
1070 1 10.8293 12.6342 27.0733 -8.28624
1060 3 10.8293 12.6342 23.4636 -6.46612
2312 1 7.21956 14.4391 25.2684 -8.29967
2820 1 9.02445 14.4391 27.0733 -8.08475
2811 2 10.8293 14.4391 25.2684 -7.01891
515 1 12.6342 12.6342 25.2684 -8.20853
1571 2 14.4391 12.6342 27.0733 -7.00271
1813 1 12.6342 14.4391 23.4636 -8.28428
2061 3 14.4391 12.6342 23.4636 -6.39126
3320 2 12.6342 14.4391 27.0733 -6.94421
3312 3 14.4391 14.4391 25.2684 -6.3422
1061 3 16.244 12.6342 25.2684 -6.50952
2812 1 16.244 14.4391 23.4636 -8.43735
3822 1 16.244 14.4391 27.0733 -8.34021
1563 3 1.80489 16.244 25.2684 -6.40345
2071 1 0 16.244 27.0733 -8.22546
3061 2 0 16.244 23.4636 -6.98949