ITEM: TIMESTEP
0
ITEM: NUMBER OF ATOMS
4000
ITEM: BOX BOUNDS pp pp pp
0.0000000000000000e+00 3.5384799999999998e+01
0.0000000000000000e+00 3.5384799999999998e+01
0.0000000000000000e+00 3.5384799999999998e+01
ITEM: ATOMS id type x y z c_peratom
267 2 0 0 0 -7.04058
516 3 1.76924 1.76924 0 -6.62319
767 2 1.76924 0 1.76924 -7.01174
1016 3 0 1.76924 1.76924 -6.46165
1267 2 0 0 3.53848 -6.95621
1517 1 1.76924 1.76924 3.53848 -8.71707
1268 2 3.53848 0 0 -6.98996
1518 1 5.30772 1.76924 0 -8.31796
1767 2 5.30772 0 1.76924 -6.96587
2017 3 3.53848 1.76924 1.76924 -6.44208
2266 3 3.53848 0 3.53848 -6.67935
2517 3 5.30772 1.76924 3.53848 -6.43767
1 1 10.6154 1.76924 1.76924 -8.48922
268 2 10.6154 0 3.53848 -6.84037
2267 2 7.07696 0 0 -6.97292
2518 1 8.8462 1.76924 0 -8.39042
2766 1 8.8462 0 1.76924 -8.53066
3017 1 7.07696 1.76924 1.76924 -8.29418
3266 1 7.07696 0 3.53848 -8.64685
3267 2 10.6154 0 0 -6.8127
3517 3 8.8462 1.76924 3.53848 -6.09716
269 1 14.1539 0 0 -8.34302
517 2 12.3847 1.76924 3.53848 -6.91854
1017 3 14.1539 1.76924 1.76924 -6.14076
1269 1 14.1539 0 3.53848 -8.19341
3518 3 12.3847 1.76924 0 -6.33804
3767 3 12.3847 0 1.76924 -6.19443
518 1 15.9232 1.76924 0 -8.34097
768 1 15.9232 0 1.76924 -8.17119
1519 3 15.9232 1.76924 3.53848 -5.98841
1270 3 0 3.53848 0 -6.34148
1520 3 1.76924 5.30772 0 -6.35461
1768 2 1.76924 3.53848 1.76924 -6.82483
2018 3 0 5.30772 1.76924 -6.18833
2268 1 0 3.53848 3.53848 -8.31718
2519 1 1.76924 5.30772 3.53848 -8.79236
2269 3 3.53848 3.53848 0 -6.4336
2520 3 5.30772 5.30772 0 -6.38608
2767 1 5.30772 3.53848 1.76924 -8.70839
3018 3 3.53848 5.30772 1.76924 -6.41477
3268 3 3.53848 3.53848 3.53848 -6.35005
3519 2 5.30772 5.30772 3.53848 -6.86851
2 1 7.07696 5.30772 1.76924 -8.77272
271 3 10.6154 3.53848 0 -6.46832
270 3 7.07696 3.53848 3.53848 -6.27505
519 3 8.8462 5.30772 3.53848 -6.33369
1018 1 10.6154 5.30772 1.76924 -8.7019
1271 1 10.6154 3.53848 3.53848 -8.3857
3269 1 7.07696 3.53848 0 -8.40219
3520 3 8.8462 5.30772 0 -6.35054
3768 3 8.8462 3.53848 1.76924 -6.06786
520 2 12.3847 5.30772 0 -7.00264
769 2 12.3847 3.53848 1.76924 -6.91694
1272 1 14.1539 3.53848 0 -8.53366
1521 2 12.3847 5.30772 3.53848 -6.96467
2019 1 14.1539 5.30772 1.76924 -8.24184
2270 1 14.1539 3.53848 3.53848 -8.26278
1522 3 15.9232 5.30772 0 -6.22957
1769 2 15.9232 3.53848 1.76924 -6.90913
2521 1 15.9232 5.30772 3.53848 -7.87757
274 1 0 10.6154 3.53848 -8.52504
2271 1 0 7.07696 0 -8.4816
2522 1 1.76924 8.8462 0 -8.42326
2768 3 1.76924 7.07696 1.76924 -6.25057
3019 3 0 8.8462 1.76924 -6.29495
3273 3 0 10.6154 0 -6.16989
3270 3 0 7.07696 3.53848 -6.46424
3521 3 1.76924 8.8462 3.53848 -6.46739
3770 3 1.76924 10.6154 1.76924 -6.15462
3 1 3.53848 8.8462 1.76924 -8.73605
275 2 3.53848 10.6154 0 -6.85278
272 2 3.53848 7.07696 3.53848 -6.92286
521 3 5.30772 8.8462 3.53848 -6.30958
771 3 5.30772 10.6154 1.76924 -6.35651
1275 3 3.53848 10.6154 3.53848 -6.29719
3271 1 3.53848 7.07696 0 -8.73282
3522 2 5.30772 8.8462 0 -6.9885
3769 2 5.30772 7.07696 1.76924 -6.89335
273 2 7.07696 7.07696 0 -6.98416
522 2 8.8462 8.8462 0 -7.05049
770 3 8.8462 7.07696 1.76924 -6.29683
1019 1 7.07696 8.8462 1.76924 -8.74134
1276 2 7.07696 10.6154 0 -7.07797
1274 1 10.6154 7.07696 0 -8.36327
1273 3 7.07696 7.07696 3.53848 -6.46225
1523 2 8.8462 8.8462 3.53848 -6.98102
1771 2 8.8462 10.6154 1.76924 -6.97578
2020 1 10.6154 8.8462 1.76924 -8.71959
2275 1 10.6154 10.6154 0 -8.61312
2274 1 7.07696 10.6154 3.53848 -8.43154
2272 3 10.6154 7.07696 3.53848 -6.53744
3274 3 10.6154 10.6154 3.53848 -6.66082
276 2 14.1539 10.6154 3.53848 -6.85117
1524 2 12.3847 8.8462 0 -6.96406
1770 2 12.3847 7.07696 1.76924 -6.92842
2273 1 14.1539 7.07696 0 -8.30795
2523 3 12.3847 8.8462 3.53848 -6.46607
2770 3 12.3847 10.6154 1.76924 -6.34802
3020 1 14.1539 8.8462 1.76924 -8.65338
3275 2 14.1539 10.6154 0 -6.81235
3272 1 14.1539 7.07696 3.53848 -8.34142
2524 3 15.9232 8.8462 0 -6.28029
2769 3 15.9232 7.07696 1.76924 -6.05493
3523 2 15.9232 8.8462 3.53848 -6.90484
3771 3 15.9232 10.6154 1.76924 -6.44104
4 1 0 12.3847 1.76924 -8.36179
277 2 0 14.1539 0 -6.92603
523 2 1.76924 12.3847 3.53848 -6.88669
772 1 1.76924 14.1539 1.76924 -8.2906
1277 2 0 14.1539 3.53848 -6.90991
3524 1 1.76924 12.3847 0 -8.36815
524 2 5.30772 12.3847 0 -6.96863
1020 1 3.53848 12.3847 1.76924 -8.52703
1278 1 3.53848 14.1539 0 -8.15202
1525 3 5.30772 12.3847 3.53848 -6.18792
1772 2 5.30772 14.1539 1.76924 -6.92132
2276 1 3.53848 14.1539 3.53848 -8.48984
278 1 10.6154 14.1539 3.53848 -8.48357
1526 3 8.8462 12.3847 0 -6.51508
2021 2 7.07696 12.3847 1.76924 -6.97396
2277 3 7.07696 14.1539 0 -6.53025
2525 2 8.8462 12.3847 3.53848 -6.95517
2771 1 8.8462 14.1539 1.76924 -8.61088
3021 2 10.6154 12.3847 1.76924 -6.94559
3277 2 10.6154 14.1539 0 -6.9895
3276 3 7.07696 14.1539 3.53848 -6.31052
5 1 14.1539 12.3847 1.76924 -8.77194
279 1 14.1539 14.1539 0 -8.55988
1279 3 14.1539 14.1539 3.53848 -6.41954
2526 3 12.3847 12.3847 0 -6.44287
3525 3 12.3847 12.3847 3.53848 -6.42299
3772 2 12.3847 14.1539 1.76924 -6.83747
525 3 15.9232 12.3847 3.53848 -6.35287
773 2 15.9232 14.1539 1.76924 -6.83904
3526 1 15.9232 12.3847 0 -8.59327
526 2 1.76924 15.9232 0 -6.93203
1021 3 0 15.9232 1.76924 -6.34694
1527 2 1.76924 15.9232 3.53848 -6.80353
1528 1 5.30772 15.9232 0 -8.50196
2022 3 3.53848 15.9232 1.76924 -6.40005
2527 2 5.30772 15.9232 3.53848 -6.83537
6 1 10.6154 15.9232 1.76924 -8.53159
2528 3 8.8462 15.9232 0 -6.41867
3022 1 7.07696 15.9232 1.76924 -8.46765
3527 3 8.8462 15.9232 3.53848 -5.98551
527 3 12.3847 15.9232 3.53848 -6.32791
1022 3 14.1539 15.9232 1.76924 -6.40134
3528 3 12.3847 15.9232 0 -6.34784
528 3 15.9232 15.9232 0 -6.28476
1529 3 15.9232 15.9232 3.53848 -6.37664
1773 3 1.76924 0 5.30772 -6.49092
2023 3 0 1.76924 5.30772 -6.33571
2278 2 0 0 7.07696 -6.93602
2529 3 1.76924 1.76924 7.07696 -6.22898
2773 1 3.53848 0 7.07696 -8.64998
2772 3 5.30772 0 5.30772 -6.54269
3024 3 5.30772 1.76924 7.07696 -6.33887
3023 2 3.53848 1.76924 5.30772 -6.88279
7 3 7.07696 1.76924 5.30772 -6.38827
1023 3 10.6154 1.76924 5.30772 -6.33841
3278 3 7.07696 0 7.07696 -6.37627
3529 3 8.8462 1.76924 7.07696 -6.30388
3774 2 10.6154 0 7.07696 -6.855
3773 1 8.8462 0 5.30772 -8.75931
8 2 12.3847 1.76924 7.07696 -6.94249
280 1 14.1539 0 7.07696 -8.3951
774 2 12.3847 0 5.30772 -6.95151
2024 1 14.1539 1.76924 5.30772 -8.01679
529 1 15.9232 1.76924 7.07696 -8.17475
1774 1 15.9232 0 5.30772 -7.98932
775 1 0 3.53848 7.07696 -8.53721
1024 2 1.76924 5.30772 7.07696 -6.83803
2774 1 1.76924 3.53848 5.30772 -8.58835
3025 3 0 5.30772 5.30772 -6.19277
9 3 3.53848 5.30772 5.30772 -6.27326
1280 3 3.53848 3.53848 7.07696 -6.22926
1530 1 5.30772 5.30772 7.07696 -8.53815
3775 2 5.30772 3.53848 5.30772 -6.84954
776 1 8.8462 3.53848 5.30772 -9.02274
1025 3 7.07696 5.30772 5.30772 -6.41674
1775 3 7.07696 3.53848 7.07696 -6.28092
2026 3 10.6154 5.30772 5.30772 -6.43018
2025 3 8.8462 5.30772 7.07696 -6.38726
2279 2 10.6154 3.53848 7.07696 -6.90426
1776 1 12.3847 3.53848 5.30772 -8.27459
2530 1 12.3847 5.30772 7.07696 -8.3879
2776 2 14.1539 3.53848 7.07696 -6.96042
3026 1 14.1539 5.30772 5.30772 -8.03455
2775 1 15.9232 3.53848 5.30772 -8.04242
3027 3 15.9232 5.30772 7.07696 -6.17235
10 3 0 8.8462 5.30772 -6.3862
779 2 1.76924 10.6154 5.30772 -6.95435
1778 1 0 10.6154 7.07696 -8.30985
3279 3 0 7.07696 7.07696 -6.31499
3530 2 1.76924 8.8462 7.07696 -6.91282
3776 2 1.76924 7.07696 5.30772 -6.90173
11 1 5.30772 8.8462 7.07696 -8.44439
777 1 5.30772 7.07696 5.30772 -8.6409
1026 2 3.53848 8.8462 5.30772 -6.99242
1779 1 5.30772 10.6154 5.30772 -8.29434
2280 1 3.53848 10.6154 7.07696 -8.39628
3777 1 3.53848 7.07696 7.07696 -8.31724
281 2 7.07696 7.07696 7.07696 -6.87042
530 3 8.8462 8.8462 7.07696 -6.47525
778 3 10.6154 7.07696 7.07696 -6.40756
1777 2 8.8462 7.07696 5.30772 -7.00468
2027 2 7.07696 8.8462 5.30772 -6.9219
2779 3 7.07696 10.6154 7.07696 -6.24603
2778 3 8.8462 10.6154 5.30772 -6.5515
3028 2 10.6154 8.8462 5.30772 -7.06806
3280 3 10.6154 10.6154 7.07696 -6.43184
12 3 14.1539 8.8462 5.30772 -6.56568
1027 2 12.3847 8.8462 7.07696 -6.93374
1281 2 14.1539 7.07696 7.07696 -6.90335
2777 2 12.3847 7.07696 5.30772 -6.9784
3780 3 14.1539 10.6154 7.07696 -6.25729
3779 3 12.3847 10.6154 5.30772 -6.5762
780 3 15.9232 10.6154 5.30772 -6.38082
1531 2 15.9232 8.8462 7.07696 -6.97352
3778 1 15.9232 7.07696 5.30772 -8.23356
282 3 0 14.1539 7.07696 -6.41011
1028 1 0 12.3847 5.30772 -8.45291
1780 3 1.76924 14.1539 5.30772 -6.3414
2028 2 1.76924 12.3847 7.07696 -6.88457
781 1 3.53848 14.1539 7.07696 -8.60957
2029 1 3.53848 12.3847 5.30772 -8.33422
2531 1 5.30772 12.3847 7.07696 -8.24125
2780 2 5.30772 14.1539 5.30772 -6.93935
13 2 10.6154 12.3847 5.30772 -6.92939
1282 2 7.07696 14.1539 7.07696 -6.904
1781 1 10.6154 14.1539 7.07696 -8.45296
3030 2 8.8462 12.3847 7.07696 -6.93741
3029 1 7.07696 12.3847 5.30772 -8.63579
3781 3 8.8462 14.1539 5.30772 -6.24041
782 2 12.3847 14.1539 5.30772 -6.86174
1029 1 14.1539 12.3847 5.30772 -8.78302
2281 2 14.1539 14.1539 7.07696 -6.94311
3531 3 12.3847 12.3847 7.07696 -6.27331
14 1 15.9232 12.3847 7.07696 -8.17396
1782 1 15.9232 14.1539 5.30772 -8.6639
531 3 1.76924 15.9232 7.07696 -6.48247
2030 3 0 15.9232 5.30772 -6.33999
1030 1 5.30772 15.9232 7.07696 -8.55172
3031 3 3.53848 15.9232 5.30772 -6.33768
15 1 7.07696 15.9232 5.30772 -8.47882
1031 1 10.6154 15.9232 5.30772 -8.48373
1532 2 8.8462 15.9232 7.07696 -7.0309
2032 3 14.1539 15.9232 5.30772 -6.53376
2031 3 12.3847 15.9232 7.07696 -6.18758
2532 2 15.9232 15.9232 7.07696 -6.93301
16 3 0 1.76924 12.3847 -6.39472
2781 1 1.76924 0 8.8462 -8.72368
3032 2 0 1.76924 8.8462 -6.93319
3281 3 0 0 10.6154 -6.3654
3532 3 1.76924 1.76924 10.6154 -6.38192
3782 3 1.76924 0 12.3847 -6.49664
251 2 3.53848 0 10.6154 -6.96827
532 2 5.30772 1.76924 10.6154 -6.9717
783 3 5.30772 0 12.3847 -6.60921
1032 2 3.53848 1.76924 12.3847 -7.06789
3282 1 5.30772 0 8.8462 -8.60292
3533 3 3.53848 1.76924 8.8462 -6.16491
17 1 7.07696 1.76924 8.8462 -8.45537
533 1 10.6154 1.76924 8.8462 -8.4284
1283 2 7.07696 0 10.6154 -6.89289
1533 1 8.8462 1.76924 10.6154 -8.23469
1783 1 8.8462 0 12.3847 -8.26831
2033 3 7.07696 1.76924 12.3847 -6.43335
2282 1 10.6154 0 10.6154 -8.49815
3033 1 10.6154 1.76924 12.3847 -8.17785
3783 3 8.8462 0 8.8462 -6.35744
252 3 12.3847 0 8.8462 -6.41042
18 3 14.1539 1.76924 12.3847 -6.62439
1033 2 14.1539 1.76924 8.8462 -6.98649
2533 3 12.3847 1.76924 10.6154 -6.32405
2782 2 12.3847 0 12.3847 -6.9401
3283 2 14.1539 0 10.6154 -7.09255
784 2 15.9232 0 8.8462 -6.99823
3534 2 15.9232 1.76924 10.6154 -7.0686
3784 2 15.9232 0 12.3847 -7.12042
253 1 0 3.53848 10.6154 -8.54302
534 2 1.76924 5.30772 10.6154 -7.00721
785 2 1.76924 3.53848 12.3847 -7.00733
1034 2 0 5.30772 12.3847 -7.02936
1284 1 1.76924 3.53848 8.8462 -8.50116
1534 3 0 5.30772 8.8462 -6.15823
1285 1 3.53848 3.53848 10.6154 -8.34732
1535 1 5.30772 5.30772 10.6154 -8.42238
1785 2 5.30772 3.53848 12.3847 -7.02733
1784 1 5.30772 3.53848 8.8462 -8.44726
2035 1 3.53848 5.30772 12.3847 -8.28046
2034 1 3.53848 5.30772 8.8462 -7.99972
19 3 10.6154 5.30772 12.3847 -6.0692
2284 2 7.07696 3.53848 10.6154 -6.88123
2283 2 8.8462 3.53848 8.8462 -6.89721
2535 1 8.8462 5.30772 10.6154 -8.483
2534 3 7.07696 5.30772 8.8462 -6.23517
2783 3 8.8462 3.53848 12.3847 -6.19264
3035 1 10.6154 5.30772 8.8462 -8.25685
3034 3 7.07696 5.30772 12.3847 -6.25537
3284 1 10.6154 3.53848 10.6154 -8.12691
254 2 14.1539 3.53848 10.6154 -6.97505
1035 1 14.1539 5.30772 12.3847 -8.50302
2784 1 12.3847 3.53848 8.8462 -8.36224
3536 3 14.1539 5.30772 8.8462 -6.43697
3535 2 12.3847 5.30772 10.6154 -6.89423
3785 1 12.3847 3.53848 12.3847 -8.2901
535 2 15.9232 5.30772 10.6154 -6.94792
786 2 15.9232 3.53848 12.3847 -6.96302
3285 3 15.9232 3.53848 8.8462 -6.40895
20 3 0 8.8462 8.8462 -6.31545
1286 1 0 7.07696 10.6154 -8.47425
1536 2 1.76924 8.8462 10.6154 -7.01495
1786 2 1.76924 7.07696 12.3847 -7.03937
2036 2 0 8.8462 12.3847 -7.02674
2287 3 0 10.6154 10.6154 -6.66156
2286 2 1.76924 10.6154 8.8462 -6.93096
2786 2 1.76924 10.6154 12.3847 -7.01485
3786 1 1.76924 7.07696 8.8462 -8.54504
255 3 5.30772 7.07696 8.8462 -6.31966
536 3 3.53848 8.8462 8.8462 -6.3076
2285 2 3.53848 7.07696 10.6154 -6.96229
2536 2 5.30772 8.8462 10.6154 -6.94168
2787 2 5.30772 10.6154 8.8462 -6.88725
2785 1 5.30772 7.07696 12.3847 -8.44736
3036 2 3.53848 8.8462 12.3847 -7.02187
3287 1 3.53848 10.6154 10.6154 -8.65528
3788 1 5.30772 10.6154 12.3847 -8.25263
256 3 10.6154 7.07696 10.6154 -6.14918
257 2 7.07696 10.6154 10.6154 -6.89698
21 3 7.07696 8.8462 12.3847 -6.22919
789 3 8.8462 10.6154 12.3847 -6.31061
787 1 8.8462 7.07696 8.8462 -8.63951
1037 1 10.6154 8.8462 12.3847 -8.34438
1036 3 7.07696 8.8462 8.8462 -6.40297
1289 2 10.6154 10.6154 10.6154 -6.8547
1537 1 10.6154 8.8462 8.8462 -8.56072
3288 1 8.8462 10.6154 8.8462 -8.51849
3286 2 7.07696 7.07696 10.6154 -6.89358
3537 2 8.8462 8.8462 10.6154 -6.89282
3787 1 8.8462 7.07696 12.3847 -8.49097
537 1 12.3847 8.8462 10.6154 -8.62152
788 2 12.3847 7.07696 12.3847 -6.87844
1288 3 14.1539 7.07696 10.6154 -6.29186
1287 2 12.3847 7.07696 8.8462 -6.87184
1789 3 12.3847 10.6154 12.3847 -6.33621
2038 2 14.1539 8.8462 12.3847 -6.93391
2037 1 14.1539 8.8462 8.8462 -8.41624
2288 3 14.1539 10.6154 10.6154 -6.14926
3789 3 12.3847 10.6154 8.8462 -6.13415
258 1 15.9232 10.6154 8.8462 -8.09263
1538 1 15.9232 8.8462 10.6154 -8.18005
1788 2 15.9232 7.07696 12.3847 -6.92791
1787 1 15.9232 7.07696 8.8462 -8.46239
2788 1 15.9232 10.6154 12.3847 -8.41562
790 3 1.76924 14.1539 8.8462 -6.38487
2538 3 1.76924 12.3847 10.6154 -6.47751
2537 1 0 12.3847 8.8462 -8.63157
3037 2 0 12.3847 12.3847 -6.98373
3289 2 0 14.1539 10.6154 -7.01047
3790 2 1.76924 14.1539 12.3847 -6.93569
259 1 3.53848 14.1539 10.6154 -8.97794
22 3 3.53848 12.3847 12.3847 -6.14302
791 3 5.30772 14.1539 12.3847 -6.29679
1290 3 5.30772 14.1539 8.8462 -6.21901
3038 3 3.53848 12.3847 8.8462 -6.18787
3538 1 5.30772 12.3847 10.6154 -8.40824
23 1 10.6154 12.3847 8.8462 -8.51307
538 3 8.8462 12.3847 10.6154 -6.18191
1038 3 7.07696 12.3847 12.3847 -6.21604
1291 2 7.07696 14.1539 10.6154 -6.8925
1791 1 8.8462 14.1539 12.3847 -8.71274
1790 1 8.8462 14.1539 8.8462 -8.31622
2039 1 10.6154 12.3847 12.3847 -8.54163
2290 3 10.6154 14.1539 10.6154 -6.12924
3539 1 7.07696 12.3847 8.8462 -8.27954
539 1 14.1539 12.3847 8.8462 -8.52279
1539 1 12.3847 12.3847 10.6154 -8.43158
2289 3 12.3847 14.1539 8.8462 -6.17368
2789 2 12.3847 14.1539 12.3847 -6.98238
3039 2 14.1539 12.3847 12.3847 -6.9947
3290 1 14.1539 14.1539 10.6154 -8.41914
2539 3 15.9232 12.3847 10.6154 -6.30096
2790 2 15.9232 14.1539 8.8462 -6.92573
3791 2 15.9232 14.1539 12.3847 -7.01864
24 1 0 15.9232 12.3847 -8.63204
1039 2 0 15.9232 8.8462 -6.95212
3540 3 1.76924 15.9232 10.6154 -6.43592
540 3 5.30772 15.9232 10.6154 -6.40077
1040 3 3.53848 15.9232 12.3847 -6.23917
1540 2 3.53848 15.9232 8.8462 -6.80005
1541 2 8.8462 15.9232 10.6154 -6.86358
2041 3 7.07696 15.9232 12.3847 -6.28175
2040 2 7.07696 15.9232 8.8462 -6.92958
2540 1 10.6154 15.9232 8.8462 -8.34965
3040 1 10.6154 15.9232 12.3847 -8.50375
25 2 14.1539 15.9232 12.3847 -7.03688
2541 2 12.3847 15.9232 10.6154 -6.9045
3041 3 14.1539 15.9232 8.8462 -6.27009
3541 1 15.9232 15.9232 10.6154 -8.36827
260 1 0 0 14.1539 -8.2419
541 2 1.76924 1.76924 14.1539 -7.03516
792 2 1.76924 0 15.9232 -7.00108
1041 1 0 1.76924 15.9232 -8.30596
1292 3 3.53848 0 14.1539 -6.62935
1542 2 5.30772 1.76924 14.1539 -7.02482
1792 2 5.30772 0 15.9232 -7.01593
2042 3 3.53848 1.76924 15.9232 -6.52212
26 2 10.6154 1.76924 15.9232 -6.9726
2291 1 7.07696 0 14.1539 -8.62238
2542 3 8.8462 1.76924 14.1539 -6.33093
2791 1 8.8462 0 15.9232 -8.66174
3042 3 7.07696 1.76924 15.9232 -6.30235
3291 2 10.6154 0 14.1539 -6.94881
261 2 14.1539 0 14.1539 -7.11724
1042 2 14.1539 1.76924 15.9232 -7.0526
3542 2 12.3847 1.76924 14.1539 -7.02535
3792 3 12.3847 0 15.9232 -6.69876
542 3 15.9232 1.76924 14.1539 -6.6829
793 3 15.9232 0 15.9232 -6.80656
1293 1 0 3.53848 14.1539 -8.49434
1543 2 1.76924 5.30772 14.1539 -7.06235
1793 1 1.76924 3.53848 15.9232 -8.4141
2043 2 0 5.30772 15.9232 -7.05007
2292 2 3.53848 3.53848 14.1539 -7.00701
2543 2 5.30772 5.30772 14.1539 -6.95754
2792 1 5.30772 3.53848 15.9232 -8.50934
3043 1 3.53848 5.30772 15.9232 -8.19752
262 1 10.6154 3.53848 14.1539 -8.34311
27 2 7.07696 5.30772 15.9232 -6.97497
1043 2 10.6154 5.30772 15.9232 -7.0232
3292 3 7.07696 3.53848 14.1539 -6.50887
3543 1 8.8462 5.30772 14.1539 -8.52789
3793 2 8.8462 3.53848 15.9232 -6.87456
543 1 12.3847 5.30772 14.1539 -8.2065
794 2 12.3847 3.53848 15.9232 -6.93359
1294 1 14.1539 3.53848 14.1539 -8.60265
2044 2 14.1539 5.30772 15.9232 -6.88376
1544 3 15.9232 5.30772 14.1539 -6.41217
1794 3 15.9232 3.53848 15.9232 -6.53159
2293 2 0 7.07696 14.1539 -7.08369
2544 3 1.76924 8.8462 14.1539 -6.47959
2793 3 1.76924 7.07696 15.9232 -6.48429
3044 2 0 8.8462 15.9232 -6.99177
3294 3 0 10.6154 14.1539 -6.44985
3795 1 1.76924 10.6154 15.9232 -8.55396
264 1 3.53848 10.6154 14.1539 -8.29241
28 3 3.53848 8.8462 15.9232 -6.22649
796 1 5.30772 10.6154 15.9232 -8.2004
3293 1 3.53848 7.07696 14.1539 -8.40336
3544 1 5.30772 8.8462 14.1539 -8.28668
3794 2 5.30772 7.07696 15.9232 -6.94165
263 3 7.07696 7.07696 14.1539 -6.31726
544 3 8.8462 8.8462 14.1539 -6.23399
795 2 8.8462 7.07696 15.9232 -6.906
1044 3 7.07696 8.8462 15.9232 -6.259
1296 1 7.07696 10.6154 14.1539 -8.51841
1295 1 10.6154 7.07696 14.1539 -8.23938
1796 2 8.8462 10.6154 15.9232 -6.81763
2045 3 10.6154 8.8462 15.9232 -6.13052
2295 1 10.6154 10.6154 14.1539 -8.59207
1545 2 12.3847 8.8462 14.1539 -6.96855
1795 1 12.3847 7.07696 15.9232 -8.47822
2294 3 14.1539 7.07696 14.1539 -6.37663
2795 1 12.3847 10.6154 15.9232 -8.46912
3045 3 14.1539 8.8462 15.9232 -6.24304
3295 2 14.1539 10.6154 14.1539 -6.99995
2545 2 15.9232 8.8462 14.1539 -7.01409
2794 1 15.9232 7.07696 15.9232 -8.76242
3796 1 15.9232 10.6154 15.9232 -8.29734
265 3 0 14.1539 14.1539 -6.31448
29 1 0 12.3847 15.9232 -8.61861
797 3 1.76924 14.1539 15.9232 -6.22965
3545 2 1.76924 12.3847 14.1539 -6.931
545 1 5.30772 12.3847 14.1539 -8.21178
1045 1 3.53848 12.3847 15.9232 -8.14016
1297 1 3.53848 14.1539 14.1539 -8.46694
1797 1 5.30772 14.1539 15.9232 -8.17792
1546 3 8.8462 12.3847 14.1539 -6.20476
2046 1 7.07696 12.3847 15.9232 -8.21972
2296 3 7.07696 14.1539 14.1539 -6.30991
2796 3 8.8462 14.1539 15.9232 -6.47266
3046 3 10.6154 12.3847 15.9232 -6.31631
3296 3 10.6154 14.1539 14.1539 -6.38017
266 1 14.1539 14.1539 14.1539 -8.50563
30 2 14.1539 12.3847 15.9232 -7.048
2546 2 12.3847 12.3847 14.1539 -6.95212
3797 1 12.3847 14.1539 15.9232 -8.39226
798 2 15.9232 14.1539 15.9232 -6.97168
3546 2 15.9232 12.3847 14.1539 -7.05715
546 1 1.76924 15.9232 14.1539 -8.7145
1046 3 0 15.9232 15.9232 -6.38326
1547 3 5.30772 15.9232 14.1539 -6.24898
2047 2 3.53848 15.9232 15.9232 -6.84576
31 2 10.6154 15.9232 15.9232 -6.99517
2547 2 8.8462 15.9232 14.1539 -6.96374
3047 2 7.07696 15.9232 15.9232 -6.85006
1047 2 14.1539 15.9232 15.9232 -6.97042
3547 2 12.3847 15.9232 14.1539 -7.02672
547 2 15.9232 15.9232 14.1539 -7.01874
1298 1 0 0 17.6924 -8.34231
1548 2 1.76924 1.76924 17.6924 -6.97448
1798 2 1.76924 0 19.4616 -6.96507
2048 1 0 1.76924 19.4616 -8.60835
2297 2 0 0 21.2309 -6.92428
2548 1 1.76924 1.76924 21.2309 -8.75591
2298 3 3.53848 0 17.6924 -6.63438
2549 2 5.30772 1.76924 17.6924 -6.95177
2797 3 5.30772 0 19.4616 -6.33515
3048 2 3.53848 1.76924 19.4616 -6.98907
3297 3 3.53848 0 21.2309 -6.36529
3548 3 5.30772 1.76924 21.2309 -6.41876
501 1 8.8462 1.76924 21.2309 -8.50097
32 3 7.07696 1.76924 19.4616 -6.25175
284 3 10.6154 0 17.6924 -6.49512
283 1 7.07696 0 21.2309 -8.26401
1048 2 10.6154 1.76924 19.4616 -6.92418
1299 1 10.6154 0 21.2309 -8.40358
3298 3 7.07696 0 17.6924 -6.47377
3549 1 8.8462 1.76924 17.6924 -8.65883
3798 2 8.8462 0 19.4616 -6.88481
502 1 12.3847 1.76924 17.6924 -8.71308
799 2 12.3847 0 19.4616 -6.98314
1300 2 14.1539 0 17.6924 -7.10266
1549 2 12.3847 1.76924 21.2309 -7.04615
2049 2 14.1539 1.76924 19.4616 -7.06776
2299 2 14.1539 0 21.2309 -7.08023
1550 3 15.9232 1.76924 17.6924 -6.70982
1799 2 15.9232 0 19.4616 -7.0844
2550 3 15.9232 1.76924 21.2309 -6.77297
2300 3 0 3.53848 17.6924 -6.52947
2551 3 1.76924 5.30772 17.6924 -6.43262
2798 2 1.76924 3.53848 19.4616 -6.99349
3049 3 0 5.30772 19.4616 -6.6351
3299 3 0 3.53848 21.2309 -6.48237
3550 2 1.76924 5.30772 21.2309 -6.90696
503 3 5.30772 5.30772 21.2309 -6.44124
33 2 3.53848 5.30772 19.4616 -6.93249
285 2 3.53848 3.53848 21.2309 -6.94147
3300 1 3.53848 3.53848 17.6924 -8.45354
3551 1 5.30772 5.30772 17.6924 -8.33774
3799 3 5.30772 3.53848 19.4616 -6.34266
504 3 8.8462 5.30772 17.6924 -6.53212
286 1 7.07696 3.53848 17.6924 -8.54498
800 3 8.8462 3.53848 19.4616 -6.39303
1049 2 7.07696 5.30772 19.4616 -6.86015
1302 3 10.6154 3.53848 17.6924 -6.42588
1301 1 7.07696 3.53848 21.2309 -8.78117
1551 2 8.8462 5.30772 21.2309 -7.02097
2050 2 10.6154 5.30772 19.4616 -6.9636
2301 3 10.6154 3.53848 21.2309 -6.60677
1552 1 12.3847 5.30772 17.6924 -8.55205
1800 1 12.3847 3.53848 19.4616 -8.66132
2302 3 14.1539 3.53848 17.6924 -6.53209
2552 3 12.3847 5.30772 21.2309 -6.60577
3050 3 14.1539 5.30772 19.4616 -6.43448
3301 2 14.1539 3.53848 21.2309 -7.00452
2553 3 15.9232 5.30772 17.6924 -6.57142
2799 3 15.9232 3.53848 19.4616 -6.59024
3552 1 15.9232 5.30772 21.2309 -8.77361
505 1 1.76924 8.8462 21.2309 -8.48206
34 1 0 8.8462 19.4616 -8.61107
290 2 0 10.6154 17.6924 -6.97303
287 1 0 7.07696 21.2309 -8.72786
802 1 1.76924 10.6154 19.4616 -8.48402
1305 2 0 10.6154 21.2309 -6.94286
3302 3 0 7.07696 17.6924 -6.62508
3553 3 1.76924 8.8462 17.6924 -6.40048
3800 3 1.76924 7.07696 19.4616 -6.39107
506 2 5.30772 8.8462 17.6924 -6.94412
288 1 3.53848 7.07696 17.6924 -8.72663
801 3 5.30772 7.07696 19.4616 -6.38674
1050 2 3.53848 8.8462 19.4616 -6.96396
1306 2 3.53848 10.6154 17.6924 -6.90447
1303 3 3.53848 7.07696 21.2309 -6.54038
1553 3 5.30772 8.8462 21.2309 -6.50992
1802 2 5.30772 10.6154 19.4616 -7.01566
2305 2 3.53848 10.6154 21.2309 -6.9547
291 1 10.6154 10.6154 21.2309 -8.22118
1304 2 7.07696 7.07696 17.6924 -6.91784
1554 1 8.8462 8.8462 17.6924 -8.37035
1801 3 8.8462 7.07696 19.4616 -6.42389
2051 1 7.07696 8.8462 19.4616 -8.50798
2306 1 7.07696 10.6154 17.6924 -8.20819
2304 1 10.6154 7.07696 17.6924 -8.48856
2303 1 7.07696 7.07696 21.2309 -8.80908
2554 2 8.8462 8.8462 21.2309 -6.96117
2801 2 8.8462 10.6154 19.4616 -7.01361
3051 2 10.6154 8.8462 19.4616 -6.96341
3306 1 10.6154 10.6154 17.6924 -8.25788
3305 2 7.07696 10.6154 21.2309 -7.01602
3303 3 10.6154 7.07696 21.2309 -6.66572
35 2 14.1539 8.8462 19.4616 -7.00816
292 2 14.1539 10.6154 17.6924 -6.95432
289 2 14.1539 7.07696 21.2309 -6.98521
1307 1 14.1539 10.6154 21.2309 -8.51497
2555 2 12.3847 8.8462 17.6924 -6.89836
2800 3 12.3847 7.07696 19.4616 -6.57385
3304 3 14.1539 7.07696 17.6924 -6.38267
3554 2 12.3847 8.8462 21.2309 -6.95276
3802 1 12.3847 10.6154 19.4616 -8.06608
507 2 15.9232 8.8462 21.2309 -7.0249
803 2 15.9232 10.6154 19.4616 -6.9807
3555 1 15.9232 8.8462 17.6924 -8.555
3801 3 15.9232 7.07696 19.4616 -6.54706
508 3 1.76924 12.3847 17.6924 -6.30943
1051 3 0 12.3847 19.4616 -6.35538
1308 2 0 14.1539 17.6924 -6.78466
1555 1 1.76924 12.3847 21.2309 -8.28831
1803 3 1.76924 14.1539 19.4616 -6.13196
2307 1 0 14.1539 21.2309 -8.52679
1556 2 5.30772 12.3847 17.6924 -7.02856
2052 2 3.53848 12.3847 19.4616 -6.93208
2308 1 3.53848 14.1539 17.6924 -8.49533
2556 1 5.30772 12.3847 21.2309 -8.30425
2802 3 5.30772 14.1539 19.4616 -6.14241
3307 1 3.53848 14.1539 21.2309 -8.49194
36 1 10.6154 12.3847 19.4616 -7.99239
294 3 10.6154 14.1539 17.6924 -6.28905
293 2 7.07696 14.1539 21.2309 -6.94502
1309 1 10.6154 14.1539 21.2309 -8.07184
2557 2 8.8462 12.3847 17.6924 -6.9073
3052 1 7.07696 12.3847 19.4616 -8.22968
3308 1 7.07696 14.1539 17.6924 -8.324
3556 1 8.8462 12.3847 21.2309 -7.9807
3803 2 8.8462 14.1539 19.4616 -6.95642
509 1 12.3847 12.3847 21.2309 -7.95337
804 1 12.3847 14.1539 19.4616 -8.02374
1052 1 14.1539 12.3847 19.4616 -8.01769
1310 1 14.1539 14.1539 17.6924 -8.26872
2309 1 14.1539 14.1539 21.2309 -8.34392
3557 1 12.3847 12.3847 17.6924 -8.08576
510 1 15.9232 12.3847 17.6924 -8.19303
1557 2 15.9232 12.3847 21.2309 -6.88403
1804 3 15.9232 14.1539 19.4616 -6.30883
1558 1 1.76924 15.9232 17.6924 -8.46601
2053 1 0 15.9232 19.4616 -8.49956
2558 3 1.76924 15.9232 21.2309 -6.0965
2559 3 5.30772 15.9232 17.6924 -6.2123
3053 1 3.53848 15.9232 19.4616 -8.31362
3558 2 5.30772 15.9232 21.2309 -6.93066
511 2 8.8462 15.9232 21.2309 -6.90432
37 1 7.07696 15.9232 19.4616 -8.61039
1053 3 10.6154 15.9232 19.4616 -6.13468
3559 2 8.8462 15.9232 17.6924 -6.92454
512 1 12.3847 15.9232 17.6924 -8.2498
1559 1 12.3847 15.9232 21.2309 -8.33038
2054 3 14.1539 15.9232 19.4616 -6.07276
1560 3 15.9232 15.9232 17.6924 -6.36977
2560 3 15.9232 15.9232 21.2309 -6.42205
2803 3 1.76924 0 23.0001 -6.46147
3054 3 0 1.76924 23.0001 -6.40868
3309 2 0 0 24.7694 -6.98619
3560 3 1.76924 1.76924 24.7694 -6.50447
39 3 5.30772 1.76924 24.7694 -6.43476
38 2 3.53848 1.76924 23.0001 -6.84096
3805 1 3.53848 0 24.7694 -8.82469
3804 3 5.30772 0 23.0001 -6.14742
513 2 8.8462 1.76924 24.7694 -6.96275
295 3 7.07696 0 24.7694 -6.27738
806 1 10.6154 0 24.7694 -8.6773
805 2 8.8462 0 23.0001 -6.97032
1054 1 7.07696 1.76924 23.0001 -8.62751
2055 3 10.6154 1.76924 23.0001 -6.53641
1055 2 12.3847 1.76924 24.7694 -7.05721
1311 1 14.1539 0 24.7694 -8.62206
1805 2 12.3847 0 23.0001 -6.99811
3055 3 14.1539 1.76924 23.0001 -6.69627
1561 2 15.9232 1.76924 24.7694 -7.07292
2804 3 15.9232 0 23.0001 -6.59964
40 3 0 5.30772 23.0001 -6.50243
1806 3 0 3.53848 24.7694 -6.44685
2056 3 1.76924 5.30772 24.7694 -6.44191
3806 3 1.76924 3.53848 23.0001 -6.46971
807 3 5.30772 3.53848 23.0001 -6.26255
1056 1 3.53848 5.30772 23.0001 -8.8164
2310 1 3.53848 3.53848 24.7694 -8.60484
2561 1 5.30772 5.30772 24.7694 -8.59259
1807 2 8.8462 3.53848 23.0001 -7.02841
2057 3 7.07696 5.30772 23.0001 -6.51386
2805 3 7.07696 3.53848 24.7694 -6.58261
3057 2 10.6154 5.30772 23.0001 -7.05938
3056 3 8.8462 5.30772 24.7694 -6.79615
3310 2 10.6154 3.53848 24.7694 -7.06938
41 3 14.1539 5.30772 23.0001 -6.39314
2806 2 12.3847 3.53848 23.0001 -7.0681
3561 1 12.3847 5.30772 24.7694 -8.7931
3808 3 14.1539 3.53848 24.7694 -6.50271
42 1 15.9232 5.30772 24.7694 -8.52406
3807 2 15.9232 3.53848 23.0001 -7.00088
514 1 1.76924 8.8462 24.7694 -8.5297
296 3 0 7.07696 24.7694 -6.47255
808 3 1.76924 7.07696 23.0001 -6.41013
1057 2 0 8.8462 23.0001 -6.92039
1810 2 1.76924 10.6154 23.0001 -6.92978
2808 2 0 10.6154 24.7694 -7.00588
809 2 3.53848 7.07696 24.7694 -6.93468
1058 2 5.30772 8.8462 24.7694 -7.03348
1808 3 5.30772 7.07696 23.0001 -6.49756
2058 2 3.53848 8.8462 23.0001 -6.99815
2809 1 5.30772 10.6154 23.0001 -8.41147
3311 1 3.53848 10.6154 24.7694 -8.69783
43 3 10.6154 8.8462 23.0001 -6.34734
297 2 10.6154 10.6154 24.7694 -6.96127
1312 2 7.07696 7.07696 24.7694 -7.07638
1562 1 8.8462 8.8462 24.7694 -8.57846
1809 2 10.6154 7.07696 24.7694 -6.98151
2807 2 8.8462 7.07696 23.0001 -7.04714
3058 2 7.07696 8.8462 23.0001 -7.01429
3811 2 7.07696 10.6154 24.7694 -7.06281
3810 1 8.8462 10.6154 23.0001 -8.15168
812 2 14.1539 10.6154 24.7694 -6.98696
811 3 12.3847 10.6154 23.0001 -6.27539
1059 2 14.1539 8.8462 23.0001 -6.98382
2059 1 12.3847 8.8462 24.7694 -8.65817
2311 3 14.1539 7.07696 24.7694 -6.22662
3809 1 12.3847 7.07696 23.0001 -8.61464
810 3 15.9232 7.07696 23.0001 -6.41277
1811 3 15.9232 10.6154 23.0001 -6.48863
2562 3 15.9232 8.8462 24.7694 -6.46099
1313 1 0 14.1539 24.7694 -8.42782
2060 1 0 12.3847 23.0001 -8.38717
2810 3 1.76924 14.1539 23.0001 -6.08815
3059 3 1.76924 12.3847 24.7694 -6.42341
1812 2 3.53848 14.1539 24.7694 -6.87955
3060 3 3.53848 12.3847 23.0001 -6.30964
3562 3 5.30772 12.3847 24.7694 -6.49576
3812 3 5.30772 14.1539 23.0001 -6.2482
45 1 8.8462 12.3847 24.7694 -8.09915
44 1 7.07696 12.3847 23.0001 -8.25551
813 1 8.8462 14.1539 23.0001 -8.12651
1060 1 10.6154 12.3847 23.0001 -7.96007
2312 3 7.07696 14.1539 24.7694 -6.18235
2811 1 10.6154 14.1539 24.7694 -8.1255
515 2 12.3847 12.3847 24.7694 -6.91751
1813 1 12.3847 14.1539 23.0001 -8.01909
2061 2 14.1539 12.3847 23.0001 -6.95551
3312 1 14.1539 14.1539 24.7694 -8.6133
1061 3 15.9232 12.3847 24.7694 -6.49027
2812 2 15.9232 14.1539 23.0001 -6.9593
1563 1 1.76924 15.9232 24.7694 -8.12059
3061 2 0 15.9232 23.0001 -6.85714
46 1 3.53848 15.9232 23.0001 -8.3103
2062 1 5.30772 15.9232 24.7694 -8.41915
1062 2 7.07696 15.9232 23.0001 -6.87481
2063 3 10.6154 15.9232 23.0001 -6.04539
2563 1 8.8462 15.9232 24.7694 -8.37401
3063 2 14.1539 15.9232 23.0001 -7.03609
3062 2 12.3847 15.9232 24.7694 -6.91148
3563 2 15.9232 15.9232 24.7694 -7.00861
751 3 1.76924 0 30.0771 -6.49457
47 2 0 1.76924 26.5386 -7.02397
298 2 0 0 28.3078 -7.09232
548 3 1.76924 1.76924 28.3078 -6.49295
1063 2 0 1.76924 30.0771 -6.98883
3813 2 1.76924 0 26.5386 -6.99831
299 2 5.30772 0 26.5386 -6.86496
549 3 3.53848 1.76924 26.5386 -6.45315
1314 3 3.53848 0 28.3078 -6.51968
1564 3 5.30772 1.76924 28.3078 -6.51025
1814 2 5.30772 0 30.0771 -6.87131
2064 1 3.53848 1.76924 30.0771 -8.64424
752 1 8.8462 0 26.5386 -8.7525
48 1 10.6154 1.76924 30.0771 -8.54535
1064 3 7.07696 1.76924 26.5386 -6.58958
1565 2 10.6154 1.76924 26.5386 -6.95366
2313 3 7.07696 0 28.3078 -6.23165
2564 3 8.8462 1.76924 28.3078 -6.3435
2813 1 8.8462 0 30.0771 -8.48563
3064 1 7.07696 1.76924 30.0771 -8.73153
3313 3 10.6154 0 28.3078 -6.3497
300 1 14.1539 0 28.3078 -8.39884
1065 3 14.1539 1.76924 30.0771 -6.46826
1315 2 12.3847 0 26.5386 -7.00333
2065 1 14.1539 1.76924 26.5386 -8.63418
3564 2 12.3847 1.76924 28.3078 -6.90271
3814 3 12.3847 0 30.0771 -6.33446
753 2 15.9232 0 30.0771 -6.95484
550 2 15.9232 1.76924 28.3078 -6.97901
1815 2 15.9232 0 26.5386 -7.08676
1316 2 0 3.53848 28.3078 -6.98594
1566 1 1.76924 5.30772 28.3078 -8.33897
1816 1 1.76924 3.53848 30.0771 -8.19924
2066 2 0 5.30772 30.0771 -6.89742
2314 1 1.76924 3.53848 26.5386 -8.71779
2565 2 0 5.30772 26.5386 -6.9732
2315 3 3.53848 3.53848 28.3078 -6.29128
2566 1 5.30772 5.30772 28.3078 -8.73617
2815 2 5.30772 3.53848 30.0771 -6.93676
2814 2 5.30772 3.53848 26.5386 -6.94638