ITEM: TIMESTEP
0
ITEM: NUMBER OF ATOMS
4000
ITEM: BOX BOUNDS pp pp pp
0.0000000000000000e+00 3.5525530000000003e+01
0.0000000000000000e+00 3.5525530000000003e+01
0.0000000000000000e+00 3.5525530000000003e+01
ITEM: ATOMS id type x y z c_peratom
267 3 0 0 0 -6.25744
517 1 1.77628 1.77628 0 -8.61478
768 3 1.77628 0 1.77628 -6.37947
1016 1 0 1.77628 1.77628 -8.29179
1270 2 0 3.55255 0 -6.93205
1268 3 3.55255 0 0 -6.16644
1267 1 0 0 3.55255 -8.49065
1517 3 1.77628 1.77628 3.55255 -6.26499
1767 2 1.77628 3.55255 1.77628 -6.98786
2017 2 3.55255 1.77628 1.77628 -6.96577
2269 3 3.55255 3.55255 0 -6.47105
2268 1 0 3.55255 3.55255 -8.21029
2266 2 3.55255 0 3.55255 -6.94799
3268 1 3.55255 3.55255 3.55255 -8.47588
1518 1 5.32883 1.77628 0 -8.36165
1766 3 5.32883 0 1.77628 -6.28548
2518 2 5.32883 1.77628 3.55255 -6.99586
2768 1 5.32883 3.55255 1.77628 -8.30724
270 2 7.10511 3.55255 3.55255 -7.0952
2267 1 7.10511 0 0 -8.13419
2519 3 8.88138 1.77628 0 -6.27668
2767 1 8.88138 0 1.77628 -8.1143
3017 2 7.10511 1.77628 1.77628 -6.94745
3269 2 7.10511 3.55255 0 -7.01919
3266 3 7.10511 0 3.55255 -6.27604
3517 2 8.88138 1.77628 3.55255 -6.91121
3769 3 8.88138 3.55255 1.77628 -6.50883
1 1 10.6577 1.77628 1.77628 -8.22088
271 2 10.6577 3.55255 0 -6.89568
269 3 14.2102 0 0 -6.08128
268 1 10.6577 0 3.55255 -8.07944
518 1 12.4339 1.77628 3.55255 -7.92389
770 1 12.4339 3.55255 1.77628 -8.14869
1017 1 14.2102 1.77628 1.77628 -8.14116
1272 1 14.2102 3.55255 0 -8.14586
1271 2 10.6577 3.55255 3.55255 -6.92725
1269 1 14.2102 0 3.55255 -7.97289
2270 1 14.2102 3.55255 3.55255 -8.32667
3267 1 10.6577 0 0 -8.24993
3518 3 12.4339 1.77628 0 -6.01069
3768 1 12.4339 0 1.77628 -7.98304
519 3 15.9865 1.77628 0 -6.24707
769 2 15.9865 0 1.77628 -6.96394
1519 1 15.9865 1.77628 3.55255 -8.10432
1768 1 15.9865 3.55255 1.77628 -8.3143
1520 2 1.77628 5.32883 0 -7.03809
2018 3 0 5.32883 1.77628 -6.22576
2520 3 1.77628 5.32883 3.55255 -6.30315
3018 2 3.55255 5.32883 1.77628 -7.11031
2521 1 5.32883 5.32883 0 -8.49387
3519 2 5.32883 5.32883 3.55255 -7.13372
2 2 7.10511 5.32883 1.77628 -7.06614
520 2 8.88138 5.32883 3.55255 -7.01991
3520 1 8.88138 5.32883 0 -8.50851
521 2 12.4339 5.32883 0 -6.92322
1018 1 10.6577 5.32883 1.77628 -8.4456
1521 3 12.4339 5.32883 3.55255 -6.29662
2019 3 14.2102 5.32883 1.77628 -6.13379
1522 1 15.9865 5.32883 0 -8.09948
2522 3 15.9865 5.32883 3.55255 -6.34626
3 1 3.55255 8.88138 1.77628 -8.55122
272 2 3.55255 7.10511 3.55255 -7.03288
2271 1 0 7.10511 0 -8.30032
2523 2 1.77628 8.88138 0 -6.9235
2769 2 1.77628 7.10511 1.77628 -7.02486
3019 1 0 8.88138 1.77628 -8.20506
3271 3 3.55255 7.10511 0 -6.63683
3270 1 0 7.10511 3.55255 -8.07786
3521 1 1.77628 8.88138 3.55255 -8.34381
522 1 5.32883 8.88138 3.55255 -8.50755
3522 2 5.32883 8.88138 0 -7.00988
3770 2 5.32883 7.10511 1.77628 -7.03816
273 2 7.10511 7.10511 0 -7.02712
523 3 8.88138 8.88138 0 -6.61157
771 3 8.88138 7.10511 1.77628 -6.59706
1019 3 7.10511 8.88138 1.77628 -6.59548
1273 3 7.10511 7.10511 3.55255 -6.56713
1523 3 8.88138 8.88138 3.55255 -6.37135
1274 3 10.6577 7.10511 0 -6.4515
1524 3 12.4339 8.88138 0 -6.45254
1769 1 12.4339 7.10511 1.77628 -8.49378
2020 2 10.6577 8.88138 1.77628 -6.96382
2273 1 14.2102 7.10511 0 -8.26941
2272 2 10.6577 7.10511 3.55255 -6.91467
2524 2 12.4339 8.88138 3.55255 -6.9631
3020 2 14.2102 8.88138 1.77628 -6.9456
3272 2 14.2102 7.10511 3.55255 -6.89385
2525 1 15.9865 8.88138 0 -8.22835
2770 3 15.9865 7.10511 1.77628 -6.22981
3523 1 15.9865 8.88138 3.55255 -8.29176
4 2 0 12.4339 1.77628 -6.98475
277 1 0 14.2102 0 -8.14927
275 3 3.55255 10.6577 0 -6.47521
274 2 0 10.6577 3.55255 -6.93493
524 2 1.77628 12.4339 3.55255 -6.95957
773 2 1.77628 14.2102 1.77628 -7.06899
1020 1 3.55255 12.4339 1.77628 -8.53974
1278 2 3.55255 14.2102 0 -7.02248
1277 2 0 14.2102 3.55255 -7.06823
1275 2 3.55255 10.6577 3.55255 -6.92452
2276 1 3.55255 14.2102 3.55255 -8.42157
3273 2 0 10.6577 0 -6.9304
3524 1 1.77628 12.4339 0 -8.31535
3771 3 1.77628 10.6577 1.77628 -6.29904
525 2 5.32883 12.4339 0 -7.00423
772 3 5.32883 10.6577 1.77628 -6.44303
1525 2 5.32883 12.4339 3.55255 -6.98802
1771 2 5.32883 14.2102 1.77628 -7.01136
1276 3 7.10511 10.6577 0 -6.58092
1526 2 8.88138 12.4339 0 -7.01767
1770 3 8.88138 10.6577 1.77628 -6.5426
2021 2 7.10511 12.4339 1.77628 -6.95619
2277 2 7.10511 14.2102 0 -6.96605
2274 1 7.10511 10.6577 3.55255 -8.42515
2526 3 8.88138 12.4339 3.55255 -6.27125
2772 1 8.88138 14.2102 1.77628 -8.51595
3276 1 7.10511 14.2102 3.55255 -8.40804
5 3 14.2102 12.4339 1.77628 -6.72044
279 3 14.2102 14.2102 0 -6.82011
278 2 10.6577 14.2102 3.55255 -6.99942
276 3 14.2102 10.6577 3.55255 -6.52064
1279 3 14.2102 14.2102 3.55255 -6.68683
2275 2 10.6577 10.6577 0 -7.09702
2527 2 12.4339 12.4339 0 -7.19163
2771 1 12.4339 10.6577 1.77628 -8.66166
3021 3 10.6577 12.4339 1.77628 -6.54327
3277 3 10.6577 14.2102 0 -6.63176
3275 2 14.2102 10.6577 0 -6.9981
3274 1 10.6577 10.6577 3.55255 -8.54161
3525 2 12.4339 12.4339 3.55255 -7.07851
3773 2 12.4339 14.2102 1.77628 -7.16138
526 2 15.9865 12.4339 3.55255 -7.10314
774 2 15.9865 14.2102 1.77628 -7.10844
3526 2 15.9865 12.4339 0 -7.03723
3772 3 15.9865 10.6577 1.77628 -6.40101
527 3 1.77628 15.9865 0 -6.47971
1021 2 0 15.9865 1.77628 -7.07063
1527 2 1.77628 15.9865 3.55255 -7.06965
2022 2 3.55255 15.9865 1.77628 -6.97059
1528 1 5.32883 15.9865 0 -8.42541
2528 3 5.32883 15.9865 3.55255 -6.22976
2529 3 8.88138 15.9865 0 -6.27084
3022 1 7.10511 15.9865 1.77628 -8.19677
3527 1 8.88138 15.9865 3.55255 -8.30522
6 2 10.6577 15.9865 1.77628 -7.02831
528 2 12.4339 15.9865 3.55255 -7.03197
1022 2 14.2102 15.9865 1.77628 -7.08599
3528 2 12.4339 15.9865 0 -7.12847
529 3 15.9865 15.9865 0 -6.58317
1529 1 15.9865 15.9865 3.55255 -8.58788
776 3 0 3.55255 7.10511 -6.24148
1284 3 1.77628 3.55255 8.88138 -6.35917
1280 2 3.55255 3.55255 7.10511 -7.0011
1772 3 1.77628 0 5.32883 -6.30257
2023 1 0 1.77628 5.32883 -8.346
2278 2 0 0 7.10511 -6.82371
2530 2 1.77628 1.77628 7.10511 -6.84923
2782 3 1.77628 0 8.88138 -6.2389
2775 2 1.77628 3.55255 5.32883 -6.94378
2774 3 3.55255 0 7.10511 -6.27889
3032 3 0 1.77628 8.88138 -6.45561
3023 1 3.55255 1.77628 5.32883 -8.44169
3533 1 3.55255 1.77628 8.88138 -8.51362
1783 2 5.32883 3.55255 8.88138 -7.05094
2773 1 5.32883 0 5.32883 -8.40976
3024 1 5.32883 1.77628 7.10511 -8.32939
3282 1 5.32883 0 8.88138 -8.54479
3776 2 5.32883 3.55255 5.32883 -7.075
7 3 7.10511 1.77628 5.32883 -6.42321
17 2 7.10511 1.77628 8.88138 -6.95807
777 1 8.88138 3.55255 5.32883 -8.52485
1774 2 7.10511 3.55255 7.10511 -7.01854
2283 2 8.88138 3.55255 8.88138 -6.97416
3278 2 7.10511 0 7.10511 -6.9476
3529 1 8.88138 1.77628 7.10511 -8.66161
3784 3 8.88138 0 8.88138 -6.25698
3774 3 8.88138 0 5.32883 -6.30868
8 1 12.4339 1.77628 7.10511 -8.27477
252 1 12.4339 0 8.88138 -8.32225
280 1 14.2102 0 7.10511 -8.35029
534 1 10.6577 1.77628 8.88138 -8.37286
775 1 12.4339 0 5.32883 -8.07575
1033 3 14.2102 1.77628 8.88138 -6.26352
1023 3 10.6577 1.77628 5.32883 -6.09927
1775 1 12.4339 3.55255 5.32883 -8.41543
2024 2 14.2102 1.77628 5.32883 -7.0323
2279 3 10.6577 3.55255 7.10511 -6.16925
2785 2 12.4339 3.55255 8.88138 -6.89643
2777 2 14.2102 3.55255 7.10511 -6.92599
3775 3 10.6577 0 7.10511 -6.21787
530 2 15.9865 1.77628 7.10511 -6.95612
785 1 15.9865 0 8.88138 -8.08477
1773 3 15.9865 0 5.32883 -6.13383
2776 2 15.9865 3.55255 5.32883 -6.87477
3285 2 15.9865 3.55255 8.88138 -7.01867
9 2 3.55255 5.32883 5.32883 -7.05756
1024 1 1.77628 5.32883 7.10511 -8.20631
1534 1 0 5.32883 8.88138 -8.49191
2034 2 3.55255 5.32883 8.88138 -7.04058
3025 1 0 5.32883 5.32883 -8.08897
1530 1 5.32883 5.32883 7.10511 -8.51017
1025 2 7.10511 5.32883 5.32883 -7.06711
2025 1 8.88138 5.32883 7.10511 -8.62216
2535 2 7.10511 5.32883 8.88138 -7.05578
2026 3 10.6577 5.32883 5.32883 -6.37765
2531 1 12.4339 5.32883 7.10511 -8.81462
3035 2 10.6577 5.32883 8.88138 -6.90315
3026 3 14.2102 5.32883 5.32883 -6.27006
3536 3 14.2102 5.32883 8.88138 -6.36379
3027 1 15.9865 5.32883 7.10511 -8.40362
10 2 0 8.88138 5.32883 -6.96954
20 1 0 8.88138 8.88138 -8.37627
537 2 3.55255 8.88138 8.88138 -7.00685
1026 3 3.55255 8.88138 5.32883 -6.36189
3279 1 0 7.10511 7.10511 -8.09133
3530 1 1.77628 8.88138 7.10511 -8.35418
3787 2 1.77628 7.10511 8.88138 -7.04315
3778 1 3.55255 7.10511 7.10511 -8.25539
3777 1 1.77628 7.10511 5.32883 -8.12366
11 2 5.32883 8.88138 7.10511 -6.89849
255 2 5.32883 7.10511 8.88138 -7.00943
778 2 5.32883 7.10511 5.32883 -7.02398
281 3 7.10511 7.10511 7.10511 -6.34124
531 1 8.88138 8.88138 7.10511 -8.36774
788 1 8.88138 7.10511 8.88138 -8.46123
1036 3 7.10511 8.88138 8.88138 -6.30135
1776 3 8.88138 7.10511 5.32883 -6.38682
2027 1 7.10511 8.88138 5.32883 -8.41625
12 1 14.2102 8.88138 5.32883 -8.42615
779 3 10.6577 7.10511 7.10511 -6.16359
1027 1 12.4339 8.88138 7.10511 -8.72035
1287 3 12.4339 7.10511 8.88138 -6.36604
1281 3 14.2102 7.10511 7.10511 -6.20337
1537 3 10.6577 8.88138 8.88138 -6.40723
2037 2 14.2102 8.88138 8.88138 -6.94057
2778 3 12.4339 7.10511 5.32883 -6.37973
3028 1 10.6577 8.88138 5.32883 -8.35907
1531 1 15.9865 8.88138 7.10511 -8.23594
1786 2 15.9865 7.10511 8.88138 -6.91902
3779 1 15.9865 7.10511 5.32883 -8.31527
282 3 0 14.2102 7.10511 -6.46115
791 3 1.77628 14.2102 8.88138 -6.56248
782 2 3.55255 14.2102 7.10511 -6.96164
780 3 1.77628 10.6577 5.32883 -6.28891
1028 1 0 12.4339 5.32883 -8.6088
1779 3 1.77628 14.2102 5.32883 -6.41394
1777 2 0 10.6577 7.10511 -6.93895
2029 1 3.55255 12.4339 5.32883 -8.51998
2028 1 1.77628 12.4339 7.10511 -8.51946
2286 2 1.77628 10.6577 8.88138 -6.96007
2280 3 3.55255 10.6577 7.10511 -6.3896
2538 1 0 12.4339 8.88138 -8.58641
3038 3 3.55255 12.4339 8.88138 -6.57353
1290 3 5.32883 14.2102 8.88138 -6.58724
1778 2 5.32883 10.6577 5.32883 -6.94586
2532 3 5.32883 12.4339 7.10511 -6.48035
2788 1 5.32883 10.6577 8.88138 -8.77788
2781 2 5.32883 14.2102 5.32883 -6.99823
1282 2 7.10511 14.2102 7.10511 -6.98577
1789 3 8.88138 14.2102 8.88138 -6.45537
2780 3 7.10511 10.6577 7.10511 -6.21019
2779 1 8.88138 10.6577 5.32883 -8.10059
3030 1 8.88138 12.4339 7.10511 -8.53289
3029 1 7.10511 12.4339 5.32883 -8.35327
3288 1 8.88138 10.6577 8.88138 -8.56226
3539 3 7.10511 12.4339 8.88138 -6.42194
3782 3 8.88138 14.2102 5.32883 -6.42882
13 3 10.6577 12.4339 5.32883 -6.40546
23 3 10.6577 12.4339 8.88138 -6.30089
540 1 14.2102 12.4339 8.88138 -8.4281
783 2 12.4339 14.2102 5.32883 -7.05832
1029 2 14.2102 12.4339 5.32883 -7.05289
1780 2 10.6577 14.2102 7.10511 -6.95273
2289 1 12.4339 14.2102 8.88138 -8.26389
2281 2 14.2102 14.2102 7.10511 -6.95954
3280 2 10.6577 10.6577 7.10511 -6.90154
3531 1 12.4339 12.4339 7.10511 -8.59803
3790 3 12.4339 10.6577 8.88138 -6.39136
3781 3 14.2102 10.6577 7.10511 -6.27192
3780 2 12.4339 10.6577 5.32883 -6.98203
14 3 15.9865 12.4339 7.10511 -6.53035
258 1 15.9865 10.6577 8.88138 -8.66547
781 2 15.9865 10.6577 5.32883 -6.96826
1781 3 15.9865 14.2102 5.32883 -6.62673
2791 3 15.9865 14.2102 8.88138 -6.41666
532 3 1.77628 15.9865 7.10511 -6.57758
1039 3 0 15.9865 8.88138 -6.5585
1540 2 3.55255 15.9865 8.88138 -7.06621
2030 2 0 15.9865 5.32883 -7.05382
3031 1 3.55255 15.9865 5.32883 -8.37255
1030 2 5.32883 15.9865 7.10511 -7.08362
15 2 7.10511 15.9865 5.32883 -6.97871
1532 2 8.88138 15.9865 7.10511 -7.01001
2040 2 7.10511 15.9865 8.88138 -7.0245
1031 3 10.6577 15.9865 5.32883 -6.47447
2032 1 14.2102 15.9865 5.32883 -8.35084
2031 1 12.4339 15.9865 7.10511 -8.51797
2541 3 10.6577 15.9865 8.88138 -6.35517
3041 3 14.2102 15.9865 8.88138 -6.20295
2533 2 15.9865 15.9865 7.10511 -6.94135
251 3 3.55255 0 10.6577 -6.32397
253 2 0 3.55255 10.6577 -6.94489
16 3 0 1.77628 12.4339 -6.28164
786 2 1.77628 3.55255 12.4339 -6.95926
1032 2 3.55255 1.77628 12.4339 -6.9301
1285 2 3.55255 3.55255 10.6577 -7.01009
3281 1 0 0 10.6577 -8.42797
3532 1 1.77628 1.77628 10.6577 -8.43383
3783 1 1.77628 0 12.4339 -8.51654
533 3 5.32883 1.77628 10.6577 -6.53147
784 2 5.32883 0 12.4339 -6.8825
1784 3 5.32883 3.55255 12.4339 -6.51456
1283 3 7.10511 0 10.6577 -6.2983
1533 2 8.88138 1.77628 10.6577 -6.9054
1782 1 8.88138 0 12.4339 -8.33556
2033 3 7.10511 1.77628 12.4339 -6.48109
2284 1 7.10511 3.55255 10.6577 -8.6857
2784 2 8.88138 3.55255 12.4339 -6.95673
254 2 14.2102 3.55255 10.6577 -6.96462
18 1 14.2102 1.77628 12.4339 -8.17351
2282 1 10.6577 0 10.6577 -8.2603
2534 3 12.4339 1.77628 10.6577 -6.16362
2783 3 12.4339 0 12.4339 -6.14514
3033 1 10.6577 1.77628 12.4339 -8.48267
3284 3 10.6577 3.55255 10.6577 -6.3334
3283 1 14.2102 0 10.6577 -8.21071
3786 1 12.4339 3.55255 12.4339 -8.16919
787 2 15.9865 3.55255 12.4339 -6.85836
3534 1 15.9865 1.77628 10.6577 -8.14419
3785 1 15.9865 0 12.4339 -8.15393
535 3 1.77628 5.32883 10.6577 -6.44381
1034 1 0 5.32883 12.4339 -8.34751
2035 2 3.55255 5.32883 12.4339 -6.97283
1535 3 5.32883 5.32883 10.6577 -6.59359
2536 1 8.88138 5.32883 10.6577 -8.48566
3034 3 7.10511 5.32883 12.4339 -6.51751
19 2 10.6577 5.32883 12.4339 -6.94902
1035 1 14.2102 5.32883 12.4339 -8.07514
3535 1 12.4339 5.32883 10.6577 -8.44309
536 2 15.9865 5.32883 10.6577 -6.9479
1286 1 0 7.10511 10.6577 -8.37623
1536 1 1.77628 8.88138 10.6577 -8.22945
1785 3 1.77628 7.10511 12.4339 -6.3715
2036 3 0 8.88138 12.4339 -6.47267
2285 1 3.55255 7.10511 10.6577 -8.58507
3036 2 3.55255 8.88138 12.4339 -7.00891
2537 1 5.32883 8.88138 10.6577 -8.38273
2786 3 5.32883 7.10511 12.4339 -6.47777
21 1 7.10511 8.88138 12.4339 -8.37809
3286 2 7.10511 7.10511 10.6577 -6.97058
3537 2 8.88138 8.88138 10.6577 -6.97685
3788 2 8.88138 7.10511 12.4339 -6.97477
256 2 10.6577 7.10511 10.6577 -7.0345
538 2 12.4339 8.88138 10.6577 -7.04278
789 2 12.4339 7.10511 12.4339 -7.03336
1037 1 10.6577 8.88138 12.4339 -8.4467
1288 1 14.2102 7.10511 10.6577 -8.45136
2038 2 14.2102 8.88138 12.4339 -7.07995
1538 3 15.9865 8.88138 10.6577 -6.44092
1787 1 15.9865 7.10511 12.4339 -8.46549
259 2 3.55255 14.2102 10.6577 -7.01879
22 2 3.55255 12.4339 12.4339 -7.03865
2287 2 0 10.6577 10.6577 -6.97299
2539 3 1.77628 12.4339 10.6577 -6.53134
2787 1 1.77628 10.6577 12.4339 -8.45339
3037 1 0 12.4339 12.4339 -8.60823
3289 3 0 14.2102 10.6577 -6.42095
3287 2 3.55255 10.6577 10.6577 -6.98273
3791 3 1.77628 14.2102 12.4339 -6.62546
792 3 5.32883 14.2102 12.4339 -6.48819
3538 3 5.32883 12.4339 10.6577 -6.51199
3789 3 5.32883 10.6577 12.4339 -6.48313
257 2 7.10511 10.6577 10.6577 -6.92381
539 2 8.88138 12.4339 10.6577 -6.96447
790 1 8.88138 10.6577 12.4339 -8.13644
1038 1 7.10511 12.4339 12.4339 -8.51638
1291 1 7.10511 14.2102 10.6577 -8.5251
1790 2 8.88138 14.2102 12.4339 -6.99307
1289 2 10.6577 10.6577 10.6577 -7.03886
1539 1 12.4339 12.4339 10.6577 -8.40025
1788 2 12.4339 10.6577 12.4339 -7.07172
2039 1 10.6577 12.4339 12.4339 -8.20441
2290 2 10.6577 14.2102 10.6577 -7.01012
2288 2 14.2102 10.6577 10.6577 -7.02138
2790 1 12.4339 14.2102 12.4339 -8.19186
3039 3 14.2102 12.4339 12.4339 -6.42441
3290 3 14.2102 14.2102 10.6577 -6.10475
2540 3 15.9865 12.4339 10.6577 -6.34665
2789 2 15.9865 10.6577 12.4339 -7.10189
3792 1 15.9865 14.2102 12.4339 -8.34187
24 3 0 15.9865 12.4339 -6.5412
1040 2 3.55255 15.9865 12.4339 -7.04396
3540 3 1.77628 15.9865 10.6577 -6.66145
541 1 5.32883 15.9865 10.6577 -8.46361
1541 1 8.88138 15.9865 10.6577 -8.57522
2041 2 7.10511 15.9865 12.4339 -6.9611
25 3 14.2102 15.9865 12.4339 -5.99726
2542 1 12.4339 15.9865 10.6577 -8.35396
3040 1 10.6577 15.9865 12.4339 -8.15873
3541 1 15.9865 15.9865 10.6577 -8.52504
260 3 0 0 14.2102 -6.14934
542 3 1.77628 1.77628 14.2102 -6.39716
793 2 1.77628 0 15.9865 -6.9047
1041 2 0 1.77628 15.9865 -6.91276
1293 1 0 3.55255 14.2102 -8.22511
1292 3 3.55255 0 14.2102 -6.45572
1792 1 1.77628 3.55255 15.9865 -8.23752
2042 2 3.55255 1.77628 15.9865 -7.0139
2292 1 3.55255 3.55255 14.2102 -8.52874
1542 1 5.32883 1.77628 14.2102 -8.60768
1791 2 5.32883 0 15.9865 -6.98097
2793 3 5.32883 3.55255 15.9865 -6.51115
2291 2 7.10511 0 14.2102 -6.9308
2543 3 8.88138 1.77628 14.2102 -6.38526
2792 3 8.88138 0 15.9865 -6.2326
3042 2 7.10511 1.77628 15.9865 -6.93705
3292 2 7.10511 3.55255 14.2102 -6.94498
3794 1 8.88138 3.55255 15.9865 -8.35153
261 1 14.2102 0 14.2102 -8.30648
262 2 10.6577 3.55255 14.2102 -6.98259
26 1 10.6577 1.77628 15.9865 -8.45889
795 1 12.4339 3.55255 15.9865 -8.1002
1042 1 14.2102 1.77628 15.9865 -8.11387
1294 1 14.2102 3.55255 14.2102 -8.24598
3291 3 10.6577 0 14.2102 -6.29596
3542 2 12.4339 1.77628 14.2102 -6.93241
3793 3 12.4339 0 15.9865 -6.33531
543 3 15.9865 1.77628 14.2102 -6.12928
794 1 15.9865 0 15.9865 -8.24229
1793 3 15.9865 3.55255 15.9865 -6.2361
1543 2 1.77628 5.32883 14.2102 -7.00233
2043 1 0 5.32883 15.9865 -8.09501
3043 2 3.55255 5.32883 15.9865 -6.88443
2544 2 5.32883 5.32883 14.2102 -6.96681
27 3 7.10511 5.32883 15.9865 -6.39423
3543 1 8.88138 5.32883 14.2102 -8.54904
544 1 12.4339 5.32883 14.2102 -8.09833
1043 2 10.6577 5.32883 15.9865 -6.94971
2044 2 14.2102 5.32883 15.9865 -6.94415
1544 3 15.9865 5.32883 14.2102 -6.28692
28 2 3.55255 8.88138 15.9865 -7.0415
2293 2 0 7.10511 14.2102 -6.94143
2545 2 1.77628 8.88138 14.2102 -7.06178
2794 3 1.77628 7.10511 15.9865 -6.36814
3044 3 0 8.88138 15.9865 -6.43875
3293 1 3.55255 7.10511 14.2102 -8.79279
3544 2 5.32883 8.88138 14.2102 -6.92823
3795 3 5.32883 7.10511 15.9865 -6.4086
263 3 7.10511 7.10511 14.2102 -6.48762
545 2 8.88138 8.88138 14.2102 -6.99815
796 1 8.88138 7.10511 15.9865 -8.51122
1044 3 7.10511 8.88138 15.9865 -6.2879
1295 3 10.6577 7.10511 14.2102 -6.35798
1545 2 12.4339 8.88138 14.2102 -7.01822
1794 1 12.4339 7.10511 15.9865 -8.29622
2045 2 10.6577 8.88138 15.9865 -6.91325
2294 1 14.2102 7.10511 14.2102 -8.15296
3045 3 14.2102 8.88138 15.9865 -6.45438
2546 2 15.9865 8.88138 14.2102 -7.03599
2795 1 15.9865 7.10511 15.9865 -8.51978
265 2 0 14.2102 14.2102 -6.8932
264 2 3.55255 10.6577 14.2102 -7.11082
29 1 0 12.4339 15.9865 -8.37755
798 3 1.77628 14.2102 15.9865 -6.40161
1045 2 3.55255 12.4339 15.9865 -7.13428
1297 2 3.55255 14.2102 14.2102 -7.03388
3294 2 0 10.6577 14.2102 -6.99223
3545 3 1.77628 12.4339 14.2102 -6.56263
3796 2 1.77628 10.6577 15.9865 -7.05508
546 3 5.32883 12.4339 14.2102 -6.62029
797 3 5.32883 10.6577 15.9865 -6.63126
1796 2 5.32883 14.2102 15.9865 -7.04981
1296 1 7.10511 10.6577 14.2102 -8.4325
1546 3 8.88138 12.4339 14.2102 -6.27741
1795 1 8.88138 10.6577 15.9865 -8.51444
2046 2 7.10511 12.4339 15.9865 -6.98546
2296 2 7.10511 14.2102 14.2102 -6.98831
2797 3 8.88138 14.2102 15.9865 -6.43975
266 1 14.2102 14.2102 14.2102 -8.34869
30 2 14.2102 12.4339 15.9865 -7.1406
2295 1 10.6577 10.6577 14.2102 -8.14853
2547 2 12.4339 12.4339 14.2102 -7.01458
2796 2 12.4339 10.6577 15.9865 -7.0382
3046 1 10.6577 12.4339 15.9865 -8.55079
3296 2 10.6577 14.2102 14.2102 -6.98518
3295 3 14.2102 10.6577 14.2102 -6.7869
3798 2 12.4339 14.2102 15.9865 -7.01779
799 3 15.9865 14.2102 15.9865 -6.37863
3546 2 15.9865 12.4339 14.2102 -7.033
3797 2 15.9865 10.6577 15.9865 -7.11187
547 3 1.77628 15.9865 14.2102 -6.51284
1046 3 0 15.9865 15.9865 -6.31057
2047 1 3.55255 15.9865 15.9865 -8.35483
1547 1 5.32883 15.9865 14.2102 -8.2458
2548 1 8.88138 15.9865 14.2102 -8.45522
3047 1 7.10511 15.9865 15.9865 -8.33897
31 2 10.6577 15.9865 15.9865 -6.95885
1047 3 14.2102 15.9865 15.9865 -6.20365
3547 1 12.4339 15.9865 14.2102 -8.32359
548 1 15.9865 15.9865 14.2102 -8.34884
285 1 3.55255 3.55255 21.3153 -8.44273
1298 3 0 0 17.7628 -6.28432
1548 2 1.77628 1.77628 17.7628 -6.93641
1797 1 1.77628 0 19.539 -8.51453
2048 3 0 1.77628 19.539 -6.24937
2300 1 0 3.55255 17.7628 -8.4091
2298 1 3.55255 0 17.7628 -8.59431
2297 3 0 0 21.3153 -6.41431
2549 1 1.77628 1.77628 21.3153 -8.4042
2799 2 1.77628 3.55255 19.539 -6.74175
3048 3 3.55255 1.77628 19.539 -6.26351
3300 1 3.55255 3.55255 17.7628 -8.61843
3299 1 0 3.55255 21.3153 -8.59746
3297 3 3.55255 0 21.3153 -6.42984
2550 2 5.32883 1.77628 17.7628 -6.97819
2798 2 5.32883 0 19.539 -6.92242
3548 2 5.32883 1.77628 21.3153 -6.87362
3800 1 5.32883 3.55255 19.539 -8.29613
501 1 8.88138 1.77628 21.3153 -8.19996
32 1 7.10511 1.77628 19.539 -8.07847
286 2 7.10511 3.55255 17.7628 -6.92034
283 1 7.10511 0 21.3153 -8.56163
801 2 8.88138 3.55255 19.539 -6.97999
1301 1 7.10511 3.55255 21.3153 -8.10493
3298 1 7.10511 0 17.7628 -8.37856
3549 1 8.88138 1.77628 17.7628 -8.14332
3799 3 8.88138 0 19.539 -6.17848
502 1 12.4339 1.77628 17.7628 -8.31084
284 3 10.6577 0 17.7628 -6.34727
800 2 12.4339 0 19.539 -6.89497
1048 1 10.6577 1.77628 19.539 -8.2731
1302 1 10.6577 3.55255 17.7628 -8.13769
1300 2 14.2102 0 17.7628 -6.8732
1299 3 10.6577 0 21.3153 -6.18105
1549 1 12.4339 1.77628 21.3153 -8.27804
1799 2 12.4339 3.55255 19.539 -7.0395
2049 3 14.2102 1.77628 19.539 -6.29408
2302 2 14.2102 3.55255 17.7628 -6.90817
2301 2 10.6577 3.55255 21.3153 -7.00103
2299 1 14.2102 0 21.3153 -8.29298
3301 2 14.2102 3.55255 21.3153 -6.8917
1550 1 15.9865 1.77628 17.7628 -8.21391
1798 1 15.9865 0 19.539 -8.4486
2551 3 15.9865 1.77628 21.3153 -6.23177
2800 3 15.9865 3.55255 19.539 -6.28692
33 3 3.55255 5.32883 19.539 -6.1874
2552 3 1.77628 5.32883 17.7628 -6.11381
3049 3 0 5.32883 19.539 -6.16888
3550 3 1.77628 5.32883 21.3153 -6.29098
503 1 5.32883 5.32883 21.3153 -8.47653
3551 3 5.32883 5.32883 17.7628 -6.33503
504 3 8.88138 5.32883 17.7628 -6.18269
1049 2 7.10511 5.32883 19.539 -6.9263
1551 1 8.88138 5.32883 21.3153 -8.26341
1552 3 12.4339 5.32883 17.7628 -6.25997
2050 1 10.6577 5.32883 19.539 -8.40197
2553 3 12.4339 5.32883 21.3153 -6.62735
3050 2 14.2102 5.32883 19.539 -6.97617
2554 1 15.9865 5.32883 17.7628 -8.48191
3552 1 15.9865 5.32883 21.3153 -8.77234
505 3 1.77628 8.88138 21.3153 -6.37459
34 3 0 8.88138 19.539 -6.53146
288 1 3.55255 7.10511 17.7628 -8.66842
287 3 0 7.10511 21.3153 -6.53062
1050 2 3.55255 8.88138 19.539 -6.98036
1303 2 3.55255 7.10511 21.3153 -6.86709
3302 1 0 7.10511 17.7628 -8.55075
3553 3 1.77628 8.88138 17.7628 -6.52203
3801 1 1.77628 7.10511 19.539 -8.7392
506 1 5.32883 8.88138 17.7628 -8.4423
802 2 5.32883 7.10511 19.539 -6.93249
1553 1 5.32883 8.88138 21.3153 -8.40871
1304 1 7.10511 7.10511 17.7628 -8.41267
1554 3 8.88138 8.88138 17.7628 -6.26992
1800 1 8.88138 7.10511 19.539 -8.3139
2051 1 7.10511 8.88138 19.539 -8.39856
2303 3 7.10511 7.10511 21.3153 -6.32806
2555 2 8.88138 8.88138 21.3153 -6.89619
35 3 14.2102 8.88138 19.539 -6.35053
289 3 14.2102 7.10511 21.3153 -6.30754
2304 1 10.6577 7.10511 17.7628 -8.17408
2556 1 12.4339 8.88138 17.7628 -8.44314
2801 2 12.4339 7.10511 19.539 -6.93934
3051 2 10.6577 8.88138 19.539 -6.90087
3304 1 14.2102 7.10511 17.7628 -8.41465
3303 3 10.6577 7.10511 21.3153 -6.41499
3554 1 12.4339 8.88138 21.3153 -8.56124
507 1 15.9865 8.88138 21.3153 -8.58698
3555 2 15.9865 8.88138 17.7628 -6.90111
3802 3 15.9865 7.10511 19.539 -6.27672
508 1 1.77628 12.4339 17.7628 -8.4713
290 3 0 10.6577 17.7628 -6.52945
803 2 1.77628 10.6577 19.539 -7.03163
1051 2 0 12.4339 19.539 -6.94794
1308 1 0 14.2102 17.7628 -8.46647
1306 2 3.55255 10.6577 17.7628 -7.07554
1305 2 0 10.6577 21.3153 -7.006
1555 3 1.77628 12.4339 21.3153 -6.56008
1802 3 1.77628 14.2102 19.539 -6.49257
2052 2 3.55255 12.4339 19.539 -7.06373
2308 2 3.55255 14.2102 17.7628 -6.98262
2307 3 0 14.2102 21.3153 -6.47292
2305 1 3.55255 10.6577 21.3153 -8.54131
3307 2 3.55255 14.2102 21.3153 -6.9176
1556 2 5.32883 12.4339 17.7628 -7.1508
1801 2 5.32883 10.6577 19.539 -7.07849
2557 3 5.32883 12.4339 21.3153 -6.5102
2803 1 5.32883 14.2102 19.539 -8.6901
293 3 7.10511 14.2102 21.3153 -6.33049
2306 3 7.10511 10.6577 17.7628 -6.52413
2558 3 8.88138 12.4339 17.7628 -6.52493
2802 3 8.88138 10.6577 19.539 -6.55486
3052 2 7.10511 12.4339 19.539 -7.06912
3308 2 7.10511 14.2102 17.7628 -7.02508
3305 2 7.10511 10.6577 21.3153 -6.98995
3556 3 8.88138 12.4339 21.3153 -6.51728
3804 2 8.88138 14.2102 19.539 -6.9792
509 3 12.4339 12.4339 21.3153 -6.47118
36 2 10.6577 12.4339 19.539 -6.94689
294 1 10.6577 14.2102 17.7628 -8.63184
292 2 14.2102 10.6577 17.7628 -7.10375
291 1 10.6577 10.6577 21.3153 -8.41201
805 3 12.4339 14.2102 19.539 -6.43948
1052 2 14.2102 12.4339 19.539 -7.05195
1310 2 14.2102 14.2102 17.7628 -7.00859
1309 3 10.6577 14.2102 21.3153 -6.45052
1307 3 14.2102 10.6577 21.3153 -6.42126
2309 1 14.2102 14.2102 21.3153 -8.3229
3306 3 10.6577 10.6577 17.7628 -6.51606
3557 3 12.4339 12.4339 17.7628 -6.64094
3803 2 12.4339 10.6577 19.539 -6.99917
510 2 15.9865 12.4339 17.7628 -7.05962
804 3 15.9865 10.6577 19.539 -6.3789
1557 2 15.9865 12.4339 21.3153 -6.90815
1803 3 15.9865 14.2102 19.539 -6.30121
1558 1 1.77628 15.9865 17.7628 -8.37464
2053 3 0 15.9865 19.539 -6.2647
2559 3 1.77628 15.9865 21.3153 -6.35835
3053 3 3.55255 15.9865 19.539 -6.30537
2560 3 5.32883 15.9865 17.7628 -6.26973
3558 3 5.32883 15.9865 21.3153 -6.18935
511 1 8.88138 15.9865 21.3153 -8.21104
37 1 7.10511 15.9865 19.539 -8.3498
3559 2 8.88138 15.9865 17.7628 -6.95968
512 2 12.4339 15.9865 17.7628 -6.8975
1053 2 10.6577 15.9865 19.539 -6.86128
1559 1 12.4339 15.9865 21.3153 -8.29063
2054 1 14.2102 15.9865 19.539 -8.29894
1560 1 15.9865 15.9865 17.7628 -8.53556
2561 1 15.9865 15.9865 21.3153 -8.26198
39 1 3.55255 1.77628 23.0916 -8.27507
38 1 0 1.77628 26.6441 -8.60092
296 3 0 3.55255 24.8679 -6.6204
295 1 3.55255 0 24.8679 -8.30413
808 2 1.77628 3.55255 26.6441 -6.84996
1054 3 3.55255 1.77628 26.6441 -6.15415
1312 1 3.55255 3.55255 24.8679 -8.61456
2804 2 1.77628 0 23.0916 -6.95655
3054 2 0 1.77628 23.0916 -6.92645
3309 3 0 0 24.8679 -6.60866
3560 3 1.77628 1.77628 24.8679 -6.34804
3808 3 1.77628 3.55255 23.0916 -6.30369
3805 3 1.77628 0 26.6441 -6.26941
513 1 5.32883 1.77628 24.8679 -8.39244
809 2 5.32883 3.55255 23.0916 -6.85428
806 1 5.32883 0 26.6441 -8.63736
1806 1 5.32883 3.55255 26.6441 -8.56698
3806 3 5.32883 0 23.0916 -6.27346
807 3 8.88138 0 23.0916 -6.32874
1055 3 7.10511 1.77628 23.0916 -6.28135
1311 3 7.10511 0 24.8679 -6.48615
1561 2 8.88138 1.77628 24.8679 -6.89505
1807 1 8.88138 3.55255 23.0916 -8.28215
1804 2 8.88138 0 26.6441 -7.01823
2055 3 7.10511 1.77628 26.6441 -6.40623
2311 3 7.10511 3.55255 24.8679 -6.30609
2807 3 8.88138 3.55255 26.6441 -6.40224
40 1 14.2102 1.77628 26.6441 -8.59162
297 1 14.2102 3.55255 24.8679 -8.46182
1805 3 12.4339 0 23.0916 -6.13625
2056 1 10.6577 1.77628 23.0916 -8.53106
2310 2 10.6577 0 24.8679 -6.91197
2562 3 12.4339 1.77628 24.8679 -6.19205
2808 2 12.4339 3.55255 23.0916 -6.93999
2805 1 12.4339 0 26.6441 -8.3556
3056 1 14.2102 1.77628 23.0916 -8.34085
3055 1 10.6577 1.77628 26.6441 -8.75458
3311 3 10.6577 3.55255 24.8679 -6.41626
3310 3 14.2102 0 24.8679 -6.20546
3809 3 12.4339 3.55255 26.6441 -6.32906
810 3 15.9865 3.55255 26.6441 -6.08838
2806 1 15.9865 0 23.0916 -8.32668
3561 1 15.9865 1.77628 24.8679 -8.02971
3810 3 15.9865 3.55255 23.0916 -6.07288
3807 2 15.9865 0 26.6441 -6.94132
514 3 1.77628 5.32883 24.8679 -6.44935
41 3 0 5.32883 23.0916 -6.48512
1057 3 3.55255 5.32883 23.0916 -6.31034
1056 3 0 5.32883 26.6441 -6.55175
2057 3 3.55255 5.32883 26.6441 -6.32241
1562 3 5.32883 5.32883 24.8679 -6.40849
2058 2 7.10511 5.32883 23.0916 -6.9879
2563 1 8.88138 5.32883 24.8679 -8.65424
3057 3 7.10511 5.32883 26.6441 -6.29429
43 3 14.2102 5.32883 23.0916 -6.4285
42 2 10.6577 5.32883 26.6441 -6.93209
1058 3 14.2102 5.32883 26.6441 -6.32642
3058 2 10.6577 5.32883 23.0916 -7.00216
3562 3 12.4339 5.32883 24.8679 -6.62285
515 1 15.9865 5.32883 24.8679 -8.48736
811 1 1.77628 7.10511 23.0916 -8.82517
1059 2 0 8.88138 23.0916 -6.90032
1313 3 0 7.10511 24.8679 -6.60949
1563 3 1.77628 8.88138 24.8679 -6.35994
1808 3 1.77628 7.10511 26.6441 -6.57127
2060 1 3.55255 8.88138 23.0916 -8.19503
2059 3 0 8.88138 26.6441 -6.53421
2312 3 3.55255 7.10511 24.8679 -6.35131
3059 2 3.55255 8.88138 26.6441 -6.91681
1809 3 5.32883 7.10511 23.0916 -6.35187
2564 1 5.32883 8.88138 24.8679 -8.51069
2809 1 5.32883 7.10511 26.6441 -8.72906
44 3 7.10511 8.88138 26.6441 -6.29069
2810 2 8.88138 7.10511 23.0916 -6.93179
3060 3 7.10511 8.88138 23.0916 -6.37578
3312 2 7.10511 7.10511 24.8679 -6.91107
3563 1 8.88138 8.88138 24.8679 -8.80605
3811 2 8.88138 7.10511 26.6441 -6.91738
516 3 12.4339 8.88138 24.8679 -6.55776
45 3 10.6577 8.88138 23.0916 -6.36797
298 2 10.6577 7.10511 24.8679 -7.03225
812 2 12.4339 7.10511 26.6441 -7.02504
1061 1 14.2102 8.88138 23.0916 -8.50269
1060 3 10.6577 8.88138 26.6441 -6.64982
1314 3 14.2102 7.10511 24.8679 -6.38573
2061 3 14.2102 8.88138 26.6441 -6.47426
3812 3 12.4339 7.10511 23.0916 -6.4954
813 3 15.9865 7.10511 23.0916 -6.02634
1564 1 15.9865 8.88138 24.8679 -8.64291
1810 3 15.9865 7.10511 26.6441 -6.15259
46 2 3.55255 12.4339 26.6441 -6.94096
300 1 3.55255 14.2102 24.8679 -8.28834
1811 1 1.77628 10.6577 23.0916 -8.41266
2062 3 0 12.4339 23.0916 -6.3174
2313 1 0 10.6577 24.8679 -8.60735
2565 1 1.77628 12.4339 24.8679 -7.98976
2814 2 1.77628 14.2102 23.0916 -6.87992
2811 2 1.77628 10.6577 26.6441 -6.92903
3062 3 3.55255 12.4339 23.0916 -6.22243
3061 1 0 12.4339 26.6441 -8.25625
3314 1 0 14.2102 24.8679 -8.15156
3313 1 3.55255 10.6577 24.8679 -8.39368
3815 1 1.77628 14.2102 26.6441 -8.15321
753 1 5.32883 14.2102 26.6441 -8.14858
2812 2 5.32883 10.6577 23.0916 -6.94408
3564 3 5.32883 12.4339 24.8679 -6.38268
3816 1 5.32883 14.2102 23.0916 -8.73324
3813 3 5.32883 10.6577 26.6441 -6.25067
549 2 8.88138 12.4339 24.8679 -6.96252
47 2 7.10511 12.4339 23.0916 -6.91836
299 3 7.10511 10.6577 24.8679 -6.47368
751 3 8.88138 10.6577 26.6441 -6.55826
754 1 8.88138 14.2102 23.0916 -8.54558
1062 2 7.10511 12.4339 26.6441 -6.93865
1316 3 7.10511 14.2102 24.8679 -6.30609
1814 3 8.88138 14.2102 26.6441 -6.43009
3814 1 8.88138 10.6577 23.0916 -8.60385
752 1 12.4339 10.6577 23.0916 -8.64306
1063 2 10.6577 12.4339 23.0916 -6.87178
1315 3 10.6577 10.6577 24.8679 -6.50623
1565 3 12.4339 12.4339 24.8679 -6.48269
1815 2 12.4339 14.2102 23.0916 -6.95168
1812 2 12.4339 10.6577 26.6441 -7.01468
2064 2 14.2102 12.4339 23.0916 -6.94251
2063 3 10.6577 12.4339 26.6441 -6.67111
2315 1 10.6577 14.2102 24.8679 -8.42151
2314 3 14.2102 10.6577 24.8679 -6.4106
2815 2 12.4339 14.2102 26.6441 -7.10196
3063 3 14.2102 12.4339 26.6441 -6.48533
3315 1 14.2102 14.2102 24.8679 -8.38198
1813 3 15.9865 10.6577 23.0916 -6.18777
2566 1 15.9865 12.4339 24.8679 -8.5071
2816 1 15.9865 14.2102 23.0916 -8.06489
2813 2 15.9865 10.6577 26.6441 -6.88747