ITEM: TIMESTEP
0
ITEM: NUMBER OF ATOMS
4000
ITEM: BOX BOUNDS pp pp pp
0.0000000000000000e+00 3.5525530000000003e+01
0.0000000000000000e+00 3.5525530000000003e+01
0.0000000000000000e+00 3.5525530000000003e+01
ITEM: ATOMS id type x y z c_peratom
267 1 0 0 0 -8.4221
517 1 1.77628 1.77628 0 -8.65055
768 2 1.77628 0 1.77628 -6.92881
1016 1 0 1.77628 1.77628 -8.34138
1270 2 0 3.55255 0 -6.97342
1268 3 3.55255 0 0 -6.42189
1267 3 0 0 3.55255 -6.4202
1517 1 1.77628 1.77628 3.55255 -8.39297
1767 3 1.77628 3.55255 1.77628 -6.31548
2017 2 3.55255 1.77628 1.77628 -6.91694
2269 3 3.55255 3.55255 0 -6.42954
2268 3 0 3.55255 3.55255 -6.22656
2266 3 3.55255 0 3.55255 -6.46207
3268 1 3.55255 3.55255 3.55255 -8.31816
1518 2 5.32883 1.77628 0 -7.01399
1766 3 5.32883 0 1.77628 -6.56926
2518 2 5.32883 1.77628 3.55255 -7.0199
2768 1 5.32883 3.55255 1.77628 -8.36648
270 2 7.10511 3.55255 3.55255 -7.00873
2267 2 7.10511 0 0 -7.00739
2519 3 8.88138 1.77628 0 -6.30822
2767 2 8.88138 0 1.77628 -6.93453
3017 2 7.10511 1.77628 1.77628 -7.05167
3269 1 7.10511 3.55255 0 -8.17972
3266 3 7.10511 0 3.55255 -6.47123
3517 1 8.88138 1.77628 3.55255 -8.44408
3769 1 8.88138 3.55255 1.77628 -8.32801
1 3 10.6577 1.77628 1.77628 -6.28424
271 1 10.6577 3.55255 0 -8.42553
269 2 14.2102 0 0 -6.9835
268 2 10.6577 0 3.55255 -6.88057
518 1 12.4339 1.77628 3.55255 -8.64805
770 3 12.4339 3.55255 1.77628 -6.32028
1017 2 14.2102 1.77628 1.77628 -6.90983
1272 3 14.2102 3.55255 0 -6.53504
1271 1 10.6577 3.55255 3.55255 -8.37488
1269 2 14.2102 0 3.55255 -7.05623
2270 3 14.2102 3.55255 3.55255 -6.14143
3267 1 10.6577 0 0 -8.61034
3518 2 12.4339 1.77628 0 -6.95011
3768 3 12.4339 0 1.77628 -6.46521
519 1 15.9865 1.77628 0 -8.41598
769 2 15.9865 0 1.77628 -7.01898
1519 1 15.9865 1.77628 3.55255 -8.65484
1768 3 15.9865 3.55255 1.77628 -6.17128
1520 3 1.77628 5.32883 0 -6.48395
2018 1 0 5.32883 1.77628 -8.59185
2520 2 1.77628 5.32883 3.55255 -6.88494
3018 3 3.55255 5.32883 1.77628 -6.38241
2521 1 5.32883 5.32883 0 -8.25726
3519 2 5.32883 5.32883 3.55255 -6.98236
2 2 7.10511 5.32883 1.77628 -7.06757
520 3 8.88138 5.32883 3.55255 -6.45388
3520 2 8.88138 5.32883 0 -7.05981
521 2 12.4339 5.32883 0 -6.91492
1018 2 10.6577 5.32883 1.77628 -6.98276
1521 1 12.4339 5.32883 3.55255 -8.22657
2019 1 14.2102 5.32883 1.77628 -8.49463
1522 3 15.9865 5.32883 0 -6.41115
2522 1 15.9865 5.32883 3.55255 -8.41158
3 3 3.55255 8.88138 1.77628 -6.4966
272 2 3.55255 7.10511 3.55255 -6.99093
2271 1 0 7.10511 0 -8.63667
2523 3 1.77628 8.88138 0 -6.33955
2769 3 1.77628 7.10511 1.77628 -6.3652
3019 1 0 8.88138 1.77628 -8.40867
3271 1 3.55255 7.10511 0 -8.72206
3270 1 0 7.10511 3.55255 -8.50595
3521 2 1.77628 8.88138 3.55255 -6.95578
522 1 5.32883 8.88138 3.55255 -8.40837
3522 2 5.32883 8.88138 0 -7.00789
3770 2 5.32883 7.10511 1.77628 -6.97747
273 1 7.10511 7.10511 0 -8.54893
523 3 8.88138 8.88138 0 -6.4965
771 2 8.88138 7.10511 1.77628 -7.04375
1019 2 7.10511 8.88138 1.77628 -7.07998
1273 1 7.10511 7.10511 3.55255 -8.42443
1523 1 8.88138 8.88138 3.55255 -8.11311
1274 3 10.6577 7.10511 0 -6.54253
1524 1 12.4339 8.88138 0 -8.13429
1769 3 12.4339 7.10511 1.77628 -6.29478
2020 2 10.6577 8.88138 1.77628 -6.97552
2273 1 14.2102 7.10511 0 -8.23637
2272 1 10.6577 7.10511 3.55255 -8.326
2524 2 12.4339 8.88138 3.55255 -6.92722
3020 2 14.2102 8.88138 1.77628 -6.95055
3272 2 14.2102 7.10511 3.55255 -6.98094
2525 2 15.9865 8.88138 0 -6.97016
2770 1 15.9865 7.10511 1.77628 -8.02428
3523 1 15.9865 8.88138 3.55255 -8.53225
4 1 0 12.4339 1.77628 -8.37344
277 1 0 14.2102 0 -8.29518
275 2 3.55255 10.6577 0 -6.95697
274 3 0 10.6577 3.55255 -6.32485
524 1 1.77628 12.4339 3.55255 -8.40311
773 1 1.77628 14.2102 1.77628 -8.38517
1020 2 3.55255 12.4339 1.77628 -6.92302
1278 3 3.55255 14.2102 0 -6.269
1277 1 0 14.2102 3.55255 -8.34371
1275 2 3.55255 10.6577 3.55255 -6.97954
2276 3 3.55255 14.2102 3.55255 -6.49174
3273 1 0 10.6577 0 -8.68451
3524 3 1.77628 12.4339 0 -6.14682
3771 1 1.77628 10.6577 1.77628 -8.31983
525 2 5.32883 12.4339 0 -6.91637
772 3 5.32883 10.6577 1.77628 -6.62224
1525 2 5.32883 12.4339 3.55255 -6.96007
1771 1 5.32883 14.2102 1.77628 -8.7552
1276 2 7.10511 10.6577 0 -7.01577
1526 1 8.88138 12.4339 0 -8.26897
1770 2 8.88138 10.6577 1.77628 -6.99998
2021 1 7.10511 12.4339 1.77628 -8.30865
2277 3 7.10511 14.2102 0 -6.25852
2274 2 7.10511 10.6577 3.55255 -7.02528
2526 1 8.88138 12.4339 3.55255 -8.26561
2772 1 8.88138 14.2102 1.77628 -8.14271
3276 2 7.10511 14.2102 3.55255 -6.97505
5 1 14.2102 12.4339 1.77628 -8.19102
279 1 14.2102 14.2102 0 -8.09554
278 3 10.6577 14.2102 3.55255 -6.23338
276 3 14.2102 10.6577 3.55255 -6.27227
1279 1 14.2102 14.2102 3.55255 -8.4216
2275 1 10.6577 10.6577 0 -8.18666
2527 1 12.4339 12.4339 0 -7.99393
2771 1 12.4339 10.6577 1.77628 -8.02259
3021 2 10.6577 12.4339 1.77628 -6.94823
3277 1 10.6577 14.2102 0 -8.01708
3275 1 14.2102 10.6577 0 -8.15905
3274 1 10.6577 10.6577 3.55255 -8.06783
3525 1 12.4339 12.4339 3.55255 -8.541
3773 3 12.4339 14.2102 1.77628 -6.07906
526 2 15.9865 12.4339 3.55255 -6.82154
774 3 15.9865 14.2102 1.77628 -6.09977
3526 1 15.9865 12.4339 0 -8.34936
3772 3 15.9865 10.6577 1.77628 -6.29424
527 1 1.77628 15.9865 0 -8.16445
1021 2 0 15.9865 1.77628 -6.98218
1527 2 1.77628 15.9865 3.55255 -6.87996
2022 3 3.55255 15.9865 1.77628 -6.38527
1528 3 5.32883 15.9865 0 -6.47394
2528 3 5.32883 15.9865 3.55255 -6.61848
2529 1 8.88138 15.9865 0 -8.51625
3022 3 7.10511 15.9865 1.77628 -6.41314
3527 1 8.88138 15.9865 3.55255 -8.67303
6 1 10.6577 15.9865 1.77628 -8.37866
528 2 12.4339 15.9865 3.55255 -6.88315
1022 1 14.2102 15.9865 1.77628 -8.36186
3528 2 12.4339 15.9865 0 -6.96765
529 1 15.9865 15.9865 0 -8.38481
1529 3 15.9865 15.9865 3.55255 -6.26963
776 3 0 3.55255 7.10511 -6.10952
1284 1 1.77628 3.55255 8.88138 -8.36453
1280 2 3.55255 3.55255 7.10511 -6.98528
1772 2 1.77628 0 5.32883 -6.90513
2023 1 0 1.77628 5.32883 -8.39568
2278 3 0 0 7.10511 -6.33221
2530 3 1.77628 1.77628 7.10511 -6.24011
2782 1 1.77628 0 8.88138 -8.58201
2775 1 1.77628 3.55255 5.32883 -8.2946
2774 3 3.55255 0 7.10511 -6.37239
3032 3 0 1.77628 8.88138 -6.32225
3023 1 3.55255 1.77628 5.32883 -8.54571
3533 2 3.55255 1.77628 8.88138 -6.95203
1783 1 5.32883 3.55255 8.88138 -8.26788
2773 3 5.32883 0 5.32883 -6.43091
3024 2 5.32883 1.77628 7.10511 -6.97116
3282 2 5.32883 0 8.88138 -6.9295
3776 2 5.32883 3.55255 5.32883 -7.02775
7 3 7.10511 1.77628 5.32883 -6.49998
17 3 7.10511 1.77628 8.88138 -6.32879
777 2 8.88138 3.55255 5.32883 -7.02096
1774 2 7.10511 3.55255 7.10511 -7.0296
2283 1 8.88138 3.55255 8.88138 -8.7439
3278 3 7.10511 0 7.10511 -6.35093
3529 1 8.88138 1.77628 7.10511 -8.51807
3784 2 8.88138 0 8.88138 -6.82857
3774 1 8.88138 0 5.32883 -8.27779
8 2 12.4339 1.77628 7.10511 -6.9471
252 3 12.4339 0 8.88138 -6.33744
280 2 14.2102 0 7.10511 -6.92834
534 2 10.6577 1.77628 8.88138 -6.97994
775 3 12.4339 0 5.32883 -6.31602
1033 3 14.2102 1.77628 8.88138 -6.57457
1023 3 10.6577 1.77628 5.32883 -6.30844
1775 2 12.4339 3.55255 5.32883 -7.03054
2024 1 14.2102 1.77628 5.32883 -8.38931
2279 2 10.6577 3.55255 7.10511 -7.08206
2785 2 12.4339 3.55255 8.88138 -7.06118
2777 1 14.2102 3.55255 7.10511 -8.41937
3775 1 10.6577 0 7.10511 -8.42348
530 2 15.9865 1.77628 7.10511 -6.97692
785 3 15.9865 0 8.88138 -6.6052
1773 3 15.9865 0 5.32883 -6.56182
2776 2 15.9865 3.55255 5.32883 -6.9539
3285 3 15.9865 3.55255 8.88138 -6.42543
9 2 3.55255 5.32883 5.32883 -6.99164
1024 1 1.77628 5.32883 7.10511 -8.26255
1534 1 0 5.32883 8.88138 -8.13576
2034 1 3.55255 5.32883 8.88138 -7.91461
3025 3 0 5.32883 5.32883 -6.44872
1530 1 5.32883 5.32883 7.10511 -8.23806
1025 3 7.10511 5.32883 5.32883 -6.533
2025 2 8.88138 5.32883 7.10511 -7.09609
2535 2 7.10511 5.32883 8.88138 -7.00744
2026 2 10.6577 5.32883 5.32883 -7.07694
2531 2 12.4339 5.32883 7.10511 -7.09397
3035 3 10.6577 5.32883 8.88138 -6.53357
3026 1 14.2102 5.32883 5.32883 -8.07056
3536 2 14.2102 5.32883 8.88138 -7.01703
3027 1 15.9865 5.32883 7.10511 -8.54708
10 1 0 8.88138 5.32883 -8.64271
20 3 0 8.88138 8.88138 -6.46055
537 2 3.55255 8.88138 8.88138 -6.82633
1026 2 3.55255 8.88138 5.32883 -7.00261
3279 2 0 7.10511 7.10511 -6.77513
3530 3 1.77628 8.88138 7.10511 -6.41764
3787 3 1.77628 7.10511 8.88138 -6.15023
3778 1 3.55255 7.10511 7.10511 -8.39576
3777 3 1.77628 7.10511 5.32883 -6.39013
11 3 5.32883 8.88138 7.10511 -6.24578
255 1 5.32883 7.10511 8.88138 -8.0544
778 1 5.32883 7.10511 5.32883 -8.3083
281 2 7.10511 7.10511 7.10511 -6.96127
531 3 8.88138 8.88138 7.10511 -6.2712
788 1 8.88138 7.10511 8.88138 -8.35396
1036 2 7.10511 8.88138 8.88138 -6.97211
1776 2 8.88138 7.10511 5.32883 -7.01913
2027 2 7.10511 8.88138 5.32883 -7.00333
12 3 14.2102 8.88138 5.32883 -6.37794
779 2 10.6577 7.10511 7.10511 -6.97445
1027 3 12.4339 8.88138 7.10511 -6.28896
1287 2 12.4339 7.10511 8.88138 -6.96332
1281 1 14.2102 7.10511 7.10511 -8.25743
1537 1 10.6577 8.88138 8.88138 -8.45933
2037 1 14.2102 8.88138 8.88138 -8.44615
2778 1 12.4339 7.10511 5.32883 -8.26204
3028 1 10.6577 8.88138 5.32883 -8.31704
1531 2 15.9865 8.88138 7.10511 -6.83818
1786 2 15.9865 7.10511 8.88138 -6.91107
3779 2 15.9865 7.10511 5.32883 -6.91838
282 2 0 14.2102 7.10511 -7.03085
791 2 1.77628 14.2102 8.88138 -6.96971
782 3 3.55255 14.2102 7.10511 -6.56601
780 3 1.77628 10.6577 5.32883 -6.50978
1028 2 0 12.4339 5.32883 -6.96113
1779 2 1.77628 14.2102 5.32883 -6.93032
1777 2 0 10.6577 7.10511 -6.97901
2029 2 3.55255 12.4339 5.32883 -6.99348
2028 3 1.77628 12.4339 7.10511 -6.64298
2286 3 1.77628 10.6577 8.88138 -6.48382
2280 1 3.55255 10.6577 7.10511 -8.8054
2538 3 0 12.4339 8.88138 -6.54192
3038 3 3.55255 12.4339 8.88138 -6.35103
1290 1 5.32883 14.2102 8.88138 -8.76004
1778 1 5.32883 10.6577 5.32883 -8.15072
2532 2 5.32883 12.4339 7.10511 -6.91418
2788 3 5.32883 10.6577 8.88138 -6.35726
2781 3 5.32883 14.2102 5.32883 -6.62468
1282 2 7.10511 14.2102 7.10511 -6.94736
1789 2 8.88138 14.2102 8.88138 -6.98007
2780 1 7.10511 10.6577 7.10511 -8.52639
2779 1 8.88138 10.6577 5.32883 -8.13859
3030 1 8.88138 12.4339 7.10511 -8.48744
3029 1 7.10511 12.4339 5.32883 -8.26653
3288 3 8.88138 10.6577 8.88138 -6.20309
3539 3 7.10511 12.4339 8.88138 -6.44585
3782 3 8.88138 14.2102 5.32883 -6.33165
13 3 10.6577 12.4339 5.32883 -6.14966
23 1 10.6577 12.4339 8.88138 -8.37893
540 2 14.2102 12.4339 8.88138 -6.9401
783 3 12.4339 14.2102 5.32883 -6.29637
1029 3 14.2102 12.4339 5.32883 -6.37372
1780 3 10.6577 14.2102 7.10511 -6.30744
2289 1 12.4339 14.2102 8.88138 -8.26147
2281 3 14.2102 14.2102 7.10511 -6.41504
3280 3 10.6577 10.6577 7.10511 -6.1459
3531 1 12.4339 12.4339 7.10511 -8.76787
3790 3 12.4339 10.6577 8.88138 -6.12258
3781 3 14.2102 10.6577 7.10511 -6.39395
3780 2 12.4339 10.6577 5.32883 -6.82562
14 2 15.9865 12.4339 7.10511 -6.92141
258 3 15.9865 10.6577 8.88138 -6.42837
781 1 15.9865 10.6577 5.32883 -8.55059
1781 2 15.9865 14.2102 5.32883 -6.90451
2791 1 15.9865 14.2102 8.88138 -8.53995
532 1 1.77628 15.9865 7.10511 -8.632
1039 2 0 15.9865 8.88138 -6.98768
1540 3 3.55255 15.9865 8.88138 -6.42255
2030 3 0 15.9865 5.32883 -6.27079
3031 3 3.55255 15.9865 5.32883 -6.49746
1030 3 5.32883 15.9865 7.10511 -6.54053
15 3 7.10511 15.9865 5.32883 -6.62227
1532 2 8.88138 15.9865 7.10511 -6.92911
2040 3 7.10511 15.9865 8.88138 -6.6421
1031 3 10.6577 15.9865 5.32883 -6.39882
2032 2 14.2102 15.9865 5.32883 -6.91745
2031 1 12.4339 15.9865 7.10511 -8.5308
2541 2 10.6577 15.9865 8.88138 -6.96952
3041 2 14.2102 15.9865 8.88138 -6.95125
2533 3 15.9865 15.9865 7.10511 -6.30984
251 1 3.55255 0 10.6577 -8.0923
253 3 0 3.55255 10.6577 -6.09018
16 1 0 1.77628 12.4339 -8.42404
786 1 1.77628 3.55255 12.4339 -8.09077
1032 1 3.55255 1.77628 12.4339 -7.95658
1285 1 3.55255 3.55255 10.6577 -7.88129
3281 3 0 0 10.6577 -6.31106
3532 2 1.77628 1.77628 10.6577 -6.95239
3783 1 1.77628 0 12.4339 -8.08097
533 1 5.32883 1.77628 10.6577 -8.29058
784 2 5.32883 0 12.4339 -6.98352
1784 3 5.32883 3.55255 12.4339 -6.1087
1283 1 7.10511 0 10.6577 -8.46298
1533 3 8.88138 1.77628 10.6577 -6.54851
1782 3 8.88138 0 12.4339 -6.26161
2033 3 7.10511 1.77628 12.4339 -6.30883
2284 3 7.10511 3.55255 10.6577 -6.36133
2784 2 8.88138 3.55255 12.4339 -6.97823
254 2 14.2102 3.55255 10.6577 -6.92882
18 3 14.2102 1.77628 12.4339 -6.27299
2282 3 10.6577 0 10.6577 -6.3643
2534 1 12.4339 1.77628 10.6577 -8.86612
2783 2 12.4339 0 12.4339 -6.87751
3033 2 10.6577 1.77628 12.4339 -6.90384
3284 3 10.6577 3.55255 10.6577 -6.52795
3283 3 14.2102 0 10.6577 -6.40342
3786 3 12.4339 3.55255 12.4339 -6.34068
787 1 15.9865 3.55255 12.4339 -8.25766
3534 2 15.9865 1.77628 10.6577 -6.92348
3785 3 15.9865 0 12.4339 -6.31852
535 1 1.77628 5.32883 10.6577 -7.9878
1034 3 0 5.32883 12.4339 -6.09235
2035 1 3.55255 5.32883 12.4339 -7.99858
1535 1 5.32883 5.32883 10.6577 -8.09776
2536 2 8.88138 5.32883 10.6577 -6.96144
3034 2 7.10511 5.32883 12.4339 -6.94487
19 1 10.6577 5.32883 12.4339 -8.28142
1035 2 14.2102 5.32883 12.4339 -6.9984
3535 3 12.4339 5.32883 10.6577 -6.56322
536 1 15.9865 5.32883 10.6577 -8.61994
1286 1 0 7.10511 10.6577 -8.31379
1536 3 1.77628 8.88138 10.6577 -6.23324
1785 1 1.77628 7.10511 12.4339 -8.0183
2036 1 0 8.88138 12.4339 -8.20791
2285 1 3.55255 7.10511 10.6577 -8.07305
3036 2 3.55255 8.88138 12.4339 -6.93749
2537 1 5.32883 8.88138 10.6577 -8.09882
2786 1 5.32883 7.10511 12.4339 -8.26713
21 2 7.10511 8.88138 12.4339 -7.03
3286 1 7.10511 7.10511 10.6577 -7.97656
3537 1 8.88138 8.88138 10.6577 -8.19904
3788 1 8.88138 7.10511 12.4339 -8.07564
256 1 10.6577 7.10511 10.6577 -8.16285
538 1 12.4339 8.88138 10.6577 -8.23993
789 2 12.4339 7.10511 12.4339 -6.97262
1037 2 10.6577 8.88138 12.4339 -6.99174
1288 3 14.2102 7.10511 10.6577 -6.43977
2038 2 14.2102 8.88138 12.4339 -6.96391
1538 1 15.9865 8.88138 10.6577 -8.51056
1787 2 15.9865 7.10511 12.4339 -6.93173
259 1 3.55255 14.2102 10.6577 -8.58796
22 2 3.55255 12.4339 12.4339 -6.99612
2287 3 0 10.6577 10.6577 -6.46592
2539 3 1.77628 12.4339 10.6577 -6.42881
2787 3 1.77628 10.6577 12.4339 -6.35989
3037 3 0 12.4339 12.4339 -6.36084
3289 1 0 14.2102 10.6577 -8.47524
3287 1 3.55255 10.6577 10.6577 -8.73174
3791 2 1.77628 14.2102 12.4339 -7.01934
792 1 5.32883 14.2102 12.4339 -8.51367
3538 3 5.32883 12.4339 10.6577 -6.37423
3789 1 5.32883 10.6577 12.4339 -8.29512
257 2 7.10511 10.6577 10.6577 -6.92805
539 3 8.88138 12.4339 10.6577 -6.45146
790 3 8.88138 10.6577 12.4339 -6.31228
1038 2 7.10511 12.4339 12.4339 -6.97957
1291 2 7.10511 14.2102 10.6577 -6.96136
1790 1 8.88138 14.2102 12.4339 -8.50013
1289 1 10.6577 10.6577 10.6577 -8.31857
1539 1 12.4339 12.4339 10.6577 -8.18038
1788 3 12.4339 10.6577 12.4339 -6.32136
2039 2 10.6577 12.4339 12.4339 -6.87374
2290 3 10.6577 14.2102 10.6577 -6.24431
2288 1 14.2102 10.6577 10.6577 -8.3162
2790 1 12.4339 14.2102 12.4339 -8.31712
3039 2 14.2102 12.4339 12.4339 -7.04303
3290 2 14.2102 14.2102 10.6577 -7.0023
2540 2 15.9865 12.4339 10.6577 -6.98909
2789 2 15.9865 10.6577 12.4339 -7.05136
3792 1 15.9865 14.2102 12.4339 -8.60183
24 2 0 15.9865 12.4339 -7.07748
1040 2 3.55255 15.9865 12.4339 -7.07934
3540 2 1.77628 15.9865 10.6577 -7.06731
541 2 5.32883 15.9865 10.6577 -7.00593
1541 2 8.88138 15.9865 10.6577 -7.03689
2041 3 7.10511 15.9865 12.4339 -6.56762
25 2 14.2102 15.9865 12.4339 -6.98138
2542 1 12.4339 15.9865 10.6577 -8.37312
3040 1 10.6577 15.9865 12.4339 -8.33809
3541 1 15.9865 15.9865 10.6577 -8.60575
260 1 0 0 14.2102 -8.353
542 3 1.77628 1.77628 14.2102 -6.16409
793 2 1.77628 0 15.9865 -6.96503
1041 1 0 1.77628 15.9865 -8.64064
1293 2 0 3.55255 14.2102 -6.91708
1292 1 3.55255 0 14.2102 -8.24382
1792 2 1.77628 3.55255 15.9865 -7.00099
2042 2 3.55255 1.77628 15.9865 -6.99044
2292 1 3.55255 3.55255 14.2102 -8.12733
1542 1 5.32883 1.77628 14.2102 -8.11118
1791 1 5.32883 0 15.9865 -8.35418
2793 1 5.32883 3.55255 15.9865 -8.37746
2291 2 7.10511 0 14.2102 -6.86482
2543 2 8.88138 1.77628 14.2102 -6.88699
2792 3 8.88138 0 15.9865 -6.18929
3042 2 7.10511 1.77628 15.9865 -6.93033
3292 1 7.10511 3.55255 14.2102 -8.27564
3794 1 8.88138 3.55255 15.9865 -8.37188
261 1 14.2102 0 14.2102 -8.31346
262 1 10.6577 3.55255 14.2102 -8.46873
26 3 10.6577 1.77628 15.9865 -6.18434
795 3 12.4339 3.55255 15.9865 -6.46078
1042 2 14.2102 1.77628 15.9865 -6.9464
1294 1 14.2102 3.55255 14.2102 -8.52319
3291 1 10.6577 0 14.2102 -8.40247
3542 3 12.4339 1.77628 14.2102 -6.23326
3793 1 12.4339 0 15.9865 -8.30315
543 1 15.9865 1.77628 14.2102 -8.31972
794 1 15.9865 0 15.9865 -8.24186
1793 3 15.9865 3.55255 15.9865 -6.53615
1543 1 1.77628 5.32883 14.2102 -8.23107
2043 2 0 5.32883 15.9865 -6.97011
3043 2 3.55255 5.32883 15.9865 -6.96871
2544 2 5.32883 5.32883 14.2102 -6.91629
27 2 7.10511 5.32883 15.9865 -6.92867
3543 1 8.88138 5.32883 14.2102 -8.26769
544 1 12.4339 5.32883 14.2102 -8.22189
1043 3 10.6577 5.32883 15.9865 -6.26565
2044 2 14.2102 5.32883 15.9865 -7.03376
1544 2 15.9865 5.32883 14.2102 -6.91623
28 1 3.55255 8.88138 15.9865 -8.35463
2293 1 0 7.10511 14.2102 -8.1417
2545 1 1.77628 8.88138 14.2102 -8.21905
2794 2 1.77628 7.10511 15.9865 -6.94591
3044 2 0 8.88138 15.9865 -7.06424
3293 3 3.55255 7.10511 14.2102 -6.18391
3544 2 5.32883 8.88138 14.2102 -6.90307
3795 1 5.32883 7.10511 15.9865 -8.61155
263 3 7.10511 7.10511 14.2102 -6.30055
545 1 8.88138 8.88138 14.2102 -8.44185
796 2 8.88138 7.10511 15.9865 -6.86951
1044 3 7.10511 8.88138 15.9865 -6.27348
1295 2 10.6577 7.10511 14.2102 -6.95405
1545 2 12.4339 8.88138 14.2102 -6.99062
1794 1 12.4339 7.10511 15.9865 -8.39504
2045 2 10.6577 8.88138 15.9865 -7.01876
2294 1 14.2102 7.10511 14.2102 -8.2709
3045 3 14.2102 8.88138 15.9865 -6.4622
2546 1 15.9865 8.88138 14.2102 -8.62709
2795 1 15.9865 7.10511 15.9865 -8.47965
265 2 0 14.2102 14.2102 -6.9923
264 2 3.55255 10.6577 14.2102 -6.91815
29 2 0 12.4339 15.9865 -7.01941
798 3 1.77628 14.2102 15.9865 -6.39941
1045 3 3.55255 12.4339 15.9865 -6.36565
1297 2 3.55255 14.2102 14.2102 -6.99559
3294 1 0 10.6577 14.2102 -8.4297
3545 3 1.77628 12.4339 14.2102 -6.61391
3796 2 1.77628 10.6577 15.9865 -7.01286
546 1 5.32883 12.4339 14.2102 -8.61459
797 3 5.32883 10.6577 15.9865 -6.37988
1796 3 5.32883 14.2102 15.9865 -6.38153
1296 2 7.10511 10.6577 14.2102 -6.90013
1546 1 8.88138 12.4339 14.2102 -8.33655
1795 1 8.88138 10.6577 15.9865 -8.32163
2046 3 7.10511 12.4339 15.9865 -6.28928
2296 3 7.10511 14.2102 14.2102 -6.31562
2797 3 8.88138 14.2102 15.9865 -6.27321
266 2 14.2102 14.2102 14.2102 -6.98019
30 1 14.2102 12.4339 15.9865 -8.59381
2295 1 10.6577 10.6577 14.2102 -8.41995
2547 3 12.4339 12.4339 14.2102 -6.36051
2796 2 12.4339 10.6577 15.9865 -7.01714
3046 1 10.6577 12.4339 15.9865 -8.31135
3296 1 10.6577 14.2102 14.2102 -8.27485
3295 3 14.2102 10.6577 14.2102 -6.58524
3798 2 12.4339 14.2102 15.9865 -6.90974
799 3 15.9865 14.2102 15.9865 -6.34824
3546 2 15.9865 12.4339 14.2102 -6.99912
3797 2 15.9865 10.6577 15.9865 -6.94524
547 3 1.77628 15.9865 14.2102 -6.56948
1046 1 0 15.9865 15.9865 -8.29878
2047 3 3.55255 15.9865 15.9865 -6.34877
1547 2 5.32883 15.9865 14.2102 -6.90649
2548 2 8.88138 15.9865 14.2102 -6.82998
3047 1 7.10511 15.9865 15.9865 -8.4817
31 3 10.6577 15.9865 15.9865 -6.33573
1047 1 14.2102 15.9865 15.9865 -8.36107
3547 3 12.4339 15.9865 14.2102 -6.23731
548 2 15.9865 15.9865 14.2102 -6.95147
285 3 3.55255 3.55255 21.3153 -6.53629
1298 2 0 0 17.7628 -6.95452
1548 2 1.77628 1.77628 17.7628 -7.00663
1797 1 1.77628 0 19.539 -8.32043
2048 3 0 1.77628 19.539 -6.41535
2300 2 0 3.55255 17.7628 -6.98626
2298 1 3.55255 0 17.7628 -8.45432
2297 3 0 0 21.3153 -6.29121
2549 2 1.77628 1.77628 21.3153 -6.86977
2799 1 1.77628 3.55255 19.539 -8.72318
3048 2 3.55255 1.77628 19.539 -6.94826
3300 1 3.55255 3.55255 17.7628 -8.39626
3299 3 0 3.55255 21.3153 -6.36301
3297 1 3.55255 0 21.3153 -8.32391
2550 3 5.32883 1.77628 17.7628 -6.25363
2798 3 5.32883 0 19.539 -6.27218
3548 1 5.32883 1.77628 21.3153 -8.38544
3800 2 5.32883 3.55255 19.539 -6.89059
501 3 8.88138 1.77628 21.3153 -6.32711
32 1 7.10511 1.77628 19.539 -8.45124
286 3 7.10511 3.55255 17.7628 -6.42041
283 2 7.10511 0 21.3153 -6.93426
801 3 8.88138 3.55255 19.539 -6.46364
1301 1 7.10511 3.55255 21.3153 -8.38785
3298 1 7.10511 0 17.7628 -8.56238
3549 1 8.88138 1.77628 17.7628 -8.34073
3799 2 8.88138 0 19.539 -6.92959
502 3 12.4339 1.77628 17.7628 -6.54724
284 1 10.6577 0 17.7628 -8.32675
800 2 12.4339 0 19.539 -6.98774
1048 3 10.6577 1.77628 19.539 -6.46837
1302 2 10.6577 3.55255 17.7628 -6.91117
1300 3 14.2102 0 17.7628 -6.41502
1299 1 10.6577 0 21.3153 -8.66067
1549 2 12.4339 1.77628 21.3153 -7.03224
1799 3 12.4339 3.55255 19.539 -6.67606
2049 2 14.2102 1.77628 19.539 -7.18759
2302 3 14.2102 3.55255 17.7628 -6.74288
2301 3 10.6577 3.55255 21.3153 -6.51882
2299 2 14.2102 0 21.3153 -7.12864
3301 3 14.2102 3.55255 21.3153 -6.6569
1550 2 15.9865 1.77628 17.7628 -7.07449
1798 2 15.9865 0 19.539 -7.09681
2551 2 15.9865 1.77628 21.3153 -7.19496
2800 2 15.9865 3.55255 19.539 -7.10243
33 3 3.55255 5.32883 19.539 -6.48077
2552 1 1.77628 5.32883 17.7628 -8.56926
3049 3 0 5.32883 19.539 -6.32977
3550 3 1.77628 5.32883 21.3153 -6.50999
503 3 5.32883 5.32883 21.3153 -6.61743
3551 3 5.32883 5.32883 17.7628 -6.38839
504 3 8.88138 5.32883 17.7628 -6.46356
1049 2 7.10511 5.32883 19.539 -6.88752
1551 2 8.88138 5.32883 21.3153 -6.95883
1552 2 12.4339 5.32883 17.7628 -7.02024
2050 2 10.6577 5.32883 19.539 -6.98767
2553 1 12.4339 5.32883 21.3153 -8.55622
3050 3 14.2102 5.32883 19.539 -6.69593
2554 3 15.9865 5.32883 17.7628 -6.59062
3552 3 15.9865 5.32883 21.3153 -6.52421
505 3 1.77628 8.88138 21.3153 -6.65477
34 2 0 8.88138 19.539 -7.00649
288 3 3.55255 7.10511 17.7628 -6.43061
287 3 0 7.10511 21.3153 -6.51189
1050 2 3.55255 8.88138 19.539 -6.92111
1303 3 3.55255 7.10511 21.3153 -6.62547
3302 3 0 7.10511 17.7628 -6.43734
3553 1 1.77628 8.88138 17.7628 -8.38226
3801 2 1.77628 7.10511 19.539 -6.91371
506 3 5.32883 8.88138 17.7628 -6.37786
802 3 5.32883 7.10511 19.539 -6.50193
1553 1 5.32883 8.88138 21.3153 -8.58629
1304 1 7.10511 7.10511 17.7628 -8.57931
1554 1 8.88138 8.88138 17.7628 -8.21527
1800 3 8.88138 7.10511 19.539 -6.29737
2051 3 7.10511 8.88138 19.539 -6.19379
2303 3 7.10511 7.10511 21.3153 -6.48028
2555 1 8.88138 8.88138 21.3153 -8.32508
35 1 14.2102 8.88138 19.539 -8.4367
289 2 14.2102 7.10511 21.3153 -6.92393
2304 1 10.6577 7.10511 17.7628 -8.45926
2556 2 12.4339 8.88138 17.7628 -7.04218
2801 2 12.4339 7.10511 19.539 -7.0463
3051 1 10.6577 8.88138 19.539 -8.26574
3304 2 14.2102 7.10511 17.7628 -7.00085
3303 1 10.6577 7.10511 21.3153 -8.15948
3554 2 12.4339 8.88138 21.3153 -6.93544
507 3 15.9865 8.88138 21.3153 -6.39136
3555 1 15.9865 8.88138 17.7628 -8.48702
3802 2 15.9865 7.10511 19.539 -6.94916
508 3 1.77628 12.4339 17.7628 -6.25305
290 2 0 10.6577 17.7628 -7.03476
803 1 1.77628 10.6577 19.539 -8.42912
1051 1 0 12.4339 19.539 -8.26955
1308 1 0 14.2102 17.7628 -8.3504
1306 1 3.55255 10.6577 17.7628 -8.33655
1305 3 0 10.6577 21.3153 -6.55231
1555 3 1.77628 12.4339 21.3153 -6.31431
1802 1 1.77628 14.2102 19.539 -8.23257
2052 1 3.55255 12.4339 19.539 -8.33478
2308 1 3.55255 14.2102 17.7628 -8.47397
2307 2 0 14.2102 21.3153 -6.91249
2305 2 3.55255 10.6577 21.3153 -6.96825
3307 3 3.55255 14.2102 21.3153 -6.37048
1556 1 5.32883 12.4339 17.7628 -8.54769
1801 2 5.32883 10.6577 19.539 -6.90008
2557 2 5.32883 12.4339 21.3153 -7.02249
2803 3 5.32883 14.2102 19.539 -6.42685
293 2 7.10511 14.2102 21.3153 -7.01649
2306 3 7.10511 10.6577 17.7628 -6.29677
2558 3 8.88138 12.4339 17.7628 -6.30993
2802 1 8.88138 10.6577 19.539 -8.23251
3052 2 7.10511 12.4339 19.539 -6.94624
3308 2 7.10511 14.2102 17.7628 -6.88379
3305 1 7.10511 10.6577 21.3153 -8.1726
3556 2 8.88138 12.4339 21.3153 -6.96196
3804 1 8.88138 14.2102 19.539 -8.32614
509 2 12.4339 12.4339 21.3153 -6.93722
36 1 10.6577 12.4339 19.539 -8.47767
294 3 10.6577 14.2102 17.7628 -6.25511
292 2 14.2102 10.6577 17.7628 -6.9559
291 3 10.6577 10.6577 21.3153 -6.2072
805 3 12.4339 14.2102 19.539 -6.33393
1052 1 14.2102 12.4339 19.539 -8.29899
1310 1 14.2102 14.2102 17.7628 -8.3356
1309 2 10.6577 14.2102 21.3153 -6.91672
1307 1 14.2102 10.6577 21.3153 -8.27252
2309 1 14.2102 14.2102 21.3153 -8.53045
3306 2 10.6577 10.6577 17.7628 -6.96233
3557 1 12.4339 12.4339 17.7628 -8.2611
3803 3 12.4339 10.6577 19.539 -6.20884
510 3 15.9865 12.4339 17.7628 -6.26753
804 2 15.9865 10.6577 19.539 -6.96935
1557 1 15.9865 12.4339 21.3153 -8.3124
1803 3 15.9865 14.2102 19.539 -6.22435
1558 1 1.77628 15.9865 17.7628 -8.06271
2053 3 0 15.9865 19.539 -6.34818
2559 3 1.77628 15.9865 21.3153 -6.3631
3053 1 3.55255 15.9865 19.539 -8.4614
2560 3 5.32883 15.9865 17.7628 -6.34394
3558 2 5.32883 15.9865 21.3153 -7.01584
511 1 8.88138 15.9865 21.3153 -8.37364
37 2 7.10511 15.9865 19.539 -7.04417
3559 1 8.88138 15.9865 17.7628 -8.37296
512 2 12.4339 15.9865 17.7628 -6.85216
1053 3 10.6577 15.9865 19.539 -6.28158
1559 3 12.4339 15.9865 21.3153 -6.39544
2054 3 14.2102 15.9865 19.539 -6.3397
1560 1 15.9865 15.9865 17.7628 -8.55788
2561 3 15.9865 15.9865 21.3153 -6.44635
39 3 3.55255 1.77628 23.0916 -6.42669
38 2 0 1.77628 26.6441 -6.85324
296 1 0 3.55255 24.8679 -8.40947
295 2 3.55255 0 24.8679 -6.97422
808 1 1.77628 3.55255 26.6441 -8.11468
1054 1 3.55255 1.77628 26.6441 -8.61916
1312 1 3.55255 3.55255 24.8679 -8.51568
2804 3 1.77628 0 23.0916 -6.47507
3054 1 0 1.77628 23.0916 -8.64043
3309 2 0 0 24.8679 -6.94097
3560 3 1.77628 1.77628 24.8679 -6.31807
3808 3 1.77628 3.55255 23.0916 -6.30665
3805 3 1.77628 0 26.6441 -6.4135
513 3 5.32883 1.77628 24.8679 -6.36496
809 2 5.32883 3.55255 23.0916 -6.91241
806 2 5.32883 0 26.6441 -6.92536
1806 3 5.32883 3.55255 26.6441 -6.25772
3806 2 5.32883 0 23.0916 -6.98854
807 3 8.88138 0 23.0916 -6.43778
1055 2 7.10511 1.77628 23.0916 -6.94842
1311 1 7.10511 0 24.8679 -8.47096
1561 1 8.88138 1.77628 24.8679 -8.2602
1807 1 8.88138 3.55255 23.0916 -8.27652
1804 2 8.88138 0 26.6441 -6.96098
2055 3 7.10511 1.77628 26.6441 -6.39243
2311 1 7.10511 3.55255 24.8679 -8.44852
2807 2 8.88138 3.55255 26.6441 -6.89987
40 1 14.2102 1.77628 26.6441 -8.15824
297 2 14.2102 3.55255 24.8679 -7.00567
1805 3 12.4339 0 23.0916 -6.60392
2056 1 10.6577 1.77628 23.0916 -8.36383
2310 2 10.6577 0 24.8679 -7.03008
2562 1 12.4339 1.77628 24.8679 -8.29488
2808 2 12.4339 3.55255 23.0916 -6.98012
2805 1 12.4339 0 26.6441 -8.52937
3056 2 14.2102 1.77628 23.0916 -7.0843
3055 2 10.6577 1.77628 26.6441 -6.96591
3311 2 10.6577 3.55255 24.8679 -7.03029
3310 2 14.2102 0 24.8679 -7.04945
3809 1 12.4339 3.55255 26.6441 -7.99077
810 3 15.9865 3.55255 26.6441 -6.53131
2806 1 15.9865 0 23.0916 -8.68235
3561 2 15.9865 1.77628 24.8679 -7.08646
3810 2 15.9865 3.55255 23.0916 -7.0965
3807 1 15.9865 0 26.6441 -8.48263
514 1 1.77628 5.32883 24.8679 -8.09097
41 1 0 5.32883 23.0916 -8.48443
1057 3 3.55255 5.32883 23.0916 -6.45245
1056 1 0 5.32883 26.6441 -8.34158
2057 1 3.55255 5.32883 26.6441 -8.44664
1562 2 5.32883 5.32883 24.8679 -6.89006
2058 2 7.10511 5.32883 23.0916 -7.03456
2563 2 8.88138 5.32883 24.8679 -7.03401
3057 1 7.10511 5.32883 26.6441 -8.62153
43 1 14.2102 5.32883 23.0916 -8.41019
42 1 10.6577 5.32883 26.6441 -8.40514
1058 3 14.2102 5.32883 26.6441 -6.24123
3058 2 10.6577 5.32883 23.0916 -6.99105
3562 1 12.4339 5.32883 24.8679 -8.29676
515 2 15.9865 5.32883 24.8679 -6.94527
811 2 1.77628 7.10511 23.0916 -6.96802
1059 3 0 8.88138 23.0916 -6.69952
1313 2 0 7.10511 24.8679 -7.01461
1563 2 1.77628 8.88138 24.8679 -7.01163
1808 1 1.77628 7.10511 26.6441 -8.34696
2060 2 3.55255 8.88138 23.0916 -6.98315
2059 2 0 8.88138 26.6441 -7.01387
2312 1 3.55255 7.10511 24.8679 -8.29953
3059 1 3.55255 8.88138 26.6441 -8.60047
1809 3 5.32883 7.10511 23.0916 -6.4877
2564 1 5.32883 8.88138 24.8679 -8.55551
2809 3 5.32883 7.10511 26.6441 -6.24549
44 3 7.10511 8.88138 26.6441 -6.5393
2810 1 8.88138 7.10511 23.0916 -8.32788
3060 2 7.10511 8.88138 23.0916 -6.92942
3312 2 7.10511 7.10511 24.8679 -6.96531
3563 2 8.88138 8.88138 24.8679 -6.98328
3811 3 8.88138 7.10511 26.6441 -6.48192
516 1 12.4339 8.88138 24.8679 -8.19156
45 1 10.6577 8.88138 23.0916 -8.31205
298 2 10.6577 7.10511 24.8679 -6.98995
812 3 12.4339 7.10511 26.6441 -6.15948
1061 1 14.2102 8.88138 23.0916 -8.3695
1060 2 10.6577 8.88138 26.6441 -6.8954
1314 1 14.2102 7.10511 24.8679 -8.36661
2061 1 14.2102 8.88138 26.6441 -8.2585
3812 2 12.4339 7.10511 23.0916 -7.03143
813 3 15.9865 7.10511 23.0916 -6.30763
1564 2 15.9865 8.88138 24.8679 -6.90424
1810 3 15.9865 7.10511 26.6441 -6.17904
46 2 3.55255 12.4339 26.6441 -6.95117
300 1 3.55255 14.2102 24.8679 -8.4263
1811 2 1.77628 10.6577 23.0916 -7.03743
2062 2 0 12.4339 23.0916 -6.98534
2313 1 0 10.6577 24.8679 -8.45433
2565 2 1.77628 12.4339 24.8679 -7.01034
2814 3 1.77628 14.2102 23.0916 -6.42172
2811 2 1.77628 10.6577 26.6441 -6.99571
3062 1 3.55255 12.4339 23.0916 -8.59183
3061 2 0 12.4339 26.6441 -7.00516
3314 1 0 14.2102 24.8679 -8.40093
3313 3 3.55255 10.6577 24.8679 -6.47725
3815 2 1.77628 14.2102 26.6441 -6.99639
753 3 5.32883 14.2102 26.6441 -6.39751
2812 1 5.32883 10.6577 23.0916 -8.11831
3564 2 5.32883 12.4339 24.8679 -6.96373
3816 2 5.32883 14.2102 23.0916 -6.94556
3813 3 5.32883 10.6577 26.6441 -6.42984
549 1 8.88138 12.4339 24.8679 -8.66322
47 1 7.10511 12.4339 23.0916 -8.4731
299 2 7.10511 10.6577 24.8679 -6.96347
751 3 8.88138 10.6577 26.6441 -6.52917
754 3 8.88138 14.2102 23.0916 -6.43278
1062 2 7.10511 12.4339 26.6441 -6.83491
1316 3 7.10511 14.2102 24.8679 -6.46193
1814 3 8.88138 14.2102 26.6441 -6.37658
3814 3 8.88138 10.6577 23.0916 -6.33138
752 1 12.4339 10.6577 23.0916 -8.30681
1063 2 10.6577 12.4339 23.0916 -6.94682
1315 3 10.6577 10.6577 24.8679 -6.28244
1565 2 12.4339 12.4339 24.8679 -6.95532
1815 1 12.4339 14.2102 23.0916 -8.61152
1812 1 12.4339 10.6577 26.6441 -8.30298
2064 3 14.2102 12.4339 23.0916 -6.33254
2063 1 10.6577 12.4339 26.6441 -8.59564
2315 2 10.6577 14.2102 24.8679 -7.00767
2314 2 14.2102 10.6577 24.8679 -6.99094
2815 2 12.4339 14.2102 26.6441 -7.03029
3063 3 14.2102 12.4339 26.6441 -6.5368
3315 2 14.2102 14.2102 24.8679 -7.01517
1813 3 15.9865 10.6577 23.0916 -6.35467
2566 2 15.9865 12.4339 24.8679 -6.91865
2816 1 15.9865 14.2102 23.0916 -8.36266
2813 2 15.9865 10.6577 26.6441 -6.94204