ITEM: TIMESTEP
0
ITEM: NUMBER OF ATOMS
4000
ITEM: BOX BOUNDS pp pp pp
0.0000000000000000e+00 3.5734059999999999e+01
0.0000000000000000e+00 3.5734059999999999e+01
0.0000000000000000e+00 3.5734059999999999e+01
ITEM: ATOMS id type x y z c_peratom
267 1 0 0 0 -8.19474
516 3 1.7867 1.7867 0 -6.5942
767 2 1.7867 0 1.7867 -7.00094
1016 2 0 1.7867 1.7867 -6.9936
1267 2 0 0 3.57341 -6.94277
1517 1 1.7867 1.7867 3.57341 -8.53819
1268 2 3.57341 0 0 -7.00432
1518 3 5.36011 1.7867 0 -6.45774
1767 1 5.36011 0 1.7867 -8.44081
2017 2 3.57341 1.7867 1.7867 -6.93338
2266 3 3.57341 0 3.57341 -6.40555
2267 3 7.14681 0 0 -6.29543
2517 1 5.36011 1.7867 3.57341 -8.42784
3017 1 7.14681 1.7867 1.7867 -8.41404
3267 1 7.14681 0 3.57341 -8.21588
1 2 10.7202 1.7867 1.7867 -7.00003
268 2 10.7202 0 3.57341 -6.9324
2518 2 8.93351 1.7867 0 -6.95497
2766 1 8.93351 0 1.7867 -8.05988
3266 1 10.7202 0 0 -8.25036
3517 1 8.93351 1.7867 3.57341 -8.29849
269 3 14.2936 0 0 -6.63593
517 2 12.5069 1.7867 3.57341 -7.06842
1017 3 14.2936 1.7867 1.7867 -6.71839
1269 2 14.2936 0 3.57341 -7.11713
3518 2 12.5069 1.7867 0 -6.99683
3767 3 12.5069 0 1.7867 -6.62396
376 3 17.867 0 0 -6.50688
518 3 16.0803 1.7867 0 -6.48625
768 2 16.0803 0 1.7867 -7.05068
1126 3 17.867 1.7867 1.7867 -6.46046
1377 3 17.867 0 3.57341 -6.56238
1519 3 16.0803 1.7867 3.57341 -6.59625
1270 3 0 3.57341 0 -6.59651
1520 2 1.7867 5.36011 0 -7.03878
1768 2 1.7867 3.57341 1.7867 -7.01649
2018 2 0 5.36011 1.7867 -7.0025
2268 1 0 3.57341 3.57341 -8.37821
2271 2 0 7.14681 0 -6.97697
2519 2 1.7867 5.36011 3.57341 -6.98101
2768 1 1.7867 7.14681 1.7867 -8.32998
3271 2 0 7.14681 3.57341 -6.96761
2 2 7.14681 5.36011 1.7867 -6.92755
271 2 7.14681 3.57341 3.57341 -6.97189
274 2 3.57341 7.14681 3.57341 -6.93477
275 1 7.14681 7.14681 0 -8.50966
1276 2 7.14681 7.14681 3.57341 -6.94102
2269 3 3.57341 3.57341 0 -6.37793
2520 1 5.36011 5.36011 0 -8.35303
2767 3 5.36011 3.57341 1.7867 -6.31897
3018 1 3.57341 5.36011 1.7867 -8.34725
3272 1 3.57341 7.14681 0 -8.12883
3269 3 7.14681 3.57341 0 -6.49404
3268 3 3.57341 3.57341 3.57341 -6.43803
3519 1 5.36011 5.36011 3.57341 -8.64689
3770 3 5.36011 7.14681 1.7867 -6.30935
270 3 10.7202 3.57341 0 -6.67572
519 3 8.93351 5.36011 3.57341 -6.58394
771 1 8.93351 7.14681 1.7867 -8.42191
1018 3 10.7202 5.36011 1.7867 -6.60416
1274 2 10.7202 7.14681 0 -6.91805
1271 3 10.7202 3.57341 3.57341 -6.57068
2273 2 10.7202 7.14681 3.57341 -7.02041
3520 2 8.93351 5.36011 0 -6.98589
3768 3 8.93351 3.57341 1.7867 -6.60607
520 3 12.5069 5.36011 0 -6.47759
769 2 12.5069 3.57341 1.7867 -7.04535
1272 2 14.2936 3.57341 0 -6.96383
1521 2 12.5069 5.36011 3.57341 -6.96602
1771 1 12.5069 7.14681 1.7867 -8.5619
2019 3 14.2936 5.36011 1.7867 -6.48644
2275 1 14.2936 7.14681 0 -8.4016
2270 1 14.2936 3.57341 3.57341 -8.57957
3275 3 14.2936 7.14681 3.57341 -6.53512
1379 3 17.867 3.57341 0 -6.36314
1522 2 16.0803 5.36011 0 -7.02693
1769 2 16.0803 3.57341 1.7867 -6.98125
2002 2 17.867 5.36011 1.7867 -7.00497
2396 2 17.867 7.14681 0 -6.98596
2394 1 17.867 3.57341 3.57341 -8.35175
2521 2 16.0803 5.36011 3.57341 -7.02736
2770 1 16.0803 7.14681 1.7867 -8.6589
3397 3 17.867 7.14681 3.57341 -6.64968
272 3 0 10.7202 3.57341 -6.41448
2522 3 1.7867 8.93351 0 -6.26359
3019 1 0 8.93351 1.7867 -8.42207
3270 3 0 10.7202 0 -6.23156
3521 3 1.7867 8.93351 3.57341 -6.51126
3769 2 1.7867 10.7202 1.7867 -6.93152
3 2 3.57341 8.93351 1.7867 -6.90009
273 3 3.57341 10.7202 0 -6.41621
521 1 5.36011 8.93351 3.57341 -8.30513
770 1 5.36011 10.7202 1.7867 -8.55049
1019 3 7.14681 8.93351 1.7867 -6.25629
1275 3 7.14681 10.7202 0 -6.36432
1273 2 3.57341 10.7202 3.57341 -7.03411
2274 2 7.14681 10.7202 3.57341 -6.95044
3522 3 5.36011 8.93351 0 -6.29209
522 3 8.93351 8.93351 0 -6.25006
1523 1 8.93351 8.93351 3.57341 -8.09277
1770 1 8.93351 10.7202 1.7867 -8.48678
2020 2 10.7202 8.93351 1.7867 -6.99778
2272 1 10.7202 10.7202 0 -8.19294
3273 1 10.7202 10.7202 3.57341 -8.28128
276 1 14.2936 10.7202 3.57341 -8.44442
1524 3 12.5069 8.93351 0 -6.19616
2523 2 12.5069 8.93351 3.57341 -6.96993
2769 3 12.5069 10.7202 1.7867 -6.23973
3020 2 14.2936 8.93351 1.7867 -6.89203
3274 1 14.2936 10.7202 0 -8.3891
383 3 17.867 10.7202 3.57341 -6.4342
2524 3 16.0803 8.93351 0 -6.25201
3144 3 17.867 8.93351 1.7867 -6.47198
3396 1 17.867 10.7202 0 -8.49428
3523 3 16.0803 8.93351 3.57341 -6.48175
3771 2 16.0803 10.7202 1.7867 -6.85845
4 1 0 12.5069 1.7867 -8.24725
277 2 0 14.2936 0 -7.02518
523 1 1.7867 12.5069 3.57341 -8.28661
772 1 1.7867 14.2936 1.7867 -8.06419
1277 1 0 14.2936 3.57341 -8.16512
3524 2 1.7867 12.5069 0 -6.96643
524 3 5.36011 12.5069 0 -6.52837
1020 2 3.57341 12.5069 1.7867 -7.00156
1278 3 3.57341 14.2936 0 -6.45185
1525 1 5.36011 12.5069 3.57341 -8.27381
1772 1 5.36011 14.2936 1.7867 -8.27733
2021 3 7.14681 12.5069 1.7867 -6.40018
2277 2 7.14681 14.2936 0 -6.95076
2276 1 3.57341 14.2936 3.57341 -8.07412
3277 2 7.14681 14.2936 3.57341 -7.01142
278 3 10.7202 14.2936 3.57341 -6.61844
1526 3 8.93351 12.5069 0 -6.29631
2525 3 8.93351 12.5069 3.57341 -6.56405
2771 2 8.93351 14.2936 1.7867 -6.93869
3021 2 10.7202 12.5069 1.7867 -6.95234
3276 1 10.7202 14.2936 0 -8.25553
5 3 14.2936 12.5069 1.7867 -6.31365
279 3 14.2936 14.2936 0 -6.3027
1279 1 14.2936 14.2936 3.57341 -8.56671
2526 1 12.5069 12.5069 0 -8.12123
3525 1 12.5069 12.5069 3.57341 -8.35479
3772 2 12.5069 14.2936 1.7867 -6.88168
129 1 17.867 12.5069 1.7867 -8.32056
386 2 17.867 14.2936 0 -6.941
525 3 16.0803 12.5069 3.57341 -6.35549
773 3 16.0803 14.2936 1.7867 -6.4235
1387 2 17.867 14.2936 3.57341 -6.8918
3526 2 16.0803 12.5069 0 -6.86299
526 1 1.7867 16.0803 0 -8.59213
1021 2 0 16.0803 1.7867 -6.96702
1527 1 1.7867 16.0803 3.57341 -8.26563
2328 3 0 17.867 0 -6.48311
2828 3 1.7867 17.867 1.7867 -6.37983
3329 2 0 17.867 3.57341 -6.94906
317 2 7.14681 17.867 0 -7.05197
316 1 3.57341 17.867 3.57341 -8.34232
1333 3 7.14681 17.867 3.57341 -6.31947
1528 2 5.36011 16.0803 0 -6.98053
2022 1 3.57341 16.0803 1.7867 -8.06121
2527 1 5.36011 16.0803 3.57341 -8.15742
3022 1 7.14681 16.0803 1.7867 -8.27729
3330 2 3.57341 17.867 0 -6.97003
3830 2 5.36011 17.867 1.7867 -6.98887
6 3 10.7202 16.0803 1.7867 -6.43118
815 1 8.93351 17.867 1.7867 -8.38339
1331 1 10.7202 17.867 0 -8.07656
2330 3 10.7202 17.867 3.57341 -6.47918
2528 2 8.93351 16.0803 0 -7.03516
3527 3 8.93351 16.0803 3.57341 -6.51269
527 2 12.5069 16.0803 3.57341 -6.9548
1022 3 14.2936 16.0803 1.7867 -6.37039
1831 1 12.5069 17.867 1.7867 -8.49973
2332 2 14.2936 17.867 0 -6.98887
3333 3 14.2936 17.867 3.57341 -6.35994
3528 3 12.5069 16.0803 0 -6.22699
528 1 16.0803 16.0803 0 -8.48486
1131 3 17.867 16.0803 1.7867 -6.35207
1529 3 16.0803 16.0803 3.57341 -6.37503
2438 3 17.867 17.867 0 -6.36793
2830 1 16.0803 17.867 1.7867 -8.48389
3455 3 17.867 17.867 3.57341 -6.17939
1773 3 1.7867 0 5.36011 -6.35171
2023 1 0 1.7867 5.36011 -8.46557
2278 1 0 0 7.14681 -8.72295
2529 3 1.7867 1.7867 7.14681 -6.52136
2781 2 1.7867 0 8.93351 -6.9261
3032 3 0 1.7867 8.93351 -6.62282
7 2 7.14681 1.7867 5.36011 -6.99185
17 2 7.14681 1.7867 8.93351 -6.93026
2773 1 3.57341 0 7.14681 -8.78597
2772 2 5.36011 0 5.36011 -6.89471
3024 3 5.36011 1.7867 7.14681 -6.61744
3023 3 3.57341 1.7867 5.36011 -6.50187
3282 2 5.36011 0 8.93351 -6.94547
3278 3 7.14681 0 7.14681 -6.63446
3533 2 3.57341 1.7867 8.93351 -7.04402
533 2 10.7202 1.7867 8.93351 -6.96361
1023 1 10.7202 1.7867 5.36011 -8.31045
3529 2 8.93351 1.7867 7.14681 -6.95247
3783 3 8.93351 0 8.93351 -6.31114
3774 1 10.7202 0 7.14681 -8.31802
3773 3 8.93351 0 5.36011 -6.35972
8 2 12.5069 1.7867 7.14681 -7.02018
252 1 12.5069 0 8.93351 -8.07227
280 1 14.2936 0 7.14681 -8.40377
774 2 12.5069 0 5.36011 -7.01487
1033 1 14.2936 1.7867 8.93351 -8.26928
2024 3 14.2936 1.7867 5.36011 -6.47699
529 1 16.0803 1.7867 7.14681 -8.31925
784 3 16.0803 0 8.93351 -6.40292
1774 2 16.0803 0 5.36011 -6.9985
2007 3 17.867 1.7867 5.36011 -6.30016
2403 1 17.867 0 7.14681 -8.37033
3157 3 17.867 1.7867 8.93351 -6.48108
775 3 0 3.57341 7.14681 -6.52843
1024 2 1.7867 5.36011 7.14681 -6.95304
1284 2 1.7867 3.57341 8.93351 -7.02705
1534 3 0 5.36011 8.93351 -6.49033
2774 3 1.7867 3.57341 5.36011 -6.51209
3025 3 0 5.36011 5.36011 -6.49113
3279 3 0 7.14681 7.14681 -6.43934
3786 1 1.7867 7.14681 8.93351 -8.45455
3776 3 1.7867 7.14681 5.36011 -6.61554
9 3 3.57341 5.36011 5.36011 -6.61764
255 3 5.36011 7.14681 8.93351 -6.21197
281 1 7.14681 7.14681 7.14681 -8.12447
778 3 5.36011 7.14681 5.36011 -6.31152
1025 3 7.14681 5.36011 5.36011 -6.3869
1280 2 3.57341 3.57341 7.14681 -7.03918
1530 2 5.36011 5.36011 7.14681 -6.92461
1784 3 5.36011 3.57341 8.93351 -6.4686
1775 1 7.14681 3.57341 7.14681 -8.45031
2034 1 3.57341 5.36011 8.93351 -8.5186
2534 2 7.14681 5.36011 8.93351 -6.9716
3777 3 3.57341 7.14681 7.14681 -6.38847
3775 2 5.36011 3.57341 5.36011 -7.02208
787 1 8.93351 7.14681 8.93351 -7.95729
779 3 10.7202 7.14681 7.14681 -6.19511
776 2 8.93351 3.57341 5.36011 -6.97345
1779 1 8.93351 7.14681 5.36011 -8.26903
2026 1 8.93351 5.36011 7.14681 -8.13654
2025 2 10.7202 5.36011 5.36011 -6.94226
2283 1 8.93351 3.57341 8.93351 -8.20254
2279 3 10.7202 3.57341 7.14681 -6.3416
3034 1 10.7202 5.36011 8.93351 -8.18085
1288 3 12.5069 7.14681 8.93351 -6.09506
1281 2 14.2936 7.14681 7.14681 -6.93467
1776 1 12.5069 3.57341 5.36011 -8.37868
2530 1 12.5069 5.36011 7.14681 -8.54754
2784 2 12.5069 3.57341 8.93351 -6.89791
2779 3 12.5069 7.14681 5.36011 -6.47007
2776 2 14.2936 3.57341 7.14681 -6.94558
3026 3 14.2936 5.36011 5.36011 -6.49328
3536 3 14.2936 5.36011 8.93351 -6.36471
884 3 17.867 3.57341 7.14681 -6.31641
1643 3 17.867 5.36011 8.93351 -6.41084
1788 2 16.0803 7.14681 8.93351 -7.06031
2775 2 16.0803 3.57341 5.36011 -6.92264
3150 2 17.867 5.36011 5.36011 -7.03816
3027 1 16.0803 5.36011 7.14681 -8.59544
3404 2 17.867 7.14681 7.14681 -6.9787
3285 1 16.0803 3.57341 8.93351 -8.50558
3779 2 16.0803 7.14681 5.36011 -7.01073
10 3 0 8.93351 5.36011 -6.61597
20 2 0 8.93351 8.93351 -7.02897
777 2 1.7867 10.7202 5.36011 -7.04388
1777 2 0 10.7202 7.14681 -7.01841
2285 2 1.7867 10.7202 8.93351 -6.96586
3530 3 1.7867 8.93351 7.14681 -6.51901
11 1 5.36011 8.93351 7.14681 -8.14206
536 3 3.57341 8.93351 8.93351 -6.2578
1036 1 7.14681 8.93351 8.93351 -8.06703
1026 1 3.57341 8.93351 5.36011 -8.38666
1778 2 5.36011 10.7202 5.36011 -7.04311
2027 1 7.14681 8.93351 5.36011 -7.99024
2280 1 3.57341 10.7202 7.14681 -8.27573
2786 1 5.36011 10.7202 8.93351 -8.13839
2778 1 7.14681 10.7202 7.14681 -8.15863
530 2 8.93351 8.93351 7.14681 -7.011
1537 1 10.7202 8.93351 8.93351 -8.18203
2777 2 8.93351 10.7202 5.36011 -6.94839
3028 2 10.7202 8.93351 5.36011 -6.96282
3287 1 8.93351 10.7202 8.93351 -8.25363
3280 3 10.7202 10.7202 7.14681 -6.31743
12 1 14.2936 8.93351 5.36011 -8.28402
1027 1 12.5069 8.93351 7.14681 -8.2409
2037 1 14.2936 8.93351 8.93351 -8.01442
3789 1 12.5069 10.7202 8.93351 -8.18556
3780 1 14.2936 10.7202 7.14681 -8.13935
3778 1 12.5069 10.7202 5.36011 -8.1342
145 2 17.867 8.93351 8.93351 -7.10203
135 3 17.867 8.93351 5.36011 -6.57411
258 2 16.0803 10.7202 8.93351 -7.01228
780 3 16.0803 10.7202 5.36011 -6.29396
1531 1 16.0803 8.93351 7.14681 -8.34293
1886 2 17.867 10.7202 7.14681 -6.95055
282 1 0 14.2936 7.14681 -8.52296
790 3 1.7867 14.2936 8.93351 -6.50726
1028 2 0 12.5069 5.36011 -6.90969
1780 3 1.7867 14.2936 5.36011 -6.24222
2028 1 1.7867 12.5069 7.14681 -8.40791
2537 3 0 12.5069 8.93351 -6.52802
781 3 3.57341 14.2936 7.14681 -6.52359
1290 3 5.36011 14.2936 8.93351 -6.38059
1282 2 7.14681 14.2936 7.14681 -6.9872
2029 2 3.57341 12.5069 5.36011 -6.99472
2531 3 5.36011 12.5069 7.14681 -6.45496
2780 2 5.36011 14.2936 5.36011 -7.00767
3038 2 3.57341 12.5069 8.93351 -6.91882
3029 3 7.14681 12.5069 5.36011 -6.54947
3539 1 7.14681 12.5069 8.93351 -8.17719
13 3 10.7202 12.5069 5.36011 -6.48166
23 2 10.7202 12.5069 8.93351 -6.83758
1790 1 8.93351 14.2936 8.93351 -8.32654
1781 3 10.7202 14.2936 7.14681 -6.53928
3030 2 8.93351 12.5069 7.14681 -7.02508
3781 3 8.93351 14.2936 5.36011 -6.64765
539 3 14.2936 12.5069 8.93351 -6.22799
782 3 12.5069 14.2936 5.36011 -6.4575
1029 2 14.2936 12.5069 5.36011 -6.84657
2290 3 12.5069 14.2936 8.93351 -6.53098
2281 2 14.2936 14.2936 7.14681 -6.86168
3531 3 12.5069 12.5069 7.14681 -6.41251
14 1 16.0803 12.5069 7.14681 -8.2426
391 1 17.867 14.2936 7.14681 -8.26415
1138 1 17.867 12.5069 5.36011 -8.45684
1782 3 16.0803 14.2936 5.36011 -6.21891
2662 3 17.867 12.5069 8.93351 -6.40146
2790 1 16.0803 14.2936 8.93351 -8.31845
326 2 0 17.867 7.14681 -6.96194
531 3 1.7867 16.0803 7.14681 -6.54777
829 3 1.7867 17.867 8.93351 -6.41082
1039 2 0 16.0803 8.93351 -7.01334
2030 3 0 16.0803 5.36011 -6.2955
3835 2 1.7867 17.867 5.36011 -6.94183
15 1 7.14681 16.0803 5.36011 -8.6322
822 3 3.57341 17.867 7.14681 -6.46672
821 3 5.36011 17.867 5.36011 -6.42121
1030 2 5.36011 16.0803 7.14681 -6.93714
1252 3 5.36011 17.867 8.93351 -6.44671
1342 3 7.14681 17.867 7.14681 -6.58493
1540 1 3.57341 16.0803 8.93351 -8.76891
2040 2 7.14681 16.0803 8.93351 -6.96168
3031 3 3.57341 16.0803 5.36011 -6.41513
1031 2 10.7202 16.0803 5.36011 -6.98166
1532 2 8.93351 16.0803 7.14681 -7.00002
1846 2 8.93351 17.867 8.93351 -7.04328
1838 2 10.7202 17.867 7.14681 -7.051
1837 3 8.93351 17.867 5.36011 -6.50266
2540 1 10.7202 16.0803 8.93351 -8.50371
2032 1 14.2936 16.0803 5.36011 -8.53931
2031 1 12.5069 16.0803 7.14681 -8.42963
2346 2 12.5069 17.867 8.93351 -7.13027
2341 2 14.2936 17.867 7.14681 -7.08469
2837 2 12.5069 17.867 5.36011 -7.02405
3041 2 14.2936 16.0803 8.93351 -6.97146
451 1 17.867 17.867 7.14681 -8.09843
1149 1 17.867 16.0803 8.93351 -8.12557
2014 1 17.867 16.0803 5.36011 -8.31128
2532 3 16.0803 16.0803 7.14681 -6.28336
2846 3 16.0803 17.867 8.93351 -6.4059
3838 2 16.0803 17.867 5.36011 -6.93913
16 1 0 1.7867 12.5069 -8.25513
3281 3 0 0 10.7202 -6.3609
3532 2 1.7867 1.7867 10.7202 -6.97023
3782 2 1.7867 0 12.5069 -6.8866
251 3 3.57341 0 10.7202 -6.57014
532 3 5.36011 1.7867 10.7202 -6.35426
783 3 5.36011 0 12.5069 -6.44124
1032 1 3.57341 1.7867 12.5069 -8.37549
1283 1 7.14681 0 10.7202 -8.47509
2033 1 7.14681 1.7867 12.5069 -8.18256
1533 3 8.93351 1.7867 10.7202 -6.24837
1783 2 8.93351 0 12.5069 -6.91902
2282 1 10.7202 0 10.7202 -8.35348
3033 3 10.7202 1.7867 12.5069 -6.34461
18 1 14.2936 1.7867 12.5069 -8.47682
2533 2 12.5069 1.7867 10.7202 -6.93579
2782 3 12.5069 0 12.5069 -6.22359
3283 2 14.2936 0 10.7202 -6.93844
141 2 17.867 1.7867 12.5069 -6.95546
3406 2 17.867 0 10.7202 -7.03387
3534 3 16.0803 1.7867 10.7202 -6.40581
3784 1 16.0803 0 12.5069 -8.20259
253 3 0 3.57341 10.7202 -6.54636
534 2 1.7867 5.36011 10.7202 -6.98482
785 1 1.7867 3.57341 12.5069 -8.38858
1034 3 0 5.36011 12.5069 -6.47539
1286 2 0 7.14681 10.7202 -6.91459
1786 1 1.7867 7.14681 12.5069 -8.14211
1285 3 3.57341 3.57341 10.7202 -6.3583
1535 3 5.36011 5.36011 10.7202 -6.13511
1785 1 5.36011 3.57341 12.5069 -8.15339
2035 1 3.57341 5.36011 12.5069 -8.23719
2287 1 3.57341 7.14681 10.7202 -8.17652
2284 1 7.14681 3.57341 10.7202 -8.20298
2787 2 5.36011 7.14681 12.5069 -6.89286
3035 1 7.14681 5.36011 12.5069 -8.24479
3288 1 7.14681 7.14681 10.7202 -8.34564
256 2 10.7202 7.14681 10.7202 -6.88084
19 1 10.7202 5.36011 12.5069 -8.37388
2535 1 8.93351 5.36011 10.7202 -7.94446
2783 1 8.93351 3.57341 12.5069 -8.2607
3284 3 10.7202 3.57341 10.7202 -6.2515
3788 3 8.93351 7.14681 12.5069 -6.28467
254 3 14.2936 3.57341 10.7202 -6.27812
789 3 12.5069 7.14681 12.5069 -6.25041
1035 1 14.2936 5.36011 12.5069 -8.48696
1289 1 14.2936 7.14681 10.7202 -8.22567
3535 1 12.5069 5.36011 10.7202 -8.2935
3785 1 12.5069 3.57341 12.5069 -8.41846
394 3 17.867 3.57341 10.7202 -6.44442
535 2 16.0803 5.36011 10.7202 -6.93693
786 2 16.0803 3.57341 12.5069 -6.913
1144 1 17.867 5.36011 12.5069 -8.49202
1395 2 17.867 7.14681 10.7202 -6.9991
1789 3 16.0803 7.14681 12.5069 -6.44657
1536 1 1.7867 8.93351 10.7202 -8.19475
2036 3 0 8.93351 12.5069 -6.29735
2286 2 0 10.7202 10.7202 -7.02172
2785 1 1.7867 10.7202 12.5069 -8.23604
257 3 7.14681 10.7202 10.7202 -6.35227
21 3 7.14681 8.93351 12.5069 -6.46026
2536 2 5.36011 8.93351 10.7202 -6.87577
3036 1 3.57341 8.93351 12.5069 -8.06685
3286 2 3.57341 10.7202 10.7202 -6.92429
3787 3 5.36011 10.7202 12.5069 -6.44274
788 3 8.93351 10.7202 12.5069 -6.38571
1037 3 10.7202 8.93351 12.5069 -6.24292
1287 1 10.7202 10.7202 10.7202 -8.35417
3537 3 8.93351 8.93351 10.7202 -6.23865
537 1 12.5069 8.93351 10.7202 -8.11407
1787 1 12.5069 10.7202 12.5069 -8.10357
2038 1 14.2936 8.93351 12.5069 -8.26616
2288 1 14.2936 10.7202 10.7202 -8.28143
1538 2 16.0803 8.93351 10.7202 -7.04386
2145 3 17.867 8.93351 12.5069 -6.76392
2256 3 17.867 10.7202 10.7202 -6.66393
2788 2 16.0803 10.7202 12.5069 -7.00312
2538 3 1.7867 12.5069 10.7202 -6.57983
3037 1 0 12.5069 12.5069 -8.38111
3289 2 0 14.2936 10.7202 -6.97897
3790 3 1.7867 14.2936 12.5069 -6.54426
259 3 3.57341 14.2936 10.7202 -6.44781
22 2 3.57341 12.5069 12.5069 -6.9019
791 3 5.36011 14.2936 12.5069 -6.29536
1038 3 7.14681 12.5069 12.5069 -6.39869
1291 1 7.14681 14.2936 10.7202 -8.23751
3538 1 5.36011 12.5069 10.7202 -8.44765
538 3 8.93351 12.5069 10.7202 -6.29081
1791 3 8.93351 14.2936 12.5069 -6.43636
2039 3 10.7202 12.5069 12.5069 -6.40265
2289 3 10.7202 14.2936 10.7202 -6.56994
1539 3 12.5069 12.5069 10.7202 -6.30186
2789 2 12.5069 14.2936 12.5069 -7.0065
3039 2 14.2936 12.5069 12.5069 -6.99211
3290 1 14.2936 14.2936 10.7202 -8.54021
2539 3 16.0803 12.5069 10.7202 -6.41017
3163 2 17.867 12.5069 12.5069 -7.00392
3414 3 17.867 14.2936 10.7202 -6.20696
3791 1 16.0803 14.2936 12.5069 -8.36218
24 2 0 16.0803 12.5069 -6.91692
1251 3 0 17.867 10.7202 -6.43948
1845 1 1.7867 17.867 12.5069 -8.5204
3540 3 1.7867 16.0803 10.7202 -6.54341
540 1 5.36011 16.0803 10.7202 -8.41595
1040 3 3.57341 16.0803 12.5069 -6.42772
2041 1 7.14681 16.0803 12.5069 -8.30872
2345 2 3.57341 17.867 10.7202 -6.84001
2845 3 5.36011 17.867 12.5069 -6.27314
3346 1 7.14681 17.867 10.7202 -8.54374
331 3 10.7202 17.867 10.7202 -6.69876
1541 2 8.93351 16.0803 10.7202 -6.93882
3040 3 10.7202 16.0803 12.5069 -6.65926
3847 3 8.93351 17.867 12.5069 -6.37576
25 3 14.2936 16.0803 12.5069 -6.57467
832 3 12.5069 17.867 12.5069 -6.65394
1255 2 14.2936 17.867 10.7202 -7.05692
2541 2 12.5069 16.0803 10.7202 -7.02964
149 1 17.867 16.0803 12.5069 -8.06208
1454 1 17.867 17.867 10.7202 -8.1433
1848 2 16.0803 17.867 12.5069 -6.93943
3541 3 16.0803 16.0803 10.7202 -6.2931
260 1 0 0 14.2936 -8.05969
541 1 1.7867 1.7867 14.2936 -8.3274
792 3 1.7867 0 16.0803 -6.35388
1041 2 0 1.7867 16.0803 -7.02594
1298 3 0 0 17.867 -6.53509
1548 3 1.7867 1.7867 17.867 -6.69974
1292 3 3.57341 0 14.2936 -6.3792
1542 1 5.36011 1.7867 14.2936 -8.3535
1792 2 5.36011 0 16.0803 -6.98506
2042 3 3.57341 1.7867 16.0803 -6.50905
2298 2 3.57341 0 17.867 -6.98013
2291 3 7.14681 0 14.2936 -6.50622
2549 2 5.36011 1.7867 17.867 -7.00721
3042 3 7.14681 1.7867 16.0803 -6.39773
3298 2 7.14681 0 17.867 -7.10825
283 2 10.7202 0 17.867 -7.21084
26 2 10.7202 1.7867 16.0803 -7.04294
2542 2 8.93351 1.7867 14.2936 -6.92703
2791 1 8.93351 0 16.0803 -8.46959
3291 1 10.7202 0 14.2936 -8.29631
3549 2 8.93351 1.7867 17.867 -7.03864
261 3 14.2936 0 14.2936 -6.25788
502 2 12.5069 1.7867 17.867 -7.17676
1042 2 14.2936 1.7867 16.0803 -7.02037
1300 2 14.2936 0 17.867 -7.07342
3542 3 12.5069 1.7867 14.2936 -6.45423
3792 2 12.5069 0 16.0803 -7.1008
401 2 17.867 0 14.2936 -6.97821
542 1 16.0803 1.7867 14.2936 -8.22761
793 3 16.0803 0 16.0803 -6.27334
1151 1 17.867 1.7867 16.0803 -8.10841
1407 1 17.867 0 17.867 -8.15794
1550 1 16.0803 1.7867 17.867 -8.23125
1293 2 0 3.57341 14.2936 -7.02247
1543 3 1.7867 5.36011 14.2936 -6.38298
1793 2 1.7867 3.57341 16.0803 -7.06388
2043 2 0 5.36011 16.0803 -7.14182
2300 3 0 3.57341 17.867 -6.8153
2293 1 0 7.14681 14.2936 -8.27608
2551 2 1.7867 5.36011 17.867 -7.11226
2793 2 1.7867 7.14681 16.0803 -6.98047
3302 2 0 7.14681 17.867 -7.0185
264 3 7.14681 7.14681 14.2936 -6.34539
289 1 3.57341 7.14681 17.867 -8.4469
286 3 7.14681 3.57341 17.867 -6.47902
27 3 7.14681 5.36011 16.0803 -6.25076
1306 1 7.14681 7.14681 17.867 -8.28701
2292 3 3.57341 3.57341 14.2936 -6.2689
2543 3 5.36011 5.36011 14.2936 -6.133
2792 1 5.36011 3.57341 16.0803 -8.62335
3043 2 3.57341 5.36011 16.0803 -7.01252
3300 3 3.57341 3.57341 17.867 -6.64
3294 1 3.57341 7.14681 14.2936 -8.17652
3292 1 7.14681 3.57341 14.2936 -8.02912
3551 2 5.36011 5.36011 17.867 -7.01876
3795 1 5.36011 7.14681 16.0803 -8.37169
262 3 10.7202 3.57341 14.2936 -6.35956
504 1 8.93351 5.36011 17.867 -8.36625
796 3 8.93351 7.14681 16.0803 -6.31023
1043 3 10.7202 5.36011 16.0803 -6.33335
1301 1 10.7202 3.57341 17.867 -8.49197
1295 3 10.7202 7.14681 14.2936 -6.35603
2304 1 10.7202 7.14681 17.867 -8.30282
3543 2 8.93351 5.36011 14.2936 -6.86454
3793 1 8.93351 3.57341 16.0803 -8.38893
543 3 12.5069 5.36011 14.2936 -6.35238
794 3 12.5069 3.57341 16.0803 -6.65358
1294 3 14.2936 3.57341 14.2936 -6.45166
1552 3 12.5069 5.36011 17.867 -6.47038
1796 1 12.5069 7.14681 16.0803 -8.57463
2044 2 14.2936 5.36011 16.0803 -7.0339
2302 2 14.2936 3.57341 17.867 -7.07796
2295 3 14.2936 7.14681 14.2936 -6.47358
3306 2 14.2936 7.14681 17.867 -6.99905
1402 1 17.867 3.57341 14.2936 -8.15979
1544 2 16.0803 5.36011 14.2936 -7.00931
1794 2 16.0803 3.57341 16.0803 -7.02184
2152 1 17.867 5.36011 16.0803 -8.37016
2262 2 17.867 7.14681 14.2936 -7.02633
2410 3 17.867 3.57341 17.867 -6.27439
2553 3 16.0803 5.36011 17.867 -6.55022
2795 2 16.0803 7.14681 16.0803 -7.09082
3427 1 17.867 7.14681 17.867 -8.32386
287 2 0 10.7202 17.867 -6.91853
2544 1 1.7867 8.93351 14.2936 -8.06148
3044 1 0 8.93351 16.0803 -8.31984
3293 3 0 10.7202 14.2936 -6.26139
3553 2 1.7867 8.93351 17.867 -7.02639
3794 2 1.7867 10.7202 16.0803 -6.9555
263 1 3.57341 10.7202 14.2936 -8.33715
28 3 3.57341 8.93351 16.0803 -6.3892
506 3 5.36011 8.93351 17.867 -6.47272
795 2 5.36011 10.7202 16.0803 -6.89429
1044 1 7.14681 8.93351 16.0803 -8.27778
1304 2 3.57341 10.7202 17.867 -6.98102
1296 3 7.14681 10.7202 14.2936 -6.48479
2305 3 7.14681 10.7202 17.867 -6.44178
3544 2 5.36011 8.93351 14.2936 -6.91764
544 1 8.93351 8.93351 14.2936 -8.65654
1554 2 8.93351 8.93351 17.867 -6.9101
1795 1 8.93351 10.7202 16.0803 -8.26024
2045 3 10.7202 8.93351 16.0803 -6.15022
2294 1 10.7202 10.7202 14.2936 -8.30322
3303 1 10.7202 10.7202 17.867 -8.2289
291 3 14.2936 10.7202 17.867 -6.20146
1545 2 12.5069 8.93351 14.2936 -6.83864
2555 1 12.5069 8.93351 17.867 -8.07888
2794 1 12.5069 10.7202 16.0803 -8.31407
3045 3 14.2936 8.93351 16.0803 -6.41419
3295 1 14.2936 10.7202 14.2936 -8.32726
413 3 17.867 10.7202 17.867 -6.46274
2545 3 16.0803 8.93351 14.2936 -6.58187
3169 2 17.867 8.93351 16.0803 -7.07081
3419 3 17.867 10.7202 14.2936 -6.67924
3555 2 16.0803 8.93351 17.867 -6.97174
3796 3 16.0803 10.7202 16.0803 -6.53227
265 1 0 14.2936 14.2936 -8.30677
29 1 0 12.5069 16.0803 -8.48502
508 1 1.7867 12.5069 17.867 -8.10108
797 1 1.7867 14.2936 16.0803 -8.38969
1308 3 0 14.2936 17.867 -6.42154
3545 3 1.7867 12.5069 14.2936 -6.26033
545 3 5.36011 12.5069 14.2936 -6.44425
1045 1 3.57341 12.5069 16.0803 -8.2545
1297 2 3.57341 14.2936 14.2936 -6.91743
1556 1 5.36011 12.5069 17.867 -8.41107
1797 2 5.36011 14.2936 16.0803 -6.94715
2046 3 7.14681 12.5069 16.0803 -6.35156
2308 3 3.57341 14.2936 17.867 -6.166
2296 1 7.14681 14.2936 14.2936 -8.54936
3308 1 7.14681 14.2936 17.867 -8.12482
293 2 10.7202 14.2936 17.867 -6.90525
1546 2 8.93351 12.5069 14.2936 -6.80554
2557 1 8.93351 12.5069 17.867 -8.37857
2796 3 8.93351 14.2936 16.0803 -6.39623
3046 3 10.7202 12.5069 16.0803 -6.31321
3296 2 10.7202 14.2936 14.2936 -6.99871
266 2 14.2936 14.2936 14.2936 -6.98276
30 3 14.2936 12.5069 16.0803 -6.25126
1310 1 14.2936 14.2936 17.867 -8.47747
2546 1 12.5069 12.5069 14.2936 -8.36808
3557 3 12.5069 12.5069 17.867 -6.19164
3797 2 12.5069 14.2936 16.0803 -7.00195
406 1 17.867 14.2936 14.2936 -8.13052
154 3 17.867 12.5069 16.0803 -6.43857
510 1 16.0803 12.5069 17.867 -8.52024
798 1 16.0803 14.2936 16.0803 -8.20943
1417 2 17.867 14.2936 17.867 -6.9107
3546 2 16.0803 12.5069 14.2936 -6.92198
546 3 1.7867 16.0803 14.2936 -6.49074
1046 2 0 16.0803 16.0803 -6.95861
1558 3 1.7867 16.0803 17.867 -6.46538
2353 3 0 17.867 14.2936 -6.67302
2853 3 1.7867 17.867 16.0803 -6.56847
3359 3 0 17.867 17.867 -6.63543
347 3 3.57341 17.867 17.867 -6.23848
340 3 7.14681 17.867 14.2936 -6.23612
1348 3 7.14681 17.867 17.867 -6.1985
1547 1 5.36011 16.0803 14.2936 -8.35589
2047 2 3.57341 16.0803 16.0803 -6.84595
2559 1 5.36011 16.0803 17.867 -8.16263
3047 1 7.14681 16.0803 16.0803 -8.2712
3354 3 3.57341 17.867 14.2936 -6.32035
3855 1 5.36011 17.867 16.0803 -8.25547
31 3 10.7202 16.0803 16.0803 -6.66593
840 2 8.93351 17.867 16.0803 -6.90335
1261 1 10.7202 17.867 14.2936 -8.60748
2361 3 10.7202 17.867 17.867 -6.63849
2547 3 8.93351 16.0803 14.2936 -6.3962
3559 2 8.93351 16.0803 17.867 -6.90249
512 3 12.5069 16.0803 17.867 -6.48189
1047 2 14.2936 16.0803 16.0803 -7.09145
1856 2 12.5069 17.867 16.0803 -7.0682
2355 2 14.2936 17.867 14.2936 -7.05395
3363 1 14.2936 17.867 17.867 -8.50035
3547 2 12.5069 16.0803 14.2936 -7.09969
547 1 16.0803 16.0803 14.2936 -8.35746
1156 2 17.867 16.0803 16.0803 -6.95406
1560 2 16.0803 16.0803 17.867 -6.89958
2463 3 17.867 17.867 14.2936 -6.41426
2855 3 16.0803 17.867 16.0803 -6.45752
3469 1 17.867 17.867 17.867 -8.54562
1798 2 1.7867 0 19.6537 -7.0141
2048 2 0 1.7867 19.6537 -7.17619
2297 3 0 0 21.4404 -6.71513
2548 2 1.7867 1.7867 21.4404 -7.09281
32 1 7.14681 1.7867 19.6537 -8.42527
284 2 7.14681 0 21.4404 -6.9983
2797 1 5.36011 0 19.6537 -8.28414
3048 1 3.57341 1.7867 19.6537 -8.40822
3297 1 3.57341 0 21.4404 -8.25599
3548 2 5.36011 1.7867 21.4404 -7.08499
501 2 8.93351 1.7867 21.4404 -6.99866
1048 2 10.7202 1.7867 19.6537 -7.10745
1299 2 10.7202 0 21.4404 -7.03028
3798 3 8.93351 0 19.6537 -6.78496
799 2 12.5069 0 19.6537 -7.17439
1549 3 12.5069 1.7867 21.4404 -6.51014
2049 2 14.2936 1.7867 19.6537 -7.05747
2299 1 14.2936 0 21.4404 -8.32257
1799 2 16.0803 0 19.6537 -6.95202
2157 1 17.867 1.7867 19.6537 -8.13965
2408 3 17.867 0 21.4404 -6.29058
2550 1 16.0803 1.7867 21.4404 -8.33126
288 2 0 7.14681 21.4404 -6.998
2798 2 1.7867 3.57341 19.6537 -7.09315
3049 3 0 5.36011 19.6537 -6.69989
3299 2 0 3.57341 21.4404 -7.1451
3550 1 1.7867 5.36011 21.4404 -8.5379
3800 1 1.7867 7.14681 19.6537 -8.23948
503 2 5.36011 5.36011 21.4404 -7.06041
33 3 3.57341 5.36011 19.6537 -6.56327
285 2 3.57341 3.57341 21.4404 -7.01191
802 2 5.36011 7.14681 19.6537 -7.00956
1049 2 7.14681 5.36011 19.6537 -7.08917
1305 1 3.57341 7.14681 21.4404 -8.29829
1302 1 7.14681 3.57341 21.4404 -8.35408
2306 2 7.14681 7.14681 21.4404 -7.02544
3799 2 5.36011 3.57341 19.6537 -7.06901
800 3 8.93351 3.57341 19.6537 -6.52817
1551 2 8.93351 5.36011 21.4404 -7.04858
1802 2 8.93351 7.14681 19.6537 -7.07043
2050 2 10.7202 5.36011 19.6537 -7.01134
2301 3 10.7202 3.57341 21.4404 -6.59709
3304 1 10.7202 7.14681 21.4404 -8.20788
292 3 14.2936 7.14681 21.4404 -6.18385
1800 3 12.5069 3.57341 19.6537 -6.68201
2552 2 12.5069 5.36011 21.4404 -6.93063
2801 1 12.5069 7.14681 19.6537 -8.22865
3050 3 14.2936 5.36011 19.6537 -6.49314
3301 3 14.2936 3.57341 21.4404 -6.40392
414 1 17.867 7.14681 21.4404 -8.36524
2799 1 16.0803 3.57341 19.6537 -8.46262
3174 2 17.867 5.36011 19.6537 -6.95032
3425 2 17.867 3.57341 21.4404 -6.98858
3552 3 16.0803 5.36011 21.4404 -6.36596
3802 2 16.0803 7.14681 19.6537 -6.92048
505 2 1.7867 8.93351 21.4404 -6.94032
34 1 0 8.93351 19.6537 -8.569
801 3 1.7867 10.7202 19.6537 -6.32268
1303 3 0 10.7202 21.4404 -6.35142
1050 3 3.57341 8.93351 19.6537 -6.45497
1553 2 5.36011 8.93351 21.4404 -7.00491
1801 3 5.36011 10.7202 19.6537 -6.41393
2051 2 7.14681 8.93351 19.6537 -7.06667
2303 1 3.57341 10.7202 21.4404 -8.49064
3305 1 7.14681 10.7202 21.4404 -8.46897
290 1 10.7202 10.7202 21.4404 -8.19459
2554 1 8.93351 8.93351 21.4404 -8.32828
2800 2 8.93351 10.7202 19.6537 -6.91477
3051 2 10.7202 8.93351 19.6537 -7.11076
35 1 14.2936 8.93351 19.6537 -8.14708
1307 1 14.2936 10.7202 21.4404 -7.8747
3554 1 12.5069 8.93351 21.4404 -7.93843
3801 1 12.5069 10.7202 19.6537 -8.17216
507 3 16.0803 8.93351 21.4404 -6.01134
159 1 17.867 8.93351 19.6537 -8.12343
803 1 16.0803 10.7202 19.6537 -8.10602
1414 1 17.867 10.7202 21.4404 -7.91266
1051 1 0 12.5069 19.6537 -8.48889
1555 3 1.7867 12.5069 21.4404 -6.37607
1803 1 1.7867 14.2936 19.6537 -8.29883
2307 3 0 14.2936 21.4404 -6.54843
294 2 7.14681 14.2936 21.4404 -6.90337
2052 1 3.57341 12.5069 19.6537 -8.20565
2556 2 5.36011 12.5069 21.4404 -6.93781
2802 3 5.36011 14.2936 19.6537 -6.18485
3052 3 7.14681 12.5069 19.6537 -6.32151
3307 1 3.57341 14.2936 21.4404 -8.40517
36 3 10.7202 12.5069 19.6537 -6.08751
1309 1 10.7202 14.2936 21.4404 -8.13976
3556 3 8.93351 12.5069 21.4404 -6.23005
3803 1 8.93351 14.2936 19.6537 -8.15545
509 1 12.5069 12.5069 21.4404 -7.92622
804 1 12.5069 14.2936 19.6537 -8.27476
1052 3 14.2936 12.5069 19.6537 -6.05069
2309 1 14.2936 14.2936 21.4404 -8.36368
1161 2 17.867 12.5069 19.6537 -6.95839
1557 1 16.0803 12.5069 21.4404 -8.23187
1804 3 16.0803 14.2936 19.6537 -6.37995
2418 3 17.867 14.2936 21.4404 -6.43773
346 2 0 17.867 21.4404 -7.13798
2053 2 0 16.0803 19.6537 -7.06715
2558 2 1.7867 16.0803 21.4404 -7.06807
3860 2 1.7867 17.867 19.6537 -6.99437
37 1 7.14681 16.0803 19.6537 -8.18915
846 1 5.36011 17.867 19.6537 -8.14418
1347 2 3.57341 17.867 21.4404 -6.95823
2363 1 7.14681 17.867 21.4404 -8.37339
3053 1 3.57341 16.0803 19.6537 -8.36182
3558 3 5.36011 16.0803 21.4404 -6.34729
511 1 8.93351 16.0803 21.4404 -8.14393
1053 1 10.7202 16.0803 19.6537 -8.29543
1862 3 8.93351 17.867 19.6537 -6.33668
3361 3 10.7202 17.867 21.4404 -6.48595
350 2 14.2936 17.867 21.4404 -6.95151
1559 2 12.5069 16.0803 21.4404 -6.99205
2054 3 14.2936 16.0803 19.6537 -6.34446
2861 2 12.5069 17.867 19.6537 -6.98043
472 1 17.867 17.867 21.4404 -8.43479
2162 3 17.867 16.0803 19.6537 -6.38096
2560 2 16.0803 16.0803 21.4404 -6.92813
3862 1 16.0803 17.867 19.6537 -8.31601
47 2 0 1.7867 26.8005 -7.05128
2803 1 1.7867 0 23.2271 -8.27894
3054 3 0 1.7867 23.2271 -6.67997
3309 1 0 0 25.0138 -8.38852
3560 2 1.7867 1.7867 25.0138 -7.0074
3813 1 1.7867 0 26.8005 -8.17168
549 3 3.57341 1.7867 26.8005 -6.2941