ITEM: TIMESTEP
0
ITEM: NUMBER OF ATOMS
4000
ITEM: BOX BOUNDS pp pp pp
0.0000000000000000e+00 3.5384799999999998e+01
0.0000000000000000e+00 3.5384799999999998e+01
0.0000000000000000e+00 3.5384799999999998e+01
ITEM: ATOMS id type x y z c_peratom
267 1 0 0 0 -8.29735
516 2 1.76924 1.76924 0 -6.96497
767 2 1.76924 0 1.76924 -6.99385
1016 1 0 1.76924 1.76924 -8.29021
1267 1 0 0 3.53848 -8.40642
1517 1 1.76924 1.76924 3.53848 -8.50712
1268 2 3.53848 0 0 -6.98425
1518 2 5.30772 1.76924 0 -6.97685
1767 1 5.30772 0 1.76924 -8.74471
2017 3 3.53848 1.76924 1.76924 -6.46928
2266 2 3.53848 0 3.53848 -6.91235
2517 2 5.30772 1.76924 3.53848 -6.9825
1 2 10.6154 1.76924 1.76924 -6.97971
268 2 10.6154 0 3.53848 -6.96789
2267 3 7.07696 0 0 -6.3267
2518 2 8.8462 1.76924 0 -6.92262
2766 1 8.8462 0 1.76924 -8.50227
3017 3 7.07696 1.76924 1.76924 -6.25026
3266 1 7.07696 0 3.53848 -8.42572
3267 1 10.6154 0 0 -8.28629
3517 2 8.8462 1.76924 3.53848 -6.93931
269 3 14.1539 0 0 -6.17525
517 1 12.3847 1.76924 3.53848 -8.24771
1017 1 14.1539 1.76924 1.76924 -8.44498
1269 2 14.1539 0 3.53848 -6.95886
3518 1 12.3847 1.76924 0 -8.23658
3767 2 12.3847 0 1.76924 -6.90184
518 3 15.9232 1.76924 0 -6.22458
768 2 15.9232 0 1.76924 -6.88247
1519 3 15.9232 1.76924 3.53848 -6.18278
1270 3 0 3.53848 0 -6.19603
1520 3 1.76924 5.30772 0 -6.3618
1768 1 1.76924 3.53848 1.76924 -8.44584
2018 2 0 5.30772 1.76924 -6.77244
2268 2 0 3.53848 3.53848 -6.88096
2519 1 1.76924 5.30772 3.53848 -8.30615
2269 2 3.53848 3.53848 0 -6.97852
2520 2 5.30772 5.30772 0 -6.99365
2767 2 5.30772 3.53848 1.76924 -6.98352
3018 1 3.53848 5.30772 1.76924 -8.45135
3268 3 3.53848 3.53848 3.53848 -6.47344
3519 2 5.30772 5.30772 3.53848 -6.98125
2 3 7.07696 5.30772 1.76924 -6.4565
271 2 10.6154 3.53848 0 -6.91674
270 1 7.07696 3.53848 3.53848 -8.64684
519 3 8.8462 5.30772 3.53848 -6.33769
1018 3 10.6154 5.30772 1.76924 -6.40931
1271 2 10.6154 3.53848 3.53848 -6.91753
3269 1 7.07696 3.53848 0 -8.58584
3520 1 8.8462 5.30772 0 -8.59031
3768 1 8.8462 3.53848 1.76924 -8.51652
520 1 12.3847 5.30772 0 -8.55635
769 3 12.3847 3.53848 1.76924 -6.28734
1272 1 14.1539 3.53848 0 -8.23911
1521 2 12.3847 5.30772 3.53848 -6.96877
2019 2 14.1539 5.30772 1.76924 -6.95668
2270 1 14.1539 3.53848 3.53848 -8.30155
1522 2 15.9232 5.30772 0 -7.01868
1769 2 15.9232 3.53848 1.76924 -6.98635
2521 1 15.9232 5.30772 3.53848 -8.49032
274 1 0 10.6154 3.53848 -8.39621
2271 3 0 7.07696 0 -6.14667
2522 1 1.76924 8.8462 0 -8.19388
2768 3 1.76924 7.07696 1.76924 -6.23116
3019 2 0 8.8462 1.76924 -6.9158
3273 1 0 10.6154 0 -8.13235
3270 1 0 7.07696 3.53848 -8.16769
3521 2 1.76924 8.8462 3.53848 -6.95981
3770 1 1.76924 10.6154 1.76924 -8.4058
3 3 3.53848 8.8462 1.76924 -6.38452
275 1 3.53848 10.6154 0 -8.36278
272 3 3.53848 7.07696 3.53848 -6.46303
521 3 5.30772 8.8462 3.53848 -6.61532
771 3 5.30772 10.6154 1.76924 -6.39917
1275 2 3.53848 10.6154 3.53848 -6.91653
3271 1 3.53848 7.07696 0 -8.46967
3522 2 5.30772 8.8462 0 -6.90606
3769 2 5.30772 7.07696 1.76924 -7.00357
273 3 7.07696 7.07696 0 -6.50947
522 1 8.8462 8.8462 0 -8.67485
770 3 8.8462 7.07696 1.76924 -6.39231
1019 2 7.07696 8.8462 1.76924 -6.94407
1276 1 7.07696 10.6154 0 -8.62768
1274 2 10.6154 7.07696 0 -6.83898
1273 3 7.07696 7.07696 3.53848 -6.4476
1523 1 8.8462 8.8462 3.53848 -8.4827
1771 1 8.8462 10.6154 1.76924 -8.22096
2020 3 10.6154 8.8462 1.76924 -6.25498
2275 1 10.6154 10.6154 0 -8.32759
2274 2 7.07696 10.6154 3.53848 -6.87052
2272 2 10.6154 7.07696 3.53848 -6.9439
3274 2 10.6154 10.6154 3.53848 -6.93373
276 2 14.1539 10.6154 3.53848 -6.93769
1524 1 12.3847 8.8462 0 -8.21397
1770 3 12.3847 7.07696 1.76924 -6.41965
2273 3 14.1539 7.07696 0 -6.25236
2523 2 12.3847 8.8462 3.53848 -6.9266
2770 1 12.3847 10.6154 1.76924 -8.1535
3020 1 14.1539 8.8462 1.76924 -8.56881
3275 2 14.1539 10.6154 0 -6.91624
3272 3 14.1539 7.07696 3.53848 -6.40257
2524 3 15.9232 8.8462 0 -6.19566
2769 2 15.9232 7.07696 1.76924 -6.98165
3523 1 15.9232 8.8462 3.53848 -8.37831
3771 3 15.9232 10.6154 1.76924 -6.32558
4 2 0 12.3847 1.76924 -6.90349
277 3 0 14.1539 0 -6.46843
523 3 1.76924 12.3847 3.53848 -6.3093
772 3 1.76924 14.1539 1.76924 -6.44152
1277 2 0 14.1539 3.53848 -6.90757
3524 3 1.76924 12.3847 0 -6.1891
524 2 5.30772 12.3847 0 -6.85664
1020 3 3.53848 12.3847 1.76924 -6.19221
1278 1 3.53848 14.1539 0 -8.38713
1525 1 5.30772 12.3847 3.53848 -8.7311
1772 1 5.30772 14.1539 1.76924 -8.16281
2276 3 3.53848 14.1539 3.53848 -6.20428
278 2 10.6154 14.1539 3.53848 -6.86957
1526 3 8.8462 12.3847 0 -6.04257
2021 3 7.07696 12.3847 1.76924 -6.08019
2277 1 7.07696 14.1539 0 -8.50037
2525 2 8.8462 12.3847 3.53848 -6.90625
2771 1 8.8462 14.1539 1.76924 -8.33652
3021 1 10.6154 12.3847 1.76924 -8.15884
3277 1 10.6154 14.1539 0 -8.75359
3276 1 7.07696 14.1539 3.53848 -8.34032
5 1 14.1539 12.3847 1.76924 -8.36614
279 1 14.1539 14.1539 0 -8.35993
1279 1 14.1539 14.1539 3.53848 -8.71632
2526 2 12.3847 12.3847 0 -6.89322
3525 2 12.3847 12.3847 3.53848 -6.95989
3772 3 12.3847 14.1539 1.76924 -6.19822
525 3 15.9232 12.3847 3.53848 -6.31211
773 1 15.9232 14.1539 1.76924 -8.64726
3526 2 15.9232 12.3847 0 -6.90248
526 3 1.76924 15.9232 0 -6.33838
1021 3 0 15.9232 1.76924 -6.36567
1527 2 1.76924 15.9232 3.53848 -6.91282
1528 1 5.30772 15.9232 0 -8.15647
2022 1 3.53848 15.9232 1.76924 -8.37415
2527 1 5.30772 15.9232 3.53848 -8.36136
6 3 10.6154 15.9232 1.76924 -6.11854
2528 3 8.8462 15.9232 0 -6.10682
3022 3 7.07696 15.9232 1.76924 -6.03992
3527 1 8.8462 15.9232 3.53848 -8.47618
527 3 12.3847 15.9232 3.53848 -6.35103
1022 3 14.1539 15.9232 1.76924 -6.35901
3528 1 12.3847 15.9232 0 -8.5153
528 3 15.9232 15.9232 0 -6.26275
1529 2 15.9232 15.9232 3.53848 -6.84942
1773 2 1.76924 0 5.30772 -6.97173
2023 3 0 1.76924 5.30772 -6.21549
2278 1 0 0 7.07696 -8.46209
2529 3 1.76924 1.76924 7.07696 -6.29313
2773 3 3.53848 0 7.07696 -6.59111
2772 1 5.30772 0 5.30772 -8.73147
3024 2 5.30772 1.76924 7.07696 -6.94696
3023 2 3.53848 1.76924 5.30772 -6.98607
7 3 7.07696 1.76924 5.30772 -6.18957
1023 2 10.6154 1.76924 5.30772 -6.94303
3278 1 7.07696 0 7.07696 -8.59488
3529 3 8.8462 1.76924 7.07696 -6.36476
3774 3 10.6154 0 7.07696 -6.42558
3773 2 8.8462 0 5.30772 -6.90672
8 3 12.3847 1.76924 7.07696 -6.26726
280 1 14.1539 0 7.07696 -8.59052
774 1 12.3847 0 5.30772 -8.2594
2024 1 14.1539 1.76924 5.30772 -8.40428
529 2 15.9232 1.76924 7.07696 -6.92803
1774 3 15.9232 0 5.30772 -6.16137
775 1 0 3.53848 7.07696 -8.49849
1024 1 1.76924 5.30772 7.07696 -8.36252
2774 2 1.76924 3.53848 5.30772 -6.92488
3025 1 0 5.30772 5.30772 -8.18448
9 2 3.53848 5.30772 5.30772 -6.94803
1280 1 3.53848 3.53848 7.07696 -8.54904
1530 3 5.30772 5.30772 7.07696 -6.42717
3775 2 5.30772 3.53848 5.30772 -6.95283
776 1 8.8462 3.53848 5.30772 -8.55338
1025 3 7.07696 5.30772 5.30772 -6.33475
1775 1 7.07696 3.53848 7.07696 -8.70747
2026 3 10.6154 5.30772 5.30772 -6.30598
2025 1 8.8462 5.30772 7.07696 -8.38969
2279 1 10.6154 3.53848 7.07696 -8.40054
1776 1 12.3847 3.53848 5.30772 -8.409
2530 3 12.3847 5.30772 7.07696 -6.48462
2776 2 14.1539 3.53848 7.07696 -6.92518
3026 2 14.1539 5.30772 5.30772 -7.01243
2775 2 15.9232 3.53848 5.30772 -6.96805
3027 3 15.9232 5.30772 7.07696 -6.58754
10 1 0 8.8462 5.30772 -8.39596
779 1 1.76924 10.6154 5.30772 -8.39405
1778 3 0 10.6154 7.07696 -6.1089
3279 3 0 7.07696 7.07696 -6.23792
3530 3 1.76924 8.8462 7.07696 -6.24347
3776 1 1.76924 7.07696 5.30772 -8.37027
11 1 5.30772 8.8462 7.07696 -8.49415
777 3 5.30772 7.07696 5.30772 -6.5121
1026 2 3.53848 8.8462 5.30772 -6.89423
1779 3 5.30772 10.6154 5.30772 -6.45181
2280 2 3.53848 10.6154 7.07696 -6.93401
3777 3 3.53848 7.07696 7.07696 -6.27884
281 2 7.07696 7.07696 7.07696 -6.85851
530 2 8.8462 8.8462 7.07696 -6.77039
778 3 10.6154 7.07696 7.07696 -6.42764
1777 1 8.8462 7.07696 5.30772 -8.42633
2027 1 7.07696 8.8462 5.30772 -8.6231
2779 3 7.07696 10.6154 7.07696 -6.27274
2778 3 8.8462 10.6154 5.30772 -6.3753
3028 1 10.6154 8.8462 5.30772 -8.47704
3280 3 10.6154 10.6154 7.07696 -6.32881
12 1 14.1539 8.8462 5.30772 -8.47168
1027 2 12.3847 8.8462 7.07696 -6.96469
1281 2 14.1539 7.07696 7.07696 -7.01798
2777 3 12.3847 7.07696 5.30772 -6.57177
3780 2 14.1539 10.6154 7.07696 -6.9741
3779 1 12.3847 10.6154 5.30772 -8.55683
780 1 15.9232 10.6154 5.30772 -8.55096
1531 2 15.9232 8.8462 7.07696 -6.94798
3778 2 15.9232 7.07696 5.30772 -6.96897
282 1 0 14.1539 7.07696 -8.3761
1028 1 0 12.3847 5.30772 -8.31078
1780 1 1.76924 14.1539 5.30772 -8.47566
2028 1 1.76924 12.3847 7.07696 -8.28444
781 3 3.53848 14.1539 7.07696 -6.17009
2029 2 3.53848 12.3847 5.30772 -6.89861
2531 2 5.30772 12.3847 7.07696 -6.92646
2780 2 5.30772 14.1539 5.30772 -6.85086
13 3 10.6154 12.3847 5.30772 -6.45072
1282 3 7.07696 14.1539 7.07696 -6.38164
1781 1 10.6154 14.1539 7.07696 -8.59016
3030 1 8.8462 12.3847 7.07696 -8.72829
3029 3 7.07696 12.3847 5.30772 -6.41512
3781 2 8.8462 14.1539 5.30772 -6.88149
782 3 12.3847 14.1539 5.30772 -6.36727
1029 3 14.1539 12.3847 5.30772 -6.46272
2281 2 14.1539 14.1539 7.07696 -6.89162
3531 3 12.3847 12.3847 7.07696 -6.46514
14 3 15.9232 12.3847 7.07696 -6.37728
1782 3 15.9232 14.1539 5.30772 -6.3218
531 3 1.76924 15.9232 7.07696 -6.19952
2030 2 0 15.9232 5.30772 -6.90955
1030 1 5.30772 15.9232 7.07696 -8.29859
3031 1 3.53848 15.9232 5.30772 -8.26142
15 3 7.07696 15.9232 5.30772 -6.16956
1031 3 10.6154 15.9232 5.30772 -6.3289
1532 2 8.8462 15.9232 7.07696 -6.89024
2032 1 14.1539 15.9232 5.30772 -8.72471
2031 1 12.3847 15.9232 7.07696 -8.67814
2532 3 15.9232 15.9232 7.07696 -6.2152
16 3 0 1.76924 12.3847 -6.46925
2781 2 1.76924 0 8.8462 -6.85656
3032 1 0 1.76924 8.8462 -8.58846
3281 3 0 0 10.6154 -6.46038
3532 3 1.76924 1.76924 10.6154 -6.20408
3782 2 1.76924 0 12.3847 -6.93298
251 1 3.53848 0 10.6154 -8.53172
532 1 5.30772 1.76924 10.6154 -8.28288
783 3 5.30772 0 12.3847 -6.32535
1032 1 3.53848 1.76924 12.3847 -8.19516
3282 2 5.30772 0 8.8462 -6.94948
3533 1 3.53848 1.76924 8.8462 -8.55674
17 2 7.07696 1.76924 8.8462 -6.89123
533 2 10.6154 1.76924 8.8462 -6.90727
1283 3 7.07696 0 10.6154 -6.55227
1533 3 8.8462 1.76924 10.6154 -6.43431
1783 3 8.8462 0 12.3847 -6.42625
2033 1 7.07696 1.76924 12.3847 -8.62216
2282 1 10.6154 0 10.6154 -8.62667
3033 2 10.6154 1.76924 12.3847 -6.884
3783 3 8.8462 0 8.8462 -6.39759
252 2 12.3847 0 8.8462 -6.9376
18 3 14.1539 1.76924 12.3847 -6.4852
1033 2 14.1539 1.76924 8.8462 -6.94156
2533 3 12.3847 1.76924 10.6154 -6.39791
2782 3 12.3847 0 12.3847 -6.492
3283 1 14.1539 0 10.6154 -8.71022
784 2 15.9232 0 8.8462 -6.97403
3534 3 15.9232 1.76924 10.6154 -6.54609
3784 2 15.9232 0 12.3847 -7.01269
253 2 0 3.53848 10.6154 -6.91871
534 2 1.76924 5.30772 10.6154 -7.05037
785 1 1.76924 3.53848 12.3847 -8.44588
1034 1 0 5.30772 12.3847 -8.41638
1284 3 1.76924 3.53848 8.8462 -6.21815
1534 2 0 5.30772 8.8462 -6.95782
1285 1 3.53848 3.53848 10.6154 -8.43071
1535 3 5.30772 5.30772 10.6154 -6.16694
1785 3 5.30772 3.53848 12.3847 -6.0503
1784 3 5.30772 3.53848 8.8462 -6.18639
2035 1 3.53848 5.30772 12.3847 -8.33778
2034 2 3.53848 5.30772 8.8462 -6.88439
19 3 10.6154 5.30772 12.3847 -6.33215
2284 1 7.07696 3.53848 10.6154 -8.53398
2283 2 8.8462 3.53848 8.8462 -6.93613
2535 1 8.8462 5.30772 10.6154 -8.45621
2534 2 7.07696 5.30772 8.8462 -6.89815
2783 2 8.8462 3.53848 12.3847 -6.86252
3035 2 10.6154 5.30772 8.8462 -6.95366
3034 3 7.07696 5.30772 12.3847 -6.19002
3284 3 10.6154 3.53848 10.6154 -6.48512
254 3 14.1539 3.53848 10.6154 -6.42002
1035 1 14.1539 5.30772 12.3847 -8.21895
2784 1 12.3847 3.53848 8.8462 -8.89836
3536 3 14.1539 5.30772 8.8462 -6.47046
3535 3 12.3847 5.30772 10.6154 -6.38307
3785 1 12.3847 3.53848 12.3847 -8.69487
535 1 15.9232 5.30772 10.6154 -8.52466
786 2 15.9232 3.53848 12.3847 -6.92514
3285 3 15.9232 3.53848 8.8462 -6.4223
20 1 0 8.8462 8.8462 -8.77981
1286 2 0 7.07696 10.6154 -7.05066
1536 2 1.76924 8.8462 10.6154 -6.99974
1786 2 1.76924 7.07696 12.3847 -6.99805
2036 3 0 8.8462 12.3847 -6.53929
2287 3 0 10.6154 10.6154 -6.3138
2286 2 1.76924 10.6154 8.8462 -6.85092
2786 3 1.76924 10.6154 12.3847 -6.3027
3786 3 1.76924 7.07696 8.8462 -6.47268
255 1 5.30772 7.07696 8.8462 -8.34705
536 1 3.53848 8.8462 8.8462 -8.7372
2285 2 3.53848 7.07696 10.6154 -6.95774
2536 2 5.30772 8.8462 10.6154 -6.9381
2787 3 5.30772 10.6154 8.8462 -6.27048
2785 1 5.30772 7.07696 12.3847 -8.39861
3036 2 3.53848 8.8462 12.3847 -6.96949
3287 3 3.53848 10.6154 10.6154 -6.19912
3788 1 5.30772 10.6154 12.3847 -8.49754
256 2 10.6154 7.07696 10.6154 -6.9655
257 2 7.07696 10.6154 10.6154 -6.89371
21 3 7.07696 8.8462 12.3847 -6.20945
789 1 8.8462 10.6154 12.3847 -8.69232
787 3 8.8462 7.07696 8.8462 -6.31855
1037 2 10.6154 8.8462 12.3847 -7.05282
1036 1 7.07696 8.8462 8.8462 -8.31927
1289 3 10.6154 10.6154 10.6154 -6.40658
1537 3 10.6154 8.8462 8.8462 -6.53073
3288 1 8.8462 10.6154 8.8462 -8.53111
3286 1 7.07696 7.07696 10.6154 -8.28503
3537 1 8.8462 8.8462 10.6154 -8.37748
3787 1 8.8462 7.07696 12.3847 -8.46576
537 2 12.3847 8.8462 10.6154 -7.04964
788 2 12.3847 7.07696 12.3847 -6.9567
1288 1 14.1539 7.07696 10.6154 -8.4598
1287 2 12.3847 7.07696 8.8462 -7.01746
1789 2 12.3847 10.6154 12.3847 -7.01686
2038 3 14.1539 8.8462 12.3847 -6.37623
2037 1 14.1539 8.8462 8.8462 -8.59523
2288 2 14.1539 10.6154 10.6154 -7.0279
3789 3 12.3847 10.6154 8.8462 -6.52427
258 2 15.9232 10.6154 8.8462 -6.94517
1538 2 15.9232 8.8462 10.6154 -6.92498
1788 1 15.9232 7.07696 12.3847 -8.19732
1787 3 15.9232 7.07696 8.8462 -6.3955
2788 1 15.9232 10.6154 12.3847 -8.42086
790 2 1.76924 14.1539 8.8462 -6.87964
2538 1 1.76924 12.3847 10.6154 -8.50178
2537 3 0 12.3847 8.8462 -6.1441
3037 1 0 12.3847 12.3847 -8.56058
3289 1 0 14.1539 10.6154 -8.3867
3790 3 1.76924 14.1539 12.3847 -6.23063
259 2 3.53848 14.1539 10.6154 -6.97226
22 1 3.53848 12.3847 12.3847 -8.24687
791 1 5.30772 14.1539 12.3847 -8.26748
1290 1 5.30772 14.1539 8.8462 -8.37672
3038 1 3.53848 12.3847 8.8462 -8.40252
3538 1 5.30772 12.3847 10.6154 -8.33793
23 2 10.6154 12.3847 8.8462 -6.90005
538 3 8.8462 12.3847 10.6154 -6.50286
1038 3 7.07696 12.3847 12.3847 -6.24966
1291 2 7.07696 14.1539 10.6154 -7.00712
1791 2 8.8462 14.1539 12.3847 -6.91495
1790 2 8.8462 14.1539 8.8462 -6.9875
2039 3 10.6154 12.3847 12.3847 -6.41657
2290 3 10.6154 14.1539 10.6154 -6.59199
3539 2 7.07696 12.3847 8.8462 -6.88571
539 1 14.1539 12.3847 8.8462 -8.70498
1539 1 12.3847 12.3847 10.6154 -8.77771
2289 2 12.3847 14.1539 8.8462 -7.00991
2789 3 12.3847 14.1539 12.3847 -6.44645
3039 2 14.1539 12.3847 12.3847 -6.96856
3290 2 14.1539 14.1539 10.6154 -7.08145
2539 2 15.9232 12.3847 10.6154 -6.96545
2790 2 15.9232 14.1539 8.8462 -6.94655
3791 3 15.9232 14.1539 12.3847 -6.27798
24 2 0 15.9232 12.3847 -6.88292
1039 3 0 15.9232 8.8462 -6.07391
3540 1 1.76924 15.9232 10.6154 -8.36189
540 2 5.30772 15.9232 10.6154 -6.8936
1040 3 3.53848 15.9232 12.3847 -6.21844
1540 2 3.53848 15.9232 8.8462 -6.93111
1541 3 8.8462 15.9232 10.6154 -6.42887
2041 2 7.07696 15.9232 12.3847 -6.99046
2040 1 7.07696 15.9232 8.8462 -8.50984
2540 2 10.6154 15.9232 8.8462 -6.95039
3040 1 10.6154 15.9232 12.3847 -8.69926
25 2 14.1539 15.9232 12.3847 -6.97585
2541 2 12.3847 15.9232 10.6154 -7.02925
3041 2 14.1539 15.9232 8.8462 -6.99381
3541 3 15.9232 15.9232 10.6154 -6.32781
260 3 0 0 14.1539 -6.59592
541 2 1.76924 1.76924 14.1539 -6.90851
792 3 1.76924 0 15.9232 -6.44629
1041 2 0 1.76924 15.9232 -6.89075
1292 1 3.53848 0 14.1539 -8.47171
1542 1 5.30772 1.76924 14.1539 -8.47919
1792 2 5.30772 0 15.9232 -6.96357
2042 3 3.53848 1.76924 15.9232 -6.37142
26 1 10.6154 1.76924 15.9232 -8.62923
2291 2 7.07696 0 14.1539 -6.97662
2542 2 8.8462 1.76924 14.1539 -6.89968
2791 3 8.8462 0 15.9232 -6.34768
3042 2 7.07696 1.76924 15.9232 -6.95292
3291 3 10.6154 0 14.1539 -6.4382
261 2 14.1539 0 14.1539 -7.00393
1042 3 14.1539 1.76924 15.9232 -6.53588
3542 2 12.3847 1.76924 14.1539 -6.95453
3792 3 12.3847 0 15.9232 -6.464
542 1 15.9232 1.76924 14.1539 -8.66026
793 3 15.9232 0 15.9232 -6.54706
1293 3 0 3.53848 14.1539 -6.23889
1543 2 1.76924 5.30772 14.1539 -6.89476
1793 2 1.76924 3.53848 15.9232 -6.95571
2043 1 0 5.30772 15.9232 -8.25667
2292 3 3.53848 3.53848 14.1539 -6.2076
2543 1 5.30772 5.30772 14.1539 -8.49018
2792 1 5.30772 3.53848 15.9232 -8.44574
3043 2 3.53848 5.30772 15.9232 -6.94151
262 1 10.6154 3.53848 14.1539 -8.59911
27 2 7.07696 5.30772 15.9232 -6.96115
1043 2 10.6154 5.30772 15.9232 -7.01784
3292 3 7.07696 3.53848 14.1539 -6.37074
3543 3 8.8462 5.30772 14.1539 -6.49397
3793 3 8.8462 3.53848 15.9232 -6.43681
543 2 12.3847 5.30772 14.1539 -7.00114
794 3 12.3847 3.53848 15.9232 -6.38057
1294 2 14.1539 3.53848 14.1539 -6.92215
2044 1 14.1539 5.30772 15.9232 -8.4117
1544 2 15.9232 5.30772 14.1539 -6.98258
1794 3 15.9232 3.53848 15.9232 -6.22844
2293 3 0 7.07696 14.1539 -6.274
2544 3 1.76924 8.8462 14.1539 -6.44768
2793 1 1.76924 7.07696 15.9232 -8.39092
3044 2 0 8.8462 15.9232 -6.90845
3294 1 0 10.6154 14.1539 -8.38238
3795 2 1.76924 10.6154 15.9232 -6.93684
264 3 3.53848 10.6154 14.1539 -6.38179
28 2 3.53848 8.8462 15.9232 -7.04268
796 3 5.30772 10.6154 15.9232 -6.41545
3293 1 3.53848 7.07696 14.1539 -8.35366
3544 2 5.30772 8.8462 14.1539 -6.95975
3794 3 5.30772 7.07696 15.9232 -6.45841
263 2 7.07696 7.07696 14.1539 -6.92596
544 2 8.8462 8.8462 14.1539 -7.00709
795 2 8.8462 7.07696 15.9232 -7.0521
1044 1 7.07696 8.8462 15.9232 -8.7484
1296 2 7.07696 10.6154 14.1539 -6.88688
1295 1 10.6154 7.07696 14.1539 -8.65049
1796 3 8.8462 10.6154 15.9232 -6.22779
2045 2 10.6154 8.8462 15.9232 -7.0563
2295 1 10.6154 10.6154 14.1539 -8.51907
1545 2 12.3847 8.8462 14.1539 -7.01699
1795 2 12.3847 7.07696 15.9232 -7.08948
2294 1 14.1539 7.07696 14.1539 -8.15246
2795 2 12.3847 10.6154 15.9232 -7.00659
3045 1 14.1539 8.8462 15.9232 -8.23348
3295 3 14.1539 10.6154 14.1539 -6.3341
2545 1 15.9232 8.8462 14.1539 -8.11098
2794 1 15.9232 7.07696 15.9232 -8.08665
3796 1 15.9232 10.6154 15.9232 -8.23542
265 3 0 14.1539 14.1539 -6.15453
29 1 0 12.3847 15.9232 -8.48621
797 2 1.76924 14.1539 15.9232 -6.89176
3545 1 1.76924 12.3847 14.1539 -8.4489
545 1 5.30772 12.3847 14.1539 -8.39886
1045 3 3.53848 12.3847 15.9232 -6.48908
1297 2 3.53848 14.1539 14.1539 -6.886
1797 3 5.30772 14.1539 15.9232 -6.18492
1546 3 8.8462 12.3847 14.1539 -6.12495
2046 1 7.07696 12.3847 15.9232 -8.26938
2296 1 7.07696 14.1539 14.1539 -8.396
2796 1 8.8462 14.1539 15.9232 -8.15119
3046 1 10.6154 12.3847 15.9232 -8.22287
3296 1 10.6154 14.1539 14.1539 -8.41234
266 1 14.1539 14.1539 14.1539 -8.32076
30 2 14.1539 12.3847 15.9232 -6.95571
2546 2 12.3847 12.3847 14.1539 -6.98616
3797 1 12.3847 14.1539 15.9232 -8.30718
798 1 15.9232 14.1539 15.9232 -8.41515
3546 1 15.9232 12.3847 14.1539 -8.20171
546 3 1.76924 15.9232 14.1539 -6.50755
1046 1 0 15.9232 15.9232 -8.3887
1547 1 5.30772 15.9232 14.1539 -8.44361
2047 2 3.53848 15.9232 15.9232 -6.86976
31 2 10.6154 15.9232 15.9232 -7.00976
2547 2 8.8462 15.9232 14.1539 -6.95581
3047 3 7.07696 15.9232 15.9232 -6.20482
1047 2 14.1539 15.9232 15.9232 -6.99807
3547 2 12.3847 15.9232 14.1539 -6.99835
547 1 15.9232 15.9232 14.1539 -8.49478
1298 3 0 0 17.6924 -6.36749
1548 1 1.76924 1.76924 17.6924 -8.51094
1798 1 1.76924 0 19.4616 -8.37613
2048 2 0 1.76924 19.4616 -6.93989
2297 1 0 0 21.2309 -8.13271
2548 2 1.76924 1.76924 21.2309 -6.88886
2298 3 3.53848 0 17.6924 -6.3106
2549 2 5.30772 1.76924 17.6924 -6.95873
2797 1 5.30772 0 19.4616 -8.3829
3048 1 3.53848 1.76924 19.4616 -8.20975
3297 3 3.53848 0 21.2309 -6.21977
3548 2 5.30772 1.76924 21.2309 -6.95797
501 2 8.8462 1.76924 21.2309 -6.93027
32 1 7.07696 1.76924 19.4616 -8.32646
284 1 10.6154 0 17.6924 -8.53857
283 3 7.07696 0 21.2309 -6.2621
1048 3 10.6154 1.76924 19.4616 -6.38927
1299 2 10.6154 0 21.2309 -6.94648
3298 1 7.07696 0 17.6924 -8.51367
3549 1 8.8462 1.76924 17.6924 -8.44546
3798 3 8.8462 0 19.4616 -6.25845
502 3 12.3847 1.76924 17.6924 -6.33025
799 1 12.3847 0 19.4616 -8.69723
1300 2 14.1539 0 17.6924 -6.93545
1549 2 12.3847 1.76924 21.2309 -7.00726
2049 2 14.1539 1.76924 19.4616 -6.96896
2299 2 14.1539 0 21.2309 -7.07396
1550 2 15.9232 1.76924 17.6924 -6.92067
1799 1 15.9232 0 19.4616 -8.61573
2550 1 15.9232 1.76924 21.2309 -8.4589
2300 1 0 3.53848 17.6924 -8.16963
2551 1 1.76924 5.30772 17.6924 -8.30096
2798 1 1.76924 3.53848 19.4616 -8.24256
3049 2 0 5.30772 19.4616 -6.98033
3299 3 0 3.53848 21.2309 -6.32658
3550 1 1.76924 5.30772 21.2309 -8.44561
503 3 5.30772 5.30772 21.2309 -6.47467
33 3 3.53848 5.30772 19.4616 -6.36951
285 1 3.53848 3.53848 21.2309 -8.47604
3300 2 3.53848 3.53848 17.6924 -6.94567
3551 1 5.30772 5.30772 17.6924 -8.73302
3799 2 5.30772 3.53848 19.4616 -6.96441
504 1 8.8462 5.30772 17.6924 -8.83526
286 2 7.07696 3.53848 17.6924 -6.97623
800 2 8.8462 3.53848 19.4616 -6.93579
1049 2 7.07696 5.30772 19.4616 -6.94567
1302 2 10.6154 3.53848 17.6924 -6.93006
1301 1 7.07696 3.53848 21.2309 -8.31013
1551 1 8.8462 5.30772 21.2309 -8.34828
2050 3 10.6154 5.30772 19.4616 -6.33299
2301 3 10.6154 3.53848 21.2309 -6.38994
1552 2 12.3847 5.30772 17.6924 -7.0382
1800 1 12.3847 3.53848 19.4616 -8.67305
2302 1 14.1539 3.53848 17.6924 -8.62551
2552 1 12.3847 5.30772 21.2309 -8.31825
3050 2 14.1539 5.30772 19.4616 -6.96786
3301 3 14.1539 3.53848 21.2309 -6.32757
2553 2 15.9232 5.30772 17.6924 -7.05024
2799 2 15.9232 3.53848 19.4616 -6.99202
3552 3 15.9232 5.30772 21.2309 -6.32322
505 2 1.76924 8.8462 21.2309 -6.97008
34 1 0 8.8462 19.4616 -8.42218
290 3 0 10.6154 17.6924 -6.25526
287 2 0 7.07696 21.2309 -6.91866
802 1 1.76924 10.6154 19.4616 -8.70928
1305 1 0 10.6154 21.2309 -8.49254
3302 1 0 7.07696 17.6924 -8.08587
3553 2 1.76924 8.8462 17.6924 -6.96948
3800 2 1.76924 7.07696 19.4616 -6.96547
506 2 5.30772 8.8462 17.6924 -7.0237
288 2 3.53848 7.07696 17.6924 -7.00619
801 3 5.30772 7.07696 19.4616 -6.56771
1050 3 3.53848 8.8462 19.4616 -6.61796
1306 3 3.53848 10.6154 17.6924 -6.62692
1303 2 3.53848 7.07696 21.2309 -7.01278
1553 3 5.30772 8.8462 21.2309 -6.45867
1802 2 5.30772 10.6154 19.4616 -6.88339
2305 3 3.53848 10.6154 21.2309 -6.31592
291 2 10.6154 10.6154 21.2309 -6.97452
1304 3 7.07696 7.07696 17.6924 -6.52646
1554 2 8.8462 8.8462 17.6924 -7.00178
1801 3 8.8462 7.07696 19.4616 -6.42578
2051 2 7.07696 8.8462 19.4616 -6.91501
2306 1 7.07696 10.6154 17.6924 -8.42387
2304 2 10.6154 7.07696 17.6924 -7.05693
2303 1 7.07696 7.07696 21.2309 -8.82731
2554 3 8.8462 8.8462 21.2309 -6.38045
2801 1 8.8462 10.6154 19.4616 -8.33045
3051 3 10.6154 8.8462 19.4616 -6.4878
3306 2 10.6154 10.6154 17.6924 -6.97874
3305 1 7.07696 10.6154 21.2309 -8.53889
3303 1 10.6154 7.07696 21.2309 -8.65249
35 3 14.1539 8.8462 19.4616 -6.34342
292 3 14.1539 10.6154 17.6924 -6.37892
289 1 14.1539 7.07696 21.2309 -8.34523
1307 1 14.1539 10.6154 21.2309 -8.81789
2555 1 12.3847 8.8462 17.6924 -8.69071
2800 2 12.3847 7.07696 19.4616 -6.94693
3304 2 14.1539 7.07696 17.6924 -7.01457
3554 3 12.3847 8.8462 21.2309 -6.45913
3802 2 12.3847 10.6154 19.4616 -6.96176
507 2 15.9232 8.8462 21.2309 -6.94908
803 1 15.9232 10.6154 19.4616 -8.43579
3555 2 15.9232 8.8462 17.6924 -6.95887
3801 1 15.9232 7.07696 19.4616 -8.54227
508 3 1.76924 12.3847 17.6924 -6.38496
1051 1 0 12.3847 19.4616 -8.5698
1308 1 0 14.1539 17.6924 -8.2418
1555 3 1.76924 12.3847 21.2309 -6.16378
1803 2 1.76924 14.1539 19.4616 -6.83736
2307 1 0 14.1539 21.2309 -8.75125
1556 3 5.30772 12.3847 17.6924 -6.40838
2052 2 3.53848 12.3847 19.4616 -6.88321
2308 3 3.53848 14.1539 17.6924 -6.50203
2556 1 5.30772 12.3847 21.2309 -8.31838
2802 3 5.30772 14.1539 19.4616 -6.19615
3307 1 3.53848 14.1539 21.2309 -8.53649
36 1 10.6154 12.3847 19.4616 -8.44217
294 1 10.6154 14.1539 17.6924 -8.18245
293 1 7.07696 14.1539 21.2309 -8.38972
1309 3 10.6154 14.1539 21.2309 -6.25301
2557 1 8.8462 12.3847 17.6924 -8.06492
3052 3 7.07696 12.3847 19.4616 -6.07978
3308 1 7.07696 14.1539 17.6924 -8.47821
3556 2 8.8462 12.3847 21.2309 -6.81029
3803 3 8.8462 14.1539 19.4616 -6.03918
509 3 12.3847 12.3847 21.2309 -6.40982
804 2 12.3847 14.1539 19.4616 -6.87796
1052 3 14.1539 12.3847 19.4616 -6.37929
1310 3 14.1539 14.1539 17.6924 -6.41295
2309 1 14.1539 14.1539 21.2309 -8.38836
3557 2 12.3847 12.3847 17.6924 -7.0163
510 2 15.9232 12.3847 17.6924 -6.91848
1557 2 15.9232 12.3847 21.2309 -6.82277
1804 1 15.9232 14.1539 19.4616 -8.72751
1558 1 1.76924 15.9232 17.6924 -8.48013
2053 3 0 15.9232 19.4616 -6.28527
2558 3 1.76924 15.9232 21.2309 -6.27733
2559 1 5.30772 15.9232 17.6924 -8.71447
3053 2 3.53848 15.9232 19.4616 -6.94624
3558 2 5.30772 15.9232 21.2309 -6.96059
511 3 8.8462 15.9232 21.2309 -5.93404
37 1 7.07696 15.9232 19.4616 -8.42688
1053 1 10.6154 15.9232 19.4616 -8.47253
3559 3 8.8462 15.9232 17.6924 -6.1958
512 2 12.3847 15.9232 17.6924 -6.95865
1559 1 12.3847 15.9232 21.2309 -8.33008
2054 3 14.1539 15.9232 19.4616 -6.3504
1560 3 15.9232 15.9232 17.6924 -6.42493
2560 1 15.9232 15.9232 21.2309 -8.332
2803 1 1.76924 0 23.0001 -8.53891
3054 1 0 1.76924 23.0001 -8.41017
3309 2 0 0 24.7694 -6.94323
3560 2 1.76924 1.76924 24.7694 -7.05317
39 2 5.30772 1.76924 24.7694 -7.04783
38 3 3.53848 1.76924 23.0001 -6.52118
3805 2 3.53848 0 24.7694 -6.95004
3804 3 5.30772 0 23.0001 -6.42621
513 3 8.8462 1.76924 24.7694 -6.3077
295 1 7.07696 0 24.7694 -8.42829
806 3 10.6154 0 24.7694 -6.44026
805 3 8.8462 0 23.0001 -6.36047
1054 1 7.07696 1.76924 23.0001 -8.49765
2055 3 10.6154 1.76924 23.0001 -6.61752
1055 3 12.3847 1.76924 24.7694 -6.58306
1311 2 14.1539 0 24.7694 -7.06057
1805 2 12.3847 0 23.0001 -7.13302
3055 3 14.1539 1.76924 23.0001 -6.6101
1561 3 15.9232 1.76924 24.7694 -6.49768
2804 2 15.9232 0 23.0001 -7.04816
40 1 0 5.30772 23.0001 -8.45888
1806 1 0 3.53848 24.7694 -8.43645
2056 1 1.76924 5.30772 24.7694 -8.22584
3806 2 1.76924 3.53848 23.0001 -6.98324
807 2 5.30772 3.53848 23.0001 -7.03419
1056 2 3.53848 5.30772 23.0001 -6.95784
2310 2 3.53848 3.53848 24.7694 -7.06898
2561 1 5.30772 5.30772 24.7694 -8.34603
1807 1 8.8462 3.53848 23.0001 -8.5924
2057 2 7.07696 5.30772 23.0001 -6.97587
2805 2 7.07696 3.53848 24.7694 -6.96978
3057 2 10.6154 5.30772 23.0001 -6.97794
3056 3 8.8462 5.30772 24.7694 -6.40813
3310 2 10.6154 3.53848 24.7694 -6.99495
41 1 14.1539 5.30772 23.0001 -8.28471
2806 2 12.3847 3.53848 23.0001 -6.99453
3561 3 12.3847 5.30772 24.7694 -6.39882
3808 2 14.1539 3.53848 24.7694 -6.92463
42 1 15.9232 5.30772 24.7694 -8.39398
3807 1 15.9232 3.53848 23.0001 -8.59424
514 2 1.76924 8.8462 24.7694 -6.94392
296 1 0 7.07696 24.7694 -8.46956
808 3 1.76924 7.07696 23.0001 -6.3621
1057 3 0 8.8462 23.0001 -6.47746
1810 1 1.76924 10.6154 23.0001 -8.87656
2808 3 0 10.6154 24.7694 -6.57657
809 1 3.53848 7.07696 24.7694 -8.63776
1058 3 5.30772 8.8462 24.7694 -6.32467
1808 2 5.30772 7.07696 23.0001 -6.90789
2058 3 3.53848 8.8462 23.0001 -6.38966
2809 1 5.30772 10.6154 23.0001 -8.65371
3311 3 3.53848 10.6154 24.7694 -6.28462
43 2 10.6154 8.8462 23.0001 -7.05902
297 2 10.6154 10.6154 24.7694 -6.93227
1312 1 7.07696 7.07696 24.7694 -8.88917
1562 3 8.8462 8.8462 24.7694 -6.50895
1809 3 10.6154 7.07696 24.7694 -6.56538
2807 2 8.8462 7.07696 23.0001 -6.92694
3058 3 7.07696 8.8462 23.0001 -6.28803
3811 2 7.07696 10.6154 24.7694 -6.88627
3810 3 8.8462 10.6154 23.0001 -6.42761
812 1 14.1539 10.6154 24.7694 -8.60334
811 2 12.3847 10.6154 23.0001 -6.9892
1059 2 14.1539 8.8462 23.0001 -6.92697
2059 2 12.3847 8.8462 24.7694 -6.9815
2311 1 14.1539 7.07696 24.7694 -8.31699
3809 2 12.3847 7.07696 23.0001 -7.01104
810 1 15.9232 7.07696 23.0001 -8.23722
1811 3 15.9232 10.6154 23.0001 -6.17084
2562 1 15.9232 8.8462 24.7694 -8.53711
1313 2 0 14.1539 24.7694 -6.99145
2060 2 0 12.3847 23.0001 -6.94471
2810 1 1.76924 14.1539 23.0001 -8.62257
3059 2 1.76924 12.3847 24.7694 -6.92871
1812 2 3.53848 14.1539 24.7694 -6.93108
3060 3 3.53848 12.3847 23.0001 -6.10051
3562 1 5.30772 12.3847 24.7694 -8.24344
3812 1 5.30772 14.1539 23.0001 -8.12417
45 1 8.8462 12.3847 24.7694 -8.4062
44 1 7.07696 12.3847 23.0001 -8.06579
813 3 8.8462 14.1539 23.0001 -6.04497
1060 3 10.6154 12.3847 23.0001 -6.49728
2312 1 7.07696 14.1539 24.7694 -8.37268
2811 1 10.6154 14.1539 24.7694 -8.42956
515 3 12.3847 12.3847 24.7694 -6.22156
1813 3 12.3847 14.1539 23.0001 -6.10195
2061 3 14.1539 12.3847 23.0001 -6.13673
3312 1 14.1539 14.1539 24.7694 -8.38549
1061 1 15.9232 12.3847 24.7694 -8.66462
2812 1 15.9232 14.1539 23.0001 -8.27819
1563 2 1.76924 15.9232 24.7694 -6.95107
3061 2 0 15.9232 23.0001 -6.92039
46 3 3.53848 15.9232 23.0001 -6.15777
2062 2 5.30772 15.9232 24.7694 -7.00697
1062 1 7.07696 15.9232 23.0001 -8.25106
2063 1 10.6154 15.9232 23.0001 -8.32228
2563 3 8.8462 15.9232 24.7694 -6.067
3063 1 14.1539 15.9232 23.0001 -8.12435
3062 1 12.3847 15.9232 24.7694 -8.23392
3563 2 15.9232 15.9232 24.7694 -6.78013
751 3 1.76924 0 30.0771 -6.39805
47 2 0 1.76924 26.5386 -7.00029
298 1 0 0 28.3078 -8.50323
548 2 1.76924 1.76924 28.3078 -7.00794
1063 2 0 1.76924 30.0771 -7.05545
3813 1 1.76924 0 26.5386 -8.48076
299 1 5.30772 0 26.5386 -8.32551
549 2 3.53848 1.76924 26.5386 -7.06937
1314 2 3.53848 0 28.3078 -6.93105
1564 1 5.30772 1.76924 28.3078 -8.14301
1814 2 5.30772 0 30.0771 -6.93947
2064 1 3.53848 1.76924 30.0771 -8.5662
752 1 8.8462 0 26.5386 -8.23008
48 2 10.6154 1.76924 30.0771 -6.99733
1064 2 7.07696 1.76924 26.5386 -7.0711
1565 2 10.6154 1.76924 26.5386 -6.97804
2313 1 7.07696 0 28.3078 -8.02625
2564 1 8.8462 1.76924 28.3078 -8.16746
2813 2 8.8462 0 30.0771 -7.02031
3064 2 7.07696 1.76924 30.0771 -6.9605
3313 1 10.6154 0 28.3078 -8.26991
300 2 14.1539 0 28.3078 -6.98939
1065 2 14.1539 1.76924 30.0771 -6.97067
1315 1 12.3847 0 26.5386 -8.61045
2065 1 14.1539 1.76924 26.5386 -8.5698
3564 1 12.3847 1.76924 28.3078 -8.31943
3814 2 12.3847 0 30.0771 -7.00131
753 1 15.9232 0 30.0771 -8.48399
550 3 15.9232 1.76924 28.3078 -6.50665
1815 1 15.9232 0 26.5386 -8.57117
1316 2 0 3.53848 28.3078 -7.0599
1566 1 1.76924 5.30772 28.3078 -8.38502
1816 3 1.76924 3.53848 30.0771 -6.36556
2066 2 0 5.30772 30.0771 -7.00355
2314 3 1.76924 3.53848 26.5386 -6.39472
2565 1 0 5.30772 26.5386 -8.3394
2315 2 3.53848 3.53848 28.3078 -7.02165
2566 1 5.30772 5.30772 28.3078 -8.18684
2815 1 5.30772 3.53848 30.0771 -8.09454
2814 2 5.30772 3.53848 26.5386 -7.01772