ITEM: TIMESTEP
0
ITEM: NUMBER OF ATOMS
4000
ITEM: BOX BOUNDS pp pp pp
0.0000000000000000e+00 3.6030929999999998e+01
0.0000000000000000e+00 3.6030929999999998e+01
0.0000000000000000e+00 3.6030929999999998e+01
ITEM: ATOMS id type x y z c_peratom
267 1 0 0 0 -8.21099
516 3 1.80155 1.80155 0 -6.44396
767 1 1.80155 0 1.80155 -8.08565
1016 2 0 1.80155 1.80155 -7.02022
1270 3 0 3.60309 0 -6.47314
1268 2 3.60309 0 0 -7.10694
1267 1 0 0 3.60309 -8.01407
1517 1 1.80155 1.80155 3.60309 -8.16594
1768 2 1.80155 3.60309 1.80155 -6.94237
2017 1 3.60309 1.80155 1.80155 -8.14876
2269 3 3.60309 3.60309 0 -6.44129
2268 3 0 3.60309 3.60309 -6.44109
2266 2 3.60309 0 3.60309 -6.98497
3268 3 3.60309 3.60309 3.60309 -6.33298
1518 2 5.40464 1.80155 0 -6.99921
1767 1 5.40464 0 1.80155 -8.30429
2517 1 5.40464 1.80155 3.60309 -8.03448
2767 1 5.40464 3.60309 1.80155 -8.13167
270 1 7.20619 3.60309 3.60309 -7.91363
2267 3 7.20619 0 0 -6.6106
2518 3 9.00773 1.80155 0 -6.41449
2766 2 9.00773 0 1.80155 -6.83179
3017 3 7.20619 1.80155 1.80155 -6.31905
3269 3 7.20619 3.60309 0 -6.4493
3266 1 7.20619 0 3.60309 -8.34535
3517 1 9.00773 1.80155 3.60309 -8.1603
3768 1 9.00773 3.60309 1.80155 -8.17808
1 3 10.8093 1.80155 1.80155 -6.18396
271 1 10.8093 3.60309 0 -8.19336
268 1 10.8093 0 3.60309 -8.57814
517 3 12.6108 1.80155 3.60309 -6.38013
769 1 12.6108 3.60309 1.80155 -8.05081
1271 1 10.8093 3.60309 3.60309 -8.25201
3267 1 10.8093 0 0 -8.37071
3518 1 12.6108 1.80155 0 -8.01154
3767 3 12.6108 0 1.80155 -6.36945
269 1 14.4124 0 0 -8.24535
518 1 16.2139 1.80155 0 -8.29192
768 2 16.2139 0 1.80155 -7.04823
1017 3 14.4124 1.80155 1.80155 -6.36261
1272 2 14.4124 3.60309 0 -6.95757
1269 3 14.4124 0 3.60309 -6.6155
1519 3 16.2139 1.80155 3.60309 -6.57144
1769 2 16.2139 3.60309 1.80155 -6.95179
2270 1 14.4124 3.60309 3.60309 -8.33644
1520 2 1.80155 5.40464 0 -7.00302
2018 2 0 5.40464 1.80155 -6.96644
2519 3 1.80155 5.40464 3.60309 -6.46803
3018 1 3.60309 5.40464 1.80155 -8.14929
2520 2 5.40464 5.40464 0 -6.96321
3519 1 5.40464 5.40464 3.60309 -8.00329
2 1 7.20619 5.40464 1.80155 -8.08051
519 1 9.00773 5.40464 3.60309 -8.17467
3520 2 9.00773 5.40464 0 -6.97652
520 1 12.6108 5.40464 0 -8.08746
1018 3 10.8093 5.40464 1.80155 -6.32546
1521 2 12.6108 5.40464 3.60309 -6.97772
1522 3 16.2139 5.40464 0 -6.44203
2019 1 14.4124 5.40464 1.80155 -8.10722
2521 1 16.2139 5.40464 3.60309 -8.08826
3 2 3.60309 9.00773 1.80155 -6.88172
272 1 3.60309 7.20619 3.60309 -8.15126
2271 1 0 7.20619 0 -8.24377
2522 3 1.80155 9.00773 0 -6.28676
2768 1 1.80155 7.20619 1.80155 -8.12429
3019 1 0 9.00773 1.80155 -8.30359
3271 1 3.60309 7.20619 0 -8.2124
3270 2 0 7.20619 3.60309 -6.92829
3521 3 1.80155 9.00773 3.60309 -6.41719
521 1 5.40464 9.00773 3.60309 -8.29414
3522 3 5.40464 9.00773 0 -6.36247
3769 1 5.40464 7.20619 1.80155 -8.02773
273 3 7.20619 7.20619 0 -6.29126
522 1 9.00773 9.00773 0 -8.09068
770 2 9.00773 7.20619 1.80155 -6.95282
1019 1 7.20619 9.00773 1.80155 -8.2324
1273 3 7.20619 7.20619 3.60309 -6.3138
1523 2 9.00773 9.00773 3.60309 -7.03985
1274 1 10.8093 7.20619 0 -8.19421
1524 1 12.6108 9.00773 0 -8.35093
1770 3 12.6108 7.20619 1.80155 -6.50572
2020 3 10.8093 9.00773 1.80155 -6.50006
2272 2 10.8093 7.20619 3.60309 -7.11593
2523 2 12.6108 9.00773 3.60309 -7.13846
2273 2 14.4124 7.20619 0 -6.97937
2524 3 16.2139 9.00773 0 -6.37891
2769 1 16.2139 7.20619 1.80155 -8.18912
3020 2 14.4124 9.00773 1.80155 -6.97658
3272 3 14.4124 7.20619 3.60309 -6.51141
3523 3 16.2139 9.00773 3.60309 -6.39296
4 3 0 12.6108 1.80155 -6.3763
275 3 3.60309 10.8093 0 -6.49916
274 1 0 10.8093 3.60309 -8.41514
523 3 1.80155 12.6108 3.60309 -6.39739
1020 2 3.60309 12.6108 1.80155 -6.97921
1275 3 3.60309 10.8093 3.60309 -6.51295
3273 3 0 10.8093 0 -6.33813
3524 2 1.80155 12.6108 0 -7.01352
3770 3 1.80155 10.8093 1.80155 -6.48337
524 2 5.40464 12.6108 0 -7.03369
771 3 5.40464 10.8093 1.80155 -6.48995
1525 1 5.40464 12.6108 3.60309 -8.32173
1276 3 7.20619 10.8093 0 -6.45296
1526 2 9.00773 12.6108 0 -7.00059
1771 1 9.00773 10.8093 1.80155 -8.19688
2021 2 7.20619 12.6108 1.80155 -7.01781
2274 3 7.20619 10.8093 3.60309 -6.54344
2525 2 9.00773 12.6108 3.60309 -7.05137
2275 1 10.8093 10.8093 0 -7.93751
2526 1 12.6108 12.6108 0 -8.1848
2770 2 12.6108 10.8093 1.80155 -7.02961
3021 1 10.8093 12.6108 1.80155 -7.95568
3274 2 10.8093 10.8093 3.60309 -7.10932
3525 1 12.6108 12.6108 3.60309 -8.16377
5 1 14.4124 12.6108 1.80155 -8.05992
276 3 14.4124 10.8093 3.60309 -6.42221
525 2 16.2139 12.6108 3.60309 -6.99378
3275 3 14.4124 10.8093 0 -6.37421
3526 1 16.2139 12.6108 0 -8.24176
3771 1 16.2139 10.8093 1.80155 -8.2844
277 3 0 14.4124 0 -6.4286
526 3 1.80155 16.2139 0 -6.44867
772 3 1.80155 14.4124 1.80155 -6.46467
1021 1 0 16.2139 1.80155 -8.09647
1278 2 3.60309 14.4124 0 -7.05186
1277 1 0 14.4124 3.60309 -8.20023
1527 1 1.80155 16.2139 3.60309 -8.09185
2022 2 3.60309 16.2139 1.80155 -6.98279
2276 1 3.60309 14.4124 3.60309 -8.33532
1528 1 5.40464 16.2139 0 -8.36598
1772 3 5.40464 14.4124 1.80155 -6.43877
2527 2 5.40464 16.2139 3.60309 -6.88211
2277 1 7.20619 14.4124 0 -8.28939
2528 1 9.00773 16.2139 0 -8.21732
2771 1 9.00773 14.4124 1.80155 -8.02891
3022 3 7.20619 16.2139 1.80155 -6.38881
3276 1 7.20619 14.4124 3.60309 -8.23689
3527 3 9.00773 16.2139 3.60309 -6.39838
6 2 10.8093 16.2139 1.80155 -6.92299
278 2 10.8093 14.4124 3.60309 -6.96703
527 2 12.6108 16.2139 3.60309 -6.94907
3277 1 10.8093 14.4124 0 -8.08023
3528 3 12.6108 16.2139 0 -6.31016
3772 3 12.6108 14.4124 1.80155 -6.32331
279 3 14.4124 14.4124 0 -6.33199
528 1 16.2139 16.2139 0 -8.45511
773 1 16.2139 14.4124 1.80155 -8.2086
1022 3 14.4124 16.2139 1.80155 -6.31382
1279 1 14.4124 14.4124 3.60309 -8.22815
1529 3 16.2139 16.2139 3.60309 -6.44272
775 2 0 3.60309 7.20619 -7.02348
1284 3 1.80155 3.60309 9.00773 -6.46855
1280 2 3.60309 3.60309 7.20619 -7.13626
1773 3 1.80155 0 5.40464 -6.29108
2023 3 0 1.80155 5.40464 -6.38577
2278 1 0 0 7.20619 -8.16505
2529 2 1.80155 1.80155 7.20619 -6.97882
2781 1 1.80155 0 9.00773 -8.0143
2774 2 1.80155 3.60309 5.40464 -7.0648
2773 3 3.60309 0 7.20619 -6.51847
3032 1 0 1.80155 9.00773 -8.31661
3023 1 3.60309 1.80155 5.40464 -8.31321
3533 2 3.60309 1.80155 9.00773 -7.01681
1784 2 5.40464 3.60309 9.00773 -7.07845
2772 3 5.40464 0 5.40464 -6.45746
3024 2 5.40464 1.80155 7.20619 -7.02639
3282 3 5.40464 0 9.00773 -6.5253
3775 2 5.40464 3.60309 5.40464 -7.08678
7 3 7.20619 1.80155 5.40464 -6.38922
17 1 7.20619 1.80155 9.00773 -8.26346
776 2 9.00773 3.60309 5.40464 -7.09496
1775 2 7.20619 3.60309 7.20619 -7.02703
2283 2 9.00773 3.60309 9.00773 -6.98002
3278 1 7.20619 0 7.20619 -8.48448
3529 2 9.00773 1.80155 7.20619 -7.04016
3783 2 9.00773 0 9.00773 -6.99332
3773 3 9.00773 0 5.40464 -6.34624
8 2 12.6108 1.80155 7.20619 -7.03062
252 3 12.6108 0 9.00773 -6.59807
533 3 10.8093 1.80155 9.00773 -6.5589
774 3 12.6108 0 5.40464 -6.51063
1023 3 10.8093 1.80155 5.40464 -6.43013
1776 3 12.6108 3.60309 5.40464 -6.51516
2279 2 10.8093 3.60309 7.20619 -7.04434
2784 1 12.6108 3.60309 9.00773 -8.09087
3774 1 10.8093 0 7.20619 -8.65759
280 2 14.4124 0 7.20619 -6.97558
529 3 16.2139 1.80155 7.20619 -6.67728
784 3 16.2139 0 9.00773 -6.67371
1033 2 14.4124 1.80155 9.00773 -7.01427
1774 2 16.2139 0 5.40464 -7.1124
2024 2 14.4124 1.80155 5.40464 -6.9885
2776 1 14.4124 3.60309 7.20619 -8.49326
2775 3 16.2139 3.60309 5.40464 -6.49455
3285 3 16.2139 3.60309 9.00773 -6.48675
9 2 3.60309 5.40464 5.40464 -7.00944
1024 2 1.80155 5.40464 7.20619 -7.06277
1534 2 0 5.40464 9.00773 -6.98238
2034 1 3.60309 5.40464 9.00773 -8.22954
3025 1 0 5.40464 5.40464 -8.3264
1530 1 5.40464 5.40464 7.20619 -8.12823
1025 1 7.20619 5.40464 5.40464 -7.98614
2025 1 9.00773 5.40464 7.20619 -8.13817
2534 3 7.20619 5.40464 9.00773 -6.3335
2026 2 10.8093 5.40464 5.40464 -7.10663
2530 2 12.6108 5.40464 7.20619 -7.0594
3035 1 10.8093 5.40464 9.00773 -8.01857
3027 2 16.2139 5.40464 7.20619 -6.94714
3026 3 14.4124 5.40464 5.40464 -6.51603
3536 3 14.4124 5.40464 9.00773 -6.52453
10 3 0 9.00773 5.40464 -6.62313
20 1 0 9.00773 9.00773 -8.34964
536 2 3.60309 9.00773 9.00773 -6.99632
1026 3 3.60309 9.00773 5.40464 -6.51132
3279 2 0 7.20619 7.20619 -7.02233
3530 2 1.80155 9.00773 7.20619 -7.04118
3786 1 1.80155 7.20619 9.00773 -8.05062
3777 1 3.60309 7.20619 7.20619 -8.28732
3776 3 1.80155 7.20619 5.40464 -6.52243
11 3 5.40464 9.00773 7.20619 -6.58372
255 3 5.40464 7.20619 9.00773 -6.28773
777 2 5.40464 7.20619 5.40464 -7.02542
281 1 7.20619 7.20619 7.20619 -8.13695
530 1 9.00773 9.00773 7.20619 -8.15015
787 1 9.00773 7.20619 9.00773 -7.92465
1036 2 7.20619 9.00773 9.00773 -7.05557
1777 3 9.00773 7.20619 5.40464 -6.45041
2027 2 7.20619 9.00773 5.40464 -7.03863
778 2 10.8093 7.20619 7.20619 -7.11957
1027 2 12.6108 9.00773 7.20619 -7.10619
1287 2 12.6108 7.20619 9.00773 -6.98733
1537 1 10.8093 9.00773 9.00773 -8.20396
2777 2 12.6108 7.20619 5.40464 -7.17121
3028 3 10.8093 9.00773 5.40464 -6.74839
12 3 14.4124 9.00773 5.40464 -6.61947
1281 3 14.4124 7.20619 7.20619 -6.6615
1531 3 16.2139 9.00773 7.20619 -6.51723
1787 2 16.2139 7.20619 9.00773 -6.98298
2037 3 14.4124 9.00773 9.00773 -6.67352
3778 1 16.2139 7.20619 5.40464 -8.4982
779 3 1.80155 10.8093 5.40464 -6.53874
1028 3 0 12.6108 5.40464 -6.46224
1778 2 0 10.8093 7.20619 -6.9823
2029 1 3.60309 12.6108 5.40464 -8.39812
2028 2 1.80155 12.6108 7.20619 -7.06167
2286 2 1.80155 10.8093 9.00773 -7.01625
2280 3 3.60309 10.8093 7.20619 -6.61063
2537 1 0 12.6108 9.00773 -8.40479
3038 1 3.60309 12.6108 9.00773 -8.28999
1779 2 5.40464 10.8093 5.40464 -7.02656
2531 3 5.40464 12.6108 7.20619 -6.53074
2787 2 5.40464 10.8093 9.00773 -7.01264
2779 2 7.20619 10.8093 7.20619 -7.07485
2778 2 9.00773 10.8093 5.40464 -7.09433
3030 3 9.00773 12.6108 7.20619 -6.64921
3029 2 7.20619 12.6108 5.40464 -7.0223
3288 1 9.00773 10.8093 9.00773 -8.31269
3539 3 7.20619 12.6108 9.00773 -6.40758
13 3 10.8093 12.6108 5.40464 -6.60402
23 2 10.8093 12.6108 9.00773 -6.98653
3280 3 10.8093 10.8093 7.20619 -6.61163
3531 3 12.6108 12.6108 7.20619 -6.58967
3789 2 12.6108 10.8093 9.00773 -7.00876
3779 2 12.6108 10.8093 5.40464 -7.02902
14 1 16.2139 12.6108 7.20619 -8.14897
258 1 16.2139 10.8093 9.00773 -8.3363
539 3 14.4124 12.6108 9.00773 -6.56025
780 1 16.2139 10.8093 5.40464 -8.31518
1029 1 14.4124 12.6108 5.40464 -8.06408
3780 2 14.4124 10.8093 7.20619 -7.02961
282 2 0 14.4124 7.20619 -7.04276
531 1 1.80155 16.2139 7.20619 -8.31483
790 2 1.80155 14.4124 9.00773 -7.01482
781 2 3.60309 14.4124 7.20619 -7.01474
1039 2 0 16.2139 9.00773 -7.09339
1540 1 3.60309 16.2139 9.00773 -8.04273
1780 2 1.80155 14.4124 5.40464 -6.99134
2030 3 0 16.2139 5.40464 -6.34412
3031 3 3.60309 16.2139 5.40464 -6.33757
1030 1 5.40464 16.2139 7.20619 -8.21161
1290 1 5.40464 14.4124 9.00773 -8.20102
2780 3 5.40464 14.4124 5.40464 -6.35258
15 1 7.20619 16.2139 5.40464 -8.25912
1282 3 7.20619 14.4124 7.20619 -6.42409
1532 1 9.00773 16.2139 7.20619 -8.44304
1790 2 9.00773 14.4124 9.00773 -6.87735
2040 3 7.20619 16.2139 9.00773 -6.19951
3781 3 9.00773 14.4124 5.40464 -6.52795
782 1 12.6108 14.4124 5.40464 -8.2082
1031 2 10.8093 16.2139 5.40464 -6.99423
1781 3 10.8093 14.4124 7.20619 -6.52321
2031 1 12.6108 16.2139 7.20619 -8.38316
2289 3 12.6108 14.4124 9.00773 -6.57899
2540 3 10.8093 16.2139 9.00773 -6.38213
1782 3 16.2139 14.4124 5.40464 -6.4726
2032 3 14.4124 16.2139 5.40464 -6.46397
2281 2 14.4124 14.4124 7.20619 -6.94177
2532 3 16.2139 16.2139 7.20619 -6.68347
2790 2 16.2139 14.4124 9.00773 -6.98664
3041 2 14.4124 16.2139 9.00773 -7.02207
251 1 3.60309 0 10.8093 -8.23727
253 3 0 3.60309 10.8093 -6.34683
16 2 0 1.80155 12.6108 -7.03007
785 3 1.80155 3.60309 12.6108 -6.36124
1032 2 3.60309 1.80155 12.6108 -7.01377
1285 3 3.60309 3.60309 10.8093 -6.43288
3281 1 0 0 10.8093 -7.98119
3532 1 1.80155 1.80155 10.8093 -8.22598
3782 1 1.80155 0 12.6108 -8.02495
532 2 5.40464 1.80155 10.8093 -6.98395
783 2 5.40464 0 12.6108 -7.02993
1785 3 5.40464 3.60309 12.6108 -6.32138
1283 3 7.20619 0 10.8093 -6.58924
1533 3 9.00773 1.80155 10.8093 -6.45139
1783 2 9.00773 0 12.6108 -6.97177
2033 1 7.20619 1.80155 12.6108 -8.15908
2284 1 7.20619 3.60309 10.8093 -8.22677
2783 1 9.00773 3.60309 12.6108 -8.15731
2282 2 10.8093 0 10.8093 -7.00956
2533 2 12.6108 1.80155 10.8093 -7.00444
2782 1 12.6108 0 12.6108 -8.3217
3033 3 10.8093 1.80155 12.6108 -6.42712
3284 1 10.8093 3.60309 10.8093 -8.20158
3785 2 12.6108 3.60309 12.6108 -6.92575
254 1 14.4124 3.60309 10.8093 -8.19845
18 1 14.4124 1.80155 12.6108 -8.05723
786 2 16.2139 3.60309 12.6108 -6.92694
3283 2 14.4124 0 10.8093 -7.01384
3534 1 16.2139 1.80155 10.8093 -8.36839
3784 2 16.2139 0 12.6108 -6.95975
534 1 1.80155 5.40464 10.8093 -8.32456
1034 3 0 5.40464 12.6108 -6.37998
2035 1 3.60309 5.40464 12.6108 -8.34039
1535 3 5.40464 5.40464 10.8093 -6.31435
2535 3 9.00773 5.40464 10.8093 -6.20109
3034 1 7.20619 5.40464 12.6108 -8.22301
19 1 10.8093 5.40464 12.6108 -8.10912
3535 1 12.6108 5.40464 10.8093 -8.05905
535 3 16.2139 5.40464 10.8093 -6.51589
1035 3 14.4124 5.40464 12.6108 -6.30209
1286 3 0 7.20619 10.8093 -6.42131
1536 1 1.80155 9.00773 10.8093 -8.40929
1786 2 1.80155 7.20619 12.6108 -7.01499
2036 2 0 9.00773 12.6108 -6.98922
2285 2 3.60309 7.20619 10.8093 -6.94762
3036 3 3.60309 9.00773 12.6108 -6.45066
2536 1 5.40464 9.00773 10.8093 -8.33794
2785 3 5.40464 7.20619 12.6108 -6.25694
21 1 7.20619 9.00773 12.6108 -8.20813
3286 1 7.20619 7.20619 10.8093 -8.18994
3537 1 9.00773 9.00773 10.8093 -8.04783
3787 3 9.00773 7.20619 12.6108 -6.24375
256 2 10.8093 7.20619 10.8093 -6.92493
537 3 12.6108 9.00773 10.8093 -6.55167
788 1 12.6108 7.20619 12.6108 -8.29598
1037 3 10.8093 9.00773 12.6108 -6.45685
1288 3 14.4124 7.20619 10.8093 -6.54114
1538 2 16.2139 9.00773 10.8093 -6.96102
1788 3 16.2139 7.20619 12.6108 -6.54005
2038 3 14.4124 9.00773 12.6108 -6.50783
22 1 3.60309 12.6108 12.6108 -8.26299
2287 3 0 10.8093 10.8093 -6.53748
2538 2 1.80155 12.6108 10.8093 -6.93122
2786 3 1.80155 10.8093 12.6108 -6.3858
3037 3 0 12.6108 12.6108 -6.44812
3287 3 3.60309 10.8093 10.8093 -6.38498
3538 1 5.40464 12.6108 10.8093 -8.17496
3788 3 5.40464 10.8093 12.6108 -6.30047
257 1 7.20619 10.8093 10.8093 -8.15182
538 3 9.00773 12.6108 10.8093 -6.39106
789 2 9.00773 10.8093 12.6108 -6.8997
1038 3 7.20619 12.6108 12.6108 -6.30359
1289 3 10.8093 10.8093 10.8093 -6.53198
1539 2 12.6108 12.6108 10.8093 -6.96652
1789 2 12.6108 10.8093 12.6108 -6.94783
2039 3 10.8093 12.6108 12.6108 -6.41573
2288 3 14.4124 10.8093 10.8093 -6.56082
2539 1 16.2139 12.6108 10.8093 -8.41254
2788 3 16.2139 10.8093 12.6108 -6.40224
3039 3 14.4124 12.6108 12.6108 -6.3829
259 1 3.60309 14.4124 10.8093 -7.94366
24 3 0 16.2139 12.6108 -6.49971
1040 1 3.60309 16.2139 12.6108 -7.98521
3289 3 0 14.4124 10.8093 -6.51667
3540 3 1.80155 16.2139 10.8093 -6.47976
3790 1 1.80155 14.4124 12.6108 -8.20593
540 1 5.40464 16.2139 10.8093 -7.93903
791 3 5.40464 14.4124 12.6108 -6.20112
1291 3 7.20619 14.4124 10.8093 -6.21365
1541 1 9.00773 16.2139 10.8093 -8.28913
1791 1 9.00773 14.4124 12.6108 -8.25297
2041 1 7.20619 16.2139 12.6108 -8.05477
2290 1 10.8093 14.4124 10.8093 -8.24968
2541 2 12.6108 16.2139 10.8093 -7.03307
2789 1 12.6108 14.4124 12.6108 -8.35476
3040 2 10.8093 16.2139 12.6108 -7.00046
25 2 14.4124 16.2139 12.6108 -6.98445
3290 3 14.4124 14.4124 10.8093 -6.53804
3541 1 16.2139 16.2139 10.8093 -8.42126
3791 3 16.2139 14.4124 12.6108 -6.40566
260 1 0 0 14.4124 -8.03718
541 1 1.80155 1.80155 14.4124 -8.13011
792 2 1.80155 0 16.2139 -7.10208
1041 3 0 1.80155 16.2139 -6.20457
1293 1 0 3.60309 14.4124 -8.26179
1292 2 3.60309 0 14.4124 -7.06792
1793 3 1.80155 3.60309 16.2139 -6.38278
2042 1 3.60309 1.80155 16.2139 -8.06595
2292 2 3.60309 3.60309 14.4124 -6.92864
1542 1 5.40464 1.80155 14.4124 -8.23486
1792 2 5.40464 0 16.2139 -7.10551
2792 3 5.40464 3.60309 16.2139 -6.45131
2291 1 7.20619 0 14.4124 -8.19437
2542 2 9.00773 1.80155 14.4124 -7.05506
2791 2 9.00773 0 16.2139 -7.11783
3042 2 7.20619 1.80155 16.2139 -7.09895
3292 3 7.20619 3.60309 14.4124 -6.44041
3793 2 9.00773 3.60309 16.2139 -7.09917
262 2 10.8093 3.60309 14.4124 -6.98517
26 1 10.8093 1.80155 16.2139 -8.19676
794 1 12.6108 3.60309 16.2139 -8.19941
3291 1 10.8093 0 14.4124 -8.2872
3542 1 12.6108 1.80155 14.4124 -8.05407
3792 2 12.6108 0 16.2139 -7.00952
261 3 14.4124 0 14.4124 -6.43556
542 3 16.2139 1.80155 14.4124 -6.54848
793 3 16.2139 0 16.2139 -6.5527
1042 3 14.4124 1.80155 16.2139 -6.51976
1294 1 14.4124 3.60309 14.4124 -8.26284
1794 3 16.2139 3.60309 16.2139 -6.57978
1543 2 1.80155 5.40464 14.4124 -6.9644
2043 2 0 5.40464 16.2139 -7.08955
3043 2 3.60309 5.40464 16.2139 -6.94517
2543 1 5.40464 5.40464 14.4124 -8.40688
27 3 7.20619 5.40464 16.2139 -6.55514
3543 2 9.00773 5.40464 14.4124 -6.97568
543 3 12.6108 5.40464 14.4124 -6.24318
1043 1 10.8093 5.40464 16.2139 -8.25928
1544 1 16.2139 5.40464 14.4124 -8.43144
2044 3 14.4124 5.40464 16.2139 -6.36346
28 1 3.60309 9.00773 16.2139 -8.41789
2293 2 0 7.20619 14.4124 -7.00693
2544 3 1.80155 9.00773 14.4124 -6.46832
2793 3 1.80155 7.20619 16.2139 -6.56993
3044 1 0 9.00773 16.2139 -8.39713
3293 1 3.60309 7.20619 14.4124 -8.32737
3544 2 5.40464 9.00773 14.4124 -6.77039
3794 3 5.40464 7.20619 16.2139 -6.44374
263 3 7.20619 7.20619 14.4124 -6.37924
544 3 9.00773 9.00773 14.4124 -6.36457
795 1 9.00773 7.20619 16.2139 -8.44428
1044 3 7.20619 9.00773 16.2139 -6.42024
1295 1 10.8093 7.20619 14.4124 -8.29455
1545 3 12.6108 9.00773 14.4124 -6.40191
1795 3 12.6108 7.20619 16.2139 -6.33891
2045 2 10.8093 9.00773 16.2139 -6.92167
2294 1 14.4124 7.20619 14.4124 -8.48685
2545 2 16.2139 9.00773 14.4124 -6.90457
2794 3 16.2139 7.20619 16.2139 -6.46585
3045 3 14.4124 9.00773 16.2139 -6.35018
264 3 3.60309 10.8093 14.4124 -6.41477
29 3 0 12.6108 16.2139 -6.31017
1045 3 3.60309 12.6108 16.2139 -6.54445
3294 1 0 10.8093 14.4124 -8.224
3545 1 1.80155 12.6108 14.4124 -8.23574
3795 2 1.80155 10.8093 16.2139 -6.94508
545 3 5.40464 12.6108 14.4124 -6.45024
796 3 5.40464 10.8093 16.2139 -6.48763
1296 1 7.20619 10.8093 14.4124 -8.39743
1546 1 9.00773 12.6108 14.4124 -8.11981
1796 1 9.00773 10.8093 16.2139 -8.24519
2046 3 7.20619 12.6108 16.2139 -6.45612
2295 2 10.8093 10.8093 14.4124 -6.97422
2546 1 12.6108 12.6108 14.4124 -8.22188
2795 3 12.6108 10.8093 16.2139 -6.37633
3046 1 10.8093 12.6108 16.2139 -8.17249
30 1 14.4124 12.6108 16.2139 -8.33095
3295 1 14.4124 10.8093 14.4124 -8.38732
3546 1 16.2139 12.6108 14.4124 -8.32205
3796 2 16.2139 10.8093 16.2139 -7.02312
265 3 0 14.4124 14.4124 -6.28605
546 1 1.80155 16.2139 14.4124 -8.08365
797 1 1.80155 14.4124 16.2139 -8.2149
1046 2 0 16.2139 16.2139 -6.9522
1297 2 3.60309 14.4124 14.4124 -7.00008
2047 1 3.60309 16.2139 16.2139 -8.01522
1547 1 5.40464 16.2139 14.4124 -8.04697
1797 3 5.40464 14.4124 16.2139 -6.49753
2296 2 7.20619 14.4124 14.4124 -6.92767
2547 3 9.00773 16.2139 14.4124 -6.36001
2796 1 9.00773 14.4124 16.2139 -8.18286
3047 2 7.20619 16.2139 16.2139 -6.99822
31 1 10.8093 16.2139 16.2139 -8.22036
3296 3 10.8093 14.4124 14.4124 -6.28516
3547 2 12.6108 16.2139 14.4124 -6.97752
3797 3 12.6108 14.4124 16.2139 -6.26632
266 3 14.4124 14.4124 14.4124 -6.40922
547 2 16.2139 16.2139 14.4124 -6.98642
798 2 16.2139 14.4124 16.2139 -7.04591
1047 1 14.4124 16.2139 16.2139 -8.37907
285 2 3.60309 3.60309 21.6186 -6.93444
1298 2 0 0 18.0155 -6.99311
1548 1 1.80155 1.80155 18.0155 -8.19402
1798 3 1.80155 0 19.817 -6.44866
2048 1 0 1.80155 19.817 -8.26996
2300 1 0 3.60309 18.0155 -8.21888
2298 2 3.60309 0 18.0155 -6.97507
2297 3 0 0 21.6186 -6.4282
2548 3 1.80155 1.80155 21.6186 -6.37755
2798 3 1.80155 3.60309 19.817 -6.40409
3048 3 3.60309 1.80155 19.817 -6.49158
3300 1 3.60309 3.60309 18.0155 -8.2813
3299 1 0 3.60309 21.6186 -8.07398
3297 3 3.60309 0 21.6186 -6.4836
2549 1 5.40464 1.80155 18.0155 -8.23898
2797 2 5.40464 0 19.817 -6.96319
3548 3 5.40464 1.80155 21.6186 -6.43118
3799 1 5.40464 3.60309 19.817 -8.31304
501 2 9.00773 1.80155 21.6186 -7.00888
32 3 7.20619 1.80155 19.817 -6.53584
286 2 7.20619 3.60309 18.0155 -7.09422
283 1 7.20619 0 21.6186 -8.14998
800 2 9.00773 3.60309 19.817 -7.00352
1301 3 7.20619 3.60309 21.6186 -6.36235
3298 2 7.20619 0 18.0155 -7.09132
3549 2 9.00773 1.80155 18.0155 -7.16157
3798 1 9.00773 0 19.817 -8.27168
502 3 12.6108 1.80155 18.0155 -6.62906
284 2 10.8093 0 18.0155 -7.03584
799 3 12.6108 0 19.817 -6.63305
1048 2 10.8093 1.80155 19.817 -7.01754
1302 3 10.8093 3.60309 18.0155 -6.60684
1299 3 10.8093 0 21.6186 -6.36493
1549 3 12.6108 1.80155 21.6186 -6.48714
1800 3 12.6108 3.60309 19.817 -6.69416
2301 3 10.8093 3.60309 21.6186 -6.49822
1300 2 14.4124 0 18.0155 -7.03387
1550 3 16.2139 1.80155 18.0155 -6.56839
1799 3 16.2139 0 19.817 -6.52331
2049 2 14.4124 1.80155 19.817 -6.97552
2302 2 14.4124 3.60309 18.0155 -6.97541
2299 1 14.4124 0 21.6186 -8.47871
2550 2 16.2139 1.80155 21.6186 -6.98436
2799 1 16.2139 3.60309 19.817 -8.28786
3301 3 14.4124 3.60309 21.6186 -6.47263
33 3 3.60309 5.40464 19.817 -6.58009
2551 2 1.80155 5.40464 18.0155 -7.03363
3049 2 0 5.40464 19.817 -7.05166
3550 2 1.80155 5.40464 21.6186 -7.03825
503 3 5.40464 5.40464 21.6186 -6.44687
3551 2 5.40464 5.40464 18.0155 -6.90861
504 2 9.00773 5.40464 18.0155 -6.9736
1049 1 7.20619 5.40464 19.817 -8.33802
1551 3 9.00773 5.40464 21.6186 -6.43625
1552 2 12.6108 5.40464 18.0155 -6.93753
2050 3 10.8093 5.40464 19.817 -6.52438
2552 3 12.6108 5.40464 21.6186 -6.46977
2553 2 16.2139 5.40464 18.0155 -7.03708
3050 2 14.4124 5.40464 19.817 -7.00126
3552 2 16.2139 5.40464 21.6186 -7.00375
505 2 1.80155 9.00773 21.6186 -7.00745
34 2 0 9.00773 19.817 -6.99571
288 3 3.60309 7.20619 18.0155 -6.54696
287 3 0 7.20619 21.6186 -6.5619
1050 3 3.60309 9.00773 19.817 -6.47965
1303 3 3.60309 7.20619 21.6186 -6.57712
3302 2 0 7.20619 18.0155 -7.06314
3553 3 1.80155 9.00773 18.0155 -6.54763
3800 3 1.80155 7.20619 19.817 -6.69361
506 1 5.40464 9.00773 18.0155 -8.51898
801 3 5.40464 7.20619 19.817 -6.47523
1553 1 5.40464 9.00773 21.6186 -8.40417
1304 3 7.20619 7.20619 18.0155 -6.42545
1554 3 9.00773 9.00773 18.0155 -6.39157
1801 1 9.00773 7.20619 19.817 -8.45844
2051 3 7.20619 9.00773 19.817 -6.4482
2303 2 7.20619 7.20619 21.6186 -6.94014
2554 3 9.00773 9.00773 21.6186 -6.59305
2304 3 10.8093 7.20619 18.0155 -6.31859
2555 1 12.6108 9.00773 18.0155 -8.21473
2800 1 12.6108 7.20619 19.817 -8.21282
3051 1 10.8093 9.00773 19.817 -8.19689
3303 3 10.8093 7.20619 21.6186 -6.42993
3554 1 12.6108 9.00773 21.6186 -8.09558
507 3 16.2139 9.00773 21.6186 -6.38522
35 1 14.4124 9.00773 19.817 -7.97667
289 3 14.4124 7.20619 21.6186 -6.38917
3304 1 14.4124 7.20619 18.0155 -8.22022
3555 1 16.2139 9.00773 18.0155 -8.35922
3801 1 16.2139 7.20619 19.817 -8.32312
508 2 1.80155 12.6108 18.0155 -7.05411
290 2 0 10.8093 18.0155 -6.95291
802 3 1.80155 10.8093 19.817 -6.50254
1051 1 0 12.6108 19.817 -8.25691
1306 3 3.60309 10.8093 18.0155 -6.44359
1305 1 0 10.8093 21.6186 -8.36988
1555 2 1.80155 12.6108 21.6186 -7.02788
2052 1 3.60309 12.6108 19.817 -8.2194
2305 1 3.60309 10.8093 21.6186 -8.12141
1556 2 5.40464 12.6108 18.0155 -6.97877
1802 1 5.40464 10.8093 19.817 -8.15823
2556 3 5.40464 12.6108 21.6186 -6.4297
2306 2 7.20619 10.8093 18.0155 -6.90707
2557 1 9.00773 12.6108 18.0155 -8.29596
2801 3 9.00773 10.8093 19.817 -6.50312
3052 2 7.20619 12.6108 19.817 -7.04012
3305 2 7.20619 10.8093 21.6186 -6.94436
3556 1 9.00773 12.6108 21.6186 -8.21709
509 1 12.6108 12.6108 21.6186 -8.11146
36 3 10.8093 12.6108 19.817 -6.38772
291 2 10.8093 10.8093 21.6186 -6.97742
3306 2 10.8093 10.8093 18.0155 -6.94119
3557 3 12.6108 12.6108 18.0155 -6.45884
3802 1 12.6108 10.8093 19.817 -8.13413
510 3 16.2139 12.6108 18.0155 -6.57957
292 2 14.4124 10.8093 18.0155 -6.92668
803 2 16.2139 10.8093 19.817 -6.92665
1052 3 14.4124 12.6108 19.817 -6.47701
1307 1 14.4124 10.8093 21.6186 -8.1958
1557 3 16.2139 12.6108 21.6186 -6.3829
1308 1 0 14.4124 18.0155 -8.28871
1558 3 1.80155 16.2139 18.0155 -6.42928
1803 2 1.80155 14.4124 19.817 -7.00885
2053 3 0 16.2139 19.817 -6.48174
2308 2 3.60309 14.4124 18.0155 -6.95349
2307 1 0 14.4124 21.6186 -8.5214
2558 3 1.80155 16.2139 21.6186 -6.46842
3053 3 3.60309 16.2139 19.817 -6.48575
3307 2 3.60309 14.4124 21.6186 -6.93254
2559 1 5.40464 16.2139 18.0155 -8.28453
2802 1 5.40464 14.4124 19.817 -8.17106
3558 2 5.40464 16.2139 21.6186 -6.97801
511 2 9.00773 16.2139 21.6186 -7.11207
37 2 7.20619 16.2139 19.817 -7.07782
293 1 7.20619 14.4124 21.6186 -8.26534
3308 3 7.20619 14.4124 18.0155 -6.46823
3559 2 9.00773 16.2139 18.0155 -7.07714
3803 2 9.00773 14.4124 19.817 -7.0952
512 1 12.6108 16.2139 18.0155 -8.28445
294 2 10.8093 14.4124 18.0155 -7.02016
804 3 12.6108 14.4124 19.817 -6.45613
1053 2 10.8093 16.2139 19.817 -7.09495
1309 1 10.8093 14.4124 21.6186 -8.20712
1559 3 12.6108 16.2139 21.6186 -6.52397
1310 3 14.4124 14.4124 18.0155 -6.47468
1560 2 16.2139 16.2139 18.0155 -6.91698
1804 3 16.2139 14.4124 19.817 -6.48
2054 2 14.4124 16.2139 19.817 -6.84523
2309 3 14.4124 14.4124 21.6186 -6.40955
2560 1 16.2139 16.2139 21.6186 -8.45828
38 1 3.60309 1.80155 23.4201 -8.31273
1806 3 0 3.60309 25.2217 -6.2441
2310 2 3.60309 3.60309 25.2217 -7.08482
2803 3 1.80155 0 23.4201 -6.46467
3054 1 0 1.80155 23.4201 -8.21199
3309 2 0 0 25.2217 -7.05465
3560 2 1.80155 1.80155 25.2217 -6.97595
3806 1 1.80155 3.60309 23.4201 -8.10991
3805 2 3.60309 0 25.2217 -6.94898
39 1 5.40464 1.80155 25.2217 -8.09181
807 2 5.40464 3.60309 23.4201 -6.88553
3804 2 5.40464 0 23.4201 -6.98517
513 3 9.00773 1.80155 25.2217 -6.29523
295 1 7.20619 0 25.2217 -7.99429
805 1 9.00773 0 23.4201 -8.01597
1054 1 7.20619 1.80155 23.4201 -8.10355
1807 1 9.00773 3.60309 23.4201 -8.41523
2805 3 7.20619 3.60309 25.2217 -6.36742
806 2 10.8093 0 25.2217 -7.04996
1055 3 12.6108 1.80155 25.2217 -6.48729
1805 2 12.6108 0 23.4201 -6.96524
2055 1 10.8093 1.80155 23.4201 -8.30881
2806 1 12.6108 3.60309 23.4201 -8.27895
3310 2 10.8093 3.60309 25.2217 -6.94462
1311 2 14.4124 0 25.2217 -7.00117
1561 1 16.2139 1.80155 25.2217 -8.05544
2804 3 16.2139 0 23.4201 -6.384
3055 1 14.4124 1.80155 23.4201 -8.17061
3808 2 14.4124 3.60309 25.2217 -7.02734
3807 1 16.2139 3.60309 23.4201 -8.17221
40 1 0 5.40464 23.4201 -8.28519
1056 1 3.60309 5.40464 23.4201 -8.43641
2056 2 1.80155 5.40464 25.2217 -7.019
2561 3 5.40464 5.40464 25.2217 -6.38631
2057 1 7.20619 5.40464 23.4201 -8.38055
3056 3 9.00773 5.40464 25.2217 -6.48074
3057 3 10.8093 5.40464 23.4201 -6.46854
3561 1 12.6108 5.40464 25.2217 -8.25743
42 3 16.2139 5.40464 25.2217 -6.49405
41 2 14.4124 5.40464 23.4201 -6.94866
514 3 1.80155 9.00773 25.2217 -6.4652
296 2 0 7.20619 25.2217 -6.99938
809 3 3.60309 7.20619 25.2217 -6.37808
808 2 1.80155 7.20619 23.4201 -7.03103
1057 3 0 9.00773 23.4201 -6.50623
2058 2 3.60309 9.00773 23.4201 -6.9996
1058 1 5.40464 9.00773 25.2217 -8.3162
1808 2 5.40464 7.20619 23.4201 -6.96792
1312 1 7.20619 7.20619 25.2217 -8.26395
1562 2 9.00773 9.00773 25.2217 -6.95614
2807 2 9.00773 7.20619 23.4201 -6.96174
3058 3 7.20619 9.00773 23.4201 -6.56313
43 2 10.8093 9.00773 23.4201 -6.95747
1809 3 10.8093 7.20619 25.2217 -6.45873
2059 1 12.6108 9.00773 25.2217 -8.3107
3809 3 12.6108 7.20619 23.4201 -6.43453
810 3 16.2139 7.20619 23.4201 -6.54047
1059 1 14.4124 9.00773 23.4201 -8.40863
2311 2 14.4124 7.20619 25.2217 -7.01976
2562 3 16.2139 9.00773 25.2217 -6.63033
1810 1 1.80155 10.8093 23.4201 -8.10875
2060 2 0 12.6108 23.4201 -6.94975
2808 2 0 10.8093 25.2217 -6.92243
3060 1 3.60309 12.6108 23.4201 -8.35737
3059 1 1.80155 12.6108 25.2217 -8.11451
3311 2 3.60309 10.8093 25.2217 -6.97477
2809 3 5.40464 10.8093 23.4201 -6.49846
3562 3 5.40464 12.6108 25.2217 -6.53138
45 2 9.00773 12.6108 25.2217 -6.97014
44 2 7.20619 12.6108 23.4201 -6.98928
3811 2 7.20619 10.8093 25.2217 -6.98299
3810 3 9.00773 10.8093 23.4201 -6.60024
515 2 12.6108 12.6108 25.2217 -7.05343
297 3 10.8093 10.8093 25.2217 -6.45325
811 2 12.6108 10.8093 23.4201 -7.01998
1060 1 10.8093 12.6108 23.4201 -8.2259
812 3 14.4124 10.8093 25.2217 -6.59684
1061 2 16.2139 12.6108 25.2217 -7.07314
1811 3 16.2139 10.8093 23.4201 -6.47094
2061 2 14.4124 12.6108 23.4201 -6.96957
46 1 3.60309 16.2139 23.4201 -8.49162
1313 1 0 14.4124 25.2217 -8.36828
1563 3 1.80155 16.2139 25.2217 -6.53992
1812 2 3.60309 14.4124 25.2217 -6.98532
2810 3 1.80155 14.4124 23.4201 -6.42174
3061 3 0 16.2139 23.4201 -6.39158
2062 3 5.40464 16.2139 25.2217 -6.51693
3812 3 5.40464 14.4124 23.4201 -6.48184
813 2 9.00773 14.4124 23.4201 -7.10544
1062 2 7.20619 16.2139 23.4201 -7.01558
2312 1 7.20619 14.4124 25.2217 -8.35131
2563 1 9.00773 16.2139 25.2217 -8.44865
1813 1 12.6108 14.4124 23.4201 -8.13648
2063 2 10.8093 16.2139 23.4201 -7.07075
2811 2 10.8093 14.4124 25.2217 -7.03826
3062 2 12.6108 16.2139 25.2217 -6.963
2812 3 16.2139 14.4124 23.4201 -6.39015
3063 1 14.4124 16.2139 23.4201 -8.21853
3312 2 14.4124 14.4124 25.2217 -7.08764
3563 1 16.2139 16.2139 25.2217 -8.29266
751 1 1.80155 0 30.6263 -8.21066
47 1 0 1.80155 27.0232 -8.01567
298 3 0 0 28.8247 -6.22009
549 3 3.60309 1.80155 27.0232 -6.38943
548 3 1.80155 1.80155 28.8247 -6.2253
1063 3 0 1.80155 30.6263 -6.33593
1316 1 0 3.60309 28.8247 -8.0884
1314 1 3.60309 0 28.8247 -8.12124
1816 2 1.80155 3.60309 30.6263 -6.93159
2064 1 3.60309 1.80155 30.6263 -8.1246
2315 3 3.60309 3.60309 28.8247 -6.35442
2314 1 1.80155 3.60309 27.0232 -8.18175
3813 1 1.80155 0 27.0232 -8.26095
299 1 5.40464 0 27.0232 -8.06556
1564 2 5.40464 1.80155 28.8247 -6.98776
1814 3 5.40464 0 30.6263 -6.43611
2815 1 5.40464 3.60309 30.6263 -8.20277
2814 2 5.40464 3.60309 27.0232 -6.96031
752 2 9.00773 0 27.0232 -7.06019
1064 1 7.20619 1.80155 27.0232 -8.23783
2313 2 7.20619 0 28.8247 -7.07629
2564 2 9.00773 1.80155 28.8247 -7.10137
2813 3 9.00773 0 30.6263 -6.56285
3064 2 7.20619 1.80155 30.6263 -7.03335
3315 2 7.20619 3.60309 28.8247 -7.1065
3314 3 9.00773 3.60309 27.0232 -6.60633
3815 3 9.00773 3.60309 30.6263 -6.66874
754 3 12.6108 3.60309 30.6263 -6.48343
48 3 10.8093 1.80155 30.6263 -6.57918
301 2 10.8093 3.60309 28.8247 -7.00428
1315 2 12.6108 0 27.0232 -7.10414
1565 1 10.8093 1.80155 27.0232 -8.36301
3313 2 10.8093 0 28.8247 -7.12369
3564 1 12.6108 1.80155 28.8247 -8.36596
3816 3 12.6108 3.60309 27.0232 -6.51708