ITEM: TIMESTEP
0
ITEM: NUMBER OF ATOMS
4000
ITEM: BOX BOUNDS pp pp pp
0.0000000000000000e+00 3.5680830000000000e+01
0.0000000000000000e+00 3.5680830000000000e+01
0.0000000000000000e+00 3.5680830000000000e+01
ITEM: ATOMS id type x y z c_peratom
267 2 0 0 0 -7.00926
516 2 1.78404 1.78404 0 -7.00499
767 1 1.78404 0 1.78404 -8.16864
1016 3 0 1.78404 1.78404 -6.36537
1267 1 0 0 3.56808 -7.96382
1268 1 3.56808 0 0 -8.36115
1270 3 0 3.56808 0 -6.38897
1517 2 1.78404 1.78404 3.56808 -6.96703
1768 3 1.78404 3.56808 1.78404 -6.20768
2017 1 3.56808 1.78404 1.78404 -8.17135
2266 1 3.56808 0 3.56808 -8.10728
2268 3 0 3.56808 3.56808 -6.1355
2269 1 3.56808 3.56808 0 -8.29814
3268 1 3.56808 3.56808 3.56808 -8.12066
1518 3 5.35212 1.78404 0 -6.1372
1767 3 5.35212 0 1.78404 -6.31795
2517 1 5.35212 1.78404 3.56808 -8.07188
2767 3 5.35212 3.56808 1.78404 -6.14991
1 2 10.7042 1.78404 1.78404 -7.04707
268 3 10.7042 0 3.56808 -6.38654
270 2 7.13617 3.56808 3.56808 -6.92032
271 2 10.7042 3.56808 0 -7.13721
1271 2 10.7042 3.56808 3.56808 -7.01975
2267 1 7.13617 0 0 -8.70652
2518 2 8.92021 1.78404 0 -7.02823
2766 1 8.92021 0 1.78404 -8.47914
3017 2 7.13617 1.78404 1.78404 -6.93327
3266 2 7.13617 0 3.56808 -6.97648
3269 1 7.13617 3.56808 0 -8.47538
3267 3 10.7042 0 0 -6.59786
3517 3 8.92021 1.78404 3.56808 -6.44032
3768 1 8.92021 3.56808 1.78404 -8.44255
269 2 14.2723 0 0 -7.06095
517 1 12.4883 1.78404 3.56808 -8.47628
769 2 12.4883 3.56808 1.78404 -7.09206
1017 2 14.2723 1.78404 1.78404 -7.03398
1269 2 14.2723 0 3.56808 -7.02966
1272 2 14.2723 3.56808 0 -7.1235
2270 3 14.2723 3.56808 3.56808 -6.54493
3518 1 12.4883 1.78404 0 -8.52082
3767 2 12.4883 0 1.78404 -7.08166
376 3 17.8404 0 0 -6.41954
518 2 16.0564 1.78404 0 -6.98853
768 3 16.0564 0 1.78404 -6.49595
1126 1 17.8404 1.78404 1.78404 -8.52656
1379 3 17.8404 3.56808 0 -6.42697
1376 3 17.8404 0 3.56808 -6.18164
1519 1 16.0564 1.78404 3.56808 -8.3209
1769 1 16.0564 3.56808 1.78404 -8.4302
2393 3 17.8404 3.56808 3.56808 -6.30271
1520 1 1.78404 5.35212 0 -8.2087
2018 1 0 5.35212 1.78404 -8.19309
2519 1 1.78404 5.35212 3.56808 -8.12168
3018 1 3.56808 5.35212 1.78404 -8.36579
2520 3 5.35212 5.35212 0 -6.21213
3519 3 5.35212 5.35212 3.56808 -6.35965
2 1 7.13617 5.35212 1.78404 -8.58925
519 2 8.92021 5.35212 3.56808 -6.95421
1018 3 10.7042 5.35212 1.78404 -6.65032
3520 2 8.92021 5.35212 0 -7.05783
520 2 12.4883 5.35212 0 -7.19253
1521 3 12.4883 5.35212 3.56808 -6.55106
2019 3 14.2723 5.35212 1.78404 -6.56164
1522 2 16.0564 5.35212 0 -7.03561
2002 1 17.8404 5.35212 1.78404 -8.13875
2521 2 16.0564 5.35212 3.56808 -7.01676
3 2 3.56808 8.92021 1.78404 -7.00532
272 2 3.56808 7.13617 3.56808 -7.0515
274 3 0 10.7042 3.56808 -6.30947
275 1 3.56808 10.7042 0 -8.16897
1275 1 3.56808 10.7042 3.56808 -8.29207
2271 1 0 7.13617 0 -8.43238
2522 3 1.78404 8.92021 0 -6.31342
2768 2 1.78404 7.13617 1.78404 -7.08943
3019 2 0 8.92021 1.78404 -6.86882
3273 3 0 10.7042 0 -6.33091
3271 2 3.56808 7.13617 0 -6.89568
3270 1 0 7.13617 3.56808 -8.4269
3521 3 1.78404 8.92021 3.56808 -6.48295
3770 3 1.78404 10.7042 1.78404 -6.36196
521 2 5.35212 8.92021 3.56808 -7.02525
771 1 5.35212 10.7042 1.78404 -8.07764
3522 1 5.35212 8.92021 0 -8.33605
3769 2 5.35212 7.13617 1.78404 -6.98637
273 3 7.13617 7.13617 0 -6.44091
522 2 8.92021 8.92021 0 -6.92313
770 3 8.92021 7.13617 1.78404 -6.44759
1019 3 7.13617 8.92021 1.78404 -6.46309
1276 1 7.13617 10.7042 0 -8.24185
1274 2 10.7042 7.13617 0 -7.08308
1273 3 7.13617 7.13617 3.56808 -6.53978
1523 3 8.92021 8.92021 3.56808 -6.36924
1771 1 8.92021 10.7042 1.78404 -8.34905
2020 1 10.7042 8.92021 1.78404 -8.09418
2272 1 10.7042 7.13617 3.56808 -8.40285
2275 1 10.7042 10.7042 0 -8.28076
2274 2 7.13617 10.7042 3.56808 -6.91739
3274 1 10.7042 10.7042 3.56808 -8.19229
276 3 14.2723 10.7042 3.56808 -6.52061
1524 1 12.4883 8.92021 0 -8.3305
1770 2 12.4883 7.13617 1.78404 -7.06576
2273 2 14.2723 7.13617 0 -7.04624
2523 1 12.4883 8.92021 3.56808 -8.20424
2770 2 12.4883 10.7042 1.78404 -7.02548
3020 2 14.2723 8.92021 1.78404 -6.96207
3275 1 14.2723 10.7042 0 -8.24467
3272 1 14.2723 7.13617 3.56808 -8.46498
383 3 17.8404 10.7042 3.56808 -6.39466
2396 1 17.8404 7.13617 0 -8.29506
2524 1 16.0564 8.92021 0 -8.16968
2769 1 16.0564 7.13617 1.78404 -8.19381
3144 1 17.8404 8.92021 1.78404 -8.23702
3398 1 17.8404 10.7042 0 -8.1916
3395 2 17.8404 7.13617 3.56808 -7.04062
3523 3 16.0564 8.92021 3.56808 -6.52305
3771 3 16.0564 10.7042 1.78404 -6.32898
4 1 0 12.4883 1.78404 -8.42893
277 1 0 14.2723 0 -8.48964
523 3 1.78404 12.4883 3.56808 -6.15749
772 1 1.78404 14.2723 1.78404 -7.96108
1020 1 3.56808 12.4883 1.78404 -8.11826
1278 1 3.56808 14.2723 0 -8.1629
1277 2 0 14.2723 3.56808 -6.95312
2276 2 3.56808 14.2723 3.56808 -6.95875
3524 2 1.78404 12.4883 0 -6.90125
524 1 5.35212 12.4883 0 -8.13201
1525 1 5.35212 12.4883 3.56808 -8.16361
1772 3 5.35212 14.2723 1.78404 -6.15079
278 3 10.7042 14.2723 3.56808 -6.69161
1526 3 8.92021 12.4883 0 -6.26205
2021 3 7.13617 12.4883 1.78404 -6.252
2277 3 7.13617 14.2723 0 -6.358
2525 2 8.92021 12.4883 3.56808 -6.99023
2771 2 8.92021 14.2723 1.78404 -6.98333
3021 2 10.7042 12.4883 1.78404 -7.00582
3277 1 10.7042 14.2723 0 -8.25741
3276 1 7.13617 14.2723 3.56808 -8.42928
5 3 14.2723 12.4883 1.78404 -6.43815
279 1 14.2723 14.2723 0 -8.25535
1279 3 14.2723 14.2723 3.56808 -6.38646
2526 2 12.4883 12.4883 0 -7.02211
3525 1 12.4883 12.4883 3.56808 -8.68447
3772 2 12.4883 14.2723 1.78404 -7.02067
129 1 17.8404 12.4883 1.78404 -8.49231
386 1 17.8404 14.2723 0 -8.41932
525 3 16.0564 12.4883 3.56808 -6.41797
773 2 16.0564 14.2723 1.78404 -6.91543
1386 3 17.8404 14.2723 3.56808 -6.37645
3526 2 16.0564 12.4883 0 -6.97424
314 1 3.56808 17.8404 3.56808 -8.2067
526 1 1.78404 16.0564 0 -8.29714
1021 2 0 16.0564 1.78404 -6.96384
1527 1 1.78404 16.0564 3.56808 -8.01708
2022 1 3.56808 16.0564 1.78404 -8.19263
2328 2 0 17.8404 0 -6.96408
2828 1 1.78404 17.8404 1.78404 -8.07308
3329 3 3.56808 17.8404 0 -6.17085
3328 2 0 17.8404 3.56808 -6.90773
1528 3 5.35212 16.0564 0 -6.37063
2527 1 5.35212 16.0564 3.56808 -8.1889
3829 3 5.35212 17.8404 1.78404 -6.30757
6 2 10.7042 16.0564 1.78404 -7.05248
315 2 7.13617 17.8404 0 -6.95929
814 3 8.92021 17.8404 1.78404 -6.46077
1331 2 10.7042 17.8404 0 -6.9528
1330 1 7.13617 17.8404 3.56808 -8.56449
2329 2 10.7042 17.8404 3.56808 -7.03813
2528 1 8.92021 16.0564 0 -8.55039
3022 3 7.13617 16.0564 1.78404 -6.38261
3527 2 8.92021 16.0564 3.56808 -7.03102
527 3 12.4883 16.0564 3.56808 -6.46972
1022 2 14.2723 16.0564 1.78404 -6.96638
1830 1 12.4883 17.8404 1.78404 -8.179
2330 1 14.2723 17.8404 0 -8.28522
3330 1 14.2723 17.8404 3.56808 -8.04422
3528 2 12.4883 16.0564 0 -6.97098
528 1 16.0564 16.0564 0 -8.31449
1131 3 17.8404 16.0564 1.78404 -6.26116
1529 1 16.0564 16.0564 3.56808 -8.30082
2438 2 17.8404 17.8404 0 -6.92309
2829 3 16.0564 17.8404 1.78404 -6.08117
3453 1 17.8404 17.8404 3.56808 -8.24165
775 3 0 3.56808 7.13617 -6.35466
1280 2 3.56808 3.56808 7.13617 -6.8728
1773 1 1.78404 0 5.35212 -8.11411
2023 1 0 1.78404 5.35212 -8.13106
2278 3 0 0 7.13617 -6.42368
2529 3 1.78404 1.78404 7.13617 -6.32469
2774 1 1.78404 3.56808 5.35212 -8.40596
2773 1 3.56808 0 7.13617 -8.45115
3023 2 3.56808 1.78404 5.35212 -6.96083
2772 1 5.35212 0 5.35212 -8.19563
3024 3 5.35212 1.78404 7.13617 -6.23499
3775 1 5.35212 3.56808 5.35212 -8.20757
7 1 7.13617 1.78404 5.35212 -8.22291
776 2 8.92021 3.56808 5.35212 -6.90429
1023 2 10.7042 1.78404 5.35212 -6.9587
1775 1 7.13617 3.56808 7.13617 -8.21317
2279 3 10.7042 3.56808 7.13617 -6.44741
3278 2 7.13617 0 7.13617 -6.95026
3529 3 8.92021 1.78404 7.13617 -6.25197
3774 2 10.7042 0 7.13617 -6.99781
3773 1 8.92021 0 5.35212 -8.3814
8 3 12.4883 1.78404 7.13617 -6.60614
280 3 14.2723 0 7.13617 -6.43965
774 1 12.4883 0 5.35212 -8.57889
1776 3 12.4883 3.56808 5.35212 -6.59699
2024 2 14.2723 1.78404 5.35212 -6.99643
2776 2 14.2723 3.56808 7.13617 -7.005
529 3 16.0564 1.78404 7.13617 -6.37389
884 1 17.8404 3.56808 7.13617 -8.27725
1774 1 16.0564 0 5.35212 -8.22768
2007 1 17.8404 1.78404 5.35212 -8.27458
2403 2 17.8404 0 7.13617 -7.05
2775 2 16.0564 3.56808 5.35212 -6.9815
9 2 3.56808 5.35212 5.35212 -7.01344
1024 3 1.78404 5.35212 7.13617 -6.50559
3025 2 0 5.35212 5.35212 -6.94115
1530 3 5.35212 5.35212 7.13617 -6.48845
1025 1 7.13617 5.35212 5.35212 -8.60677
2026 1 10.7042 5.35212 5.35212 -8.56597
2025 3 8.92021 5.35212 7.13617 -6.36033
2530 3 12.4883 5.35212 7.13617 -6.59675
3026 3 14.2723 5.35212 5.35212 -6.66222
3150 2 17.8404 5.35212 5.35212 -7.02163
3027 3 16.0564 5.35212 7.13617 -6.5943
10 3 0 8.92021 5.35212 -6.4373
779 1 1.78404 10.7042 5.35212 -8.43472
1026 2 3.56808 8.92021 5.35212 -7.00443
1778 2 0 10.7042 7.13617 -7.00354
2280 3 3.56808 10.7042 7.13617 -6.33681
3279 3 0 7.13617 7.13617 -6.61573
3530 1 1.78404 8.92021 7.13617 -8.32808
3777 2 3.56808 7.13617 7.13617 -7.0537
3776 2 1.78404 7.13617 5.35212 -6.96957
11 3 5.35212 8.92021 7.13617 -6.57011
777 3 5.35212 7.13617 5.35212 -6.64743
1779 3 5.35212 10.7042 5.35212 -6.36879
281 2 7.13617 7.13617 7.13617 -6.88238
530 3 8.92021 8.92021 7.13617 -6.26569
778 1 10.7042 7.13617 7.13617 -8.41772
1777 3 8.92021 7.13617 5.35212 -6.3162
2027 3 7.13617 8.92021 5.35212 -6.59417
2779 1 7.13617 10.7042 7.13617 -8.43182
2778 2 8.92021 10.7042 5.35212 -6.95139
3028 1 10.7042 8.92021 5.35212 -8.23718
3280 1 10.7042 10.7042 7.13617 -8.35391
12 2 14.2723 8.92021 5.35212 -6.98211
1027 2 12.4883 8.92021 7.13617 -7.03264
1281 2 14.2723 7.13617 7.13617 -7.07656
2777 2 12.4883 7.13617 5.35212 -7.02644
3780 1 14.2723 10.7042 7.13617 -8.5262
3779 3 12.4883 10.7042 5.35212 -6.25244
135 2 17.8404 8.92021 5.35212 -7.14996
780 3 16.0564 10.7042 5.35212 -6.54248
1531 2 16.0564 8.92021 7.13617 -7.1277
1887 2 17.8404 10.7042 7.13617 -7.00146
3404 2 17.8404 7.13617 7.13617 -7.14217
3778 2 16.0564 7.13617 5.35212 -7.15351
282 3 0 14.2723 7.13617 -6.32175
781 1 3.56808 14.2723 7.13617 -8.26471
1028 2 0 12.4883 5.35212 -6.84435
1780 1 1.78404 14.2723 5.35212 -8.28046
2029 1 3.56808 12.4883 5.35212 -8.15699
2028 3 1.78404 12.4883 7.13617 -6.27554
2531 1 5.35212 12.4883 7.13617 -8.20415
2780 1 5.35212 14.2723 5.35212 -8.0202
13 3 10.7042 12.4883 5.35212 -6.41953
1282 2 7.13617 14.2723 7.13617 -6.96776
1781 2 10.7042 14.2723 7.13617 -7.03871
3030 1 8.92021 12.4883 7.13617 -8.35672
3029 2 7.13617 12.4883 5.35212 -7.00253
3781 2 8.92021 14.2723 5.35212 -7.05179
782 3 12.4883 14.2723 5.35212 -6.47277
1029 3 14.2723 12.4883 5.35212 -6.35384
2281 1 14.2723 14.2723 7.13617 -8.49033
3531 3 12.4883 12.4883 7.13617 -6.35589
14 3 16.0564 12.4883 7.13617 -6.27999
391 3 17.8404 14.2723 7.13617 -6.37289
1138 1 17.8404 12.4883 5.35212 -8.71619
1782 1 16.0564 14.2723 5.35212 -8.45834
326 3 0 17.8404 7.13617 -6.57379
531 2 1.78404 16.0564 7.13617 -6.95307
821 1 3.56808 17.8404 7.13617 -8.60096
2030 1 0 16.0564 5.35212 -8.3353
3031 2 3.56808 16.0564 5.35212 -7.01594
3835 2 1.78404 17.8404 5.35212 -6.93813
820 2 5.35212 17.8404 5.35212 -6.91584
1030 1 5.35212 16.0564 7.13617 -8.25886
15 3 7.13617 16.0564 5.35212 -6.33646
1031 2 10.7042 16.0564 5.35212 -7.06411
1342 2 7.13617 17.8404 7.13617 -6.91773
1532 1 8.92021 16.0564 7.13617 -8.52957
1837 2 10.7042 17.8404 7.13617 -7.05794
1836 3 8.92021 17.8404 5.35212 -6.55802
2032 1 14.2723 16.0564 5.35212 -8.24415
2031 3 12.4883 16.0564 7.13617 -6.5994
2341 2 14.2723 17.8404 7.13617 -7.02022
2835 1 12.4883 17.8404 5.35212 -8.34692
451 2 17.8404 17.8404 7.13617 -6.94549
2014 3 17.8404 16.0564 5.35212 -6.29637
2532 3 16.0564 16.0564 7.13617 -6.4768
3836 1 16.0564 17.8404 5.35212 -8.33718
251 1 3.56808 0 10.7042 -8.44905
253 3 0 3.56808 10.7042 -6.4531
16 2 0 1.78404 12.4883 -7.02218
785 1 1.78404 3.56808 12.4883 -8.52558
1032 1 3.56808 1.78404 12.4883 -8.39274
1285 2 3.56808 3.56808 10.7042 -7.00552
1284 1 1.78404 3.56808 8.92021 -8.76252
2781 3 1.78404 0 8.92021 -6.51941
3032 3 0 1.78404 8.92021 -6.44124
3281 3 0 0 10.7042 -6.52833
3533 2 3.56808 1.78404 8.92021 -6.98057
3532 2 1.78404 1.78404 10.7042 -7.00904
3782 2 1.78404 0 12.4883 -7.09633
532 2 5.35212 1.78404 10.7042 -7.02004
783 2 5.35212 0 12.4883 -6.97485
1785 2 5.35212 3.56808 12.4883 -6.95294
1784 1 5.35212 3.56808 8.92021 -8.35757
3282 2 5.35212 0 8.92021 -6.96596
17 1 7.13617 1.78404 8.92021 -8.24747
533 1 10.7042 1.78404 8.92021 -8.59468
1283 3 7.13617 0 10.7042 -6.3004
1533 1 8.92021 1.78404 10.7042 -8.01161
1783 1 8.92021 0 12.4883 -8.4339
2033 1 7.13617 1.78404 12.4883 -8.32417
2284 2 7.13617 3.56808 10.7042 -7.03483
2283 1 8.92021 3.56808 8.92021 -8.37777
2282 3 10.7042 0 10.7042 -6.39597
2783 1 8.92021 3.56808 12.4883 -8.44759
3033 2 10.7042 1.78404 12.4883 -6.86357
3284 2 10.7042 3.56808 10.7042 -6.96386
3783 1 8.92021 0 8.92021 -8.38946
252 2 12.4883 0 8.92021 -6.93871
254 3 14.2723 3.56808 10.7042 -6.48491
18 3 14.2723 1.78404 12.4883 -6.54131
1033 2 14.2723 1.78404 8.92021 -6.9738
2533 3 12.4883 1.78404 10.7042 -6.61549
2784 3 12.4883 3.56808 8.92021 -6.64573
2782 3 12.4883 0 12.4883 -6.58447
3283 3 14.2723 0 10.7042 -6.52979
3785 3 12.4883 3.56808 12.4883 -6.55269
394 1 17.8404 3.56808 10.7042 -8.1325
141 3 17.8404 1.78404 12.4883 -6.18749
786 1 16.0564 3.56808 12.4883 -8.52886
784 2 16.0564 0 8.92021 -6.9107
3157 1 17.8404 1.78404 8.92021 -8.11929
3406 1 17.8404 0 10.7042 -8.26937
3285 1 16.0564 3.56808 8.92021 -8.35734
3534 2 16.0564 1.78404 10.7042 -6.96037
3784 3 16.0564 0 12.4883 -6.45027
534 2 1.78404 5.35212 10.7042 -6.92219
1034 2 0 5.35212 12.4883 -6.90418
1534 2 0 5.35212 8.92021 -6.9983
2035 3 3.56808 5.35212 12.4883 -6.44581
2034 3 3.56808 5.35212 8.92021 -6.44043
1535 1 5.35212 5.35212 10.7042 -8.40103
19 3 10.7042 5.35212 12.4883 -6.38659
2535 3 8.92021 5.35212 10.7042 -6.38542
2534 2 7.13617 5.35212 8.92021 -6.95974
3035 2 10.7042 5.35212 8.92021 -6.92174
3034 1 7.13617 5.35212 12.4883 -8.16144
1035 3 14.2723 5.35212 12.4883 -6.41588
3536 3 14.2723 5.35212 8.92021 -6.59287
3535 3 12.4883 5.35212 10.7042 -6.6121
535 1 16.0564 5.35212 10.7042 -8.45393
1144 3 17.8404 5.35212 12.4883 -6.43142
1643 1 17.8404 5.35212 8.92021 -8.29595
20 2 0 8.92021 8.92021 -7.06091
536 2 3.56808 8.92021 8.92021 -6.96959
1286 3 0 7.13617 10.7042 -6.50072
1536 1 1.78404 8.92021 10.7042 -8.31577
1786 3 1.78404 7.13617 12.4883 -6.49922
2036 2 0 8.92021 12.4883 -6.90607
2287 2 0 10.7042 10.7042 -6.98357
2286 1 1.78404 10.7042 8.92021 -8.37034
2285 3 3.56808 7.13617 10.7042 -6.3139
2786 1 1.78404 10.7042 12.4883 -8.26224
3036 1 3.56808 8.92021 12.4883 -8.28261
3287 3 3.56808 10.7042 10.7042 -6.36586
3786 1 1.78404 7.13617 8.92021 -8.53704
255 3 5.35212 7.13617 8.92021 -6.57851
2536 2 5.35212 8.92021 10.7042 -6.9261
2787 3 5.35212 10.7042 8.92021 -6.45064
2785 1 5.35212 7.13617 12.4883 -8.16242
3788 2 5.35212 10.7042 12.4883 -6.94003
256 3 10.7042 7.13617 10.7042 -6.42544
257 2 7.13617 10.7042 10.7042 -7.00434
21 1 7.13617 8.92021 12.4883 -8.15186
789 2 8.92021 10.7042 12.4883 -6.97118
787 2 8.92021 7.13617 8.92021 -6.98046
1037 2 10.7042 8.92021 12.4883 -6.96574
1036 1 7.13617 8.92021 8.92021 -8.52895
1289 2 10.7042 10.7042 10.7042 -6.9731
1537 1 10.7042 8.92021 8.92021 -8.32875
3288 3 8.92021 10.7042 8.92021 -6.2648
3286 2 7.13617 7.13617 10.7042 -7.03273
3537 1 8.92021 8.92021 10.7042 -8.19999
3787 1 8.92021 7.13617 12.4883 -8.294
537 3 12.4883 8.92021 10.7042 -6.42973
788 1 12.4883 7.13617 12.4883 -8.62143
1288 2 14.2723 7.13617 10.7042 -6.9816
1287 2 12.4883 7.13617 8.92021 -6.97719
1789 3 12.4883 10.7042 12.4883 -6.52983
2038 2 14.2723 8.92021 12.4883 -6.95421
2037 1 14.2723 8.92021 8.92021 -8.53973
2288 3 14.2723 10.7042 10.7042 -6.38823
3789 1 12.4883 10.7042 8.92021 -8.22277
258 3 16.0564 10.7042 8.92021 -6.39997
145 2 17.8404 8.92021 8.92021 -7.06341
1395 2 17.8404 7.13617 10.7042 -6.95986
1538 2 16.0564 8.92021 10.7042 -7.01219
1788 3 16.0564 7.13617 12.4883 -6.6641
1787 3 16.0564 7.13617 8.92021 -6.57229
2145 3 17.8404 8.92021 12.4883 -6.55932
2256 3 17.8404 10.7042 10.7042 -6.32686
2788 1 16.0564 10.7042 12.4883 -8.46274
259 2 3.56808 14.2723 10.7042 -6.96435
22 1 3.56808 12.4883 12.4883 -8.24113
790 3 1.78404 14.2723 8.92021 -6.40387
2538 3 1.78404 12.4883 10.7042 -6.30069
2537 1 0 12.4883 8.92021 -8.45473
3038 2 3.56808 12.4883 8.92021 -6.91897
3037 2 0 12.4883 12.4883 -6.92074
3289 1 0 14.2723 10.7042 -8.36697
3790 1 1.78404 14.2723 12.4883 -8.21675
791 1 5.35212 14.2723 12.4883 -8.46397
1290 2 5.35212 14.2723 8.92021 -6.9915
3538 2 5.35212 12.4883 10.7042 -7.01626
23 2 10.7042 12.4883 8.92021 -6.97719
538 2 8.92021 12.4883 10.7042 -6.99138
1038 3 7.13617 12.4883 12.4883 -6.46396
1291 1 7.13617 14.2723 10.7042 -8.20852
1791 1 8.92021 14.2723 12.4883 -8.38337
1790 3 8.92021 14.2723 8.92021 -6.51083
2039 1 10.7042 12.4883 12.4883 -8.54132
2290 3 10.7042 14.2723 10.7042 -6.61178
3539 1 7.13617 12.4883 8.92021 -8.30948
539 1 14.2723 12.4883 8.92021 -8.35302
1539 3 12.4883 12.4883 10.7042 -6.48711
2289 2 12.4883 14.2723 8.92021 -7.05786
2789 2 12.4883 14.2723 12.4883 -6.99096
3039 2 14.2723 12.4883 12.4883 -6.9374
3290 2 14.2723 14.2723 10.7042 -7.05575
2662 1 17.8404 12.4883 8.92021 -8.50042
2539 1 16.0564 12.4883 10.7042 -8.32881
2790 2 16.0564 14.2723 8.92021 -7.00255
3162 2 17.8404 12.4883 12.4883 -6.94905
3414 3 17.8404 14.2723 10.7042 -6.39418
3791 2 16.0564 14.2723 12.4883 -6.99065
24 1 0 16.0564 12.4883 -8.14771
829 3 1.78404 17.8404 8.92021 -6.58435
1040 3 3.56808 16.0564 12.4883 -6.34137
1039 2 0 16.0564 8.92021 -6.96938
1251 2 0 17.8404 10.7042 -7.03827
1540 3 3.56808 16.0564 8.92021 -6.31134
1845 1 1.78404 17.8404 12.4883 -8.2311
2344 2 3.56808 17.8404 10.7042 -6.89736
3540 1 1.78404 16.0564 10.7042 -8.40137
540 1 5.35212 16.0564 10.7042 -8.41348
1252 1 5.35212 17.8404 8.92021 -8.46683
2844 3 5.35212 17.8404 12.4883 -6.57277
330 3 10.7042 17.8404 10.7042 -6.68307
1541 2 8.92021 16.0564 10.7042 -6.95326
1846 1 8.92021 17.8404 8.92021 -8.65103
2041 2 7.13617 16.0564 12.4883 -6.99005
2040 2 7.13617 16.0564 8.92021 -7.00536
2540 2 10.7042 16.0564 8.92021 -7.10605
3040 3 10.7042 16.0564 12.4883 -6.55995
3344 3 7.13617 17.8404 10.7042 -6.50503
3845 2 8.92021 17.8404 12.4883 -7.0003
25 3 14.2723 16.0564 12.4883 -6.52621
830 3 12.4883 17.8404 12.4883 -6.66237
1253 2 14.2723 17.8404 10.7042 -7.10177
2345 2 12.4883 17.8404 8.92021 -7.16117
2541 3 12.4883 16.0564 10.7042 -6.77802
3041 2 14.2723 16.0564 8.92021 -7.09185
149 2 17.8404 16.0564 12.4883 -7.03385
1149 2 17.8404 16.0564 8.92021 -7.04222
1454 2 17.8404 17.8404 10.7042 -7.00983
1847 1 16.0564 17.8404 12.4883 -8.35256
2845 2 16.0564 17.8404 8.92021 -7.10153
3541 1 16.0564 16.0564 10.7042 -8.45326
260 2 0 0 14.2723 -7.10378
541 3 1.78404 1.78404 14.2723 -6.39454
792 2 1.78404 0 16.0564 -7.00465
1041 1 0 1.78404 16.0564 -8.13475
1298 1 0 0 17.8404 -8.09012
1293 1 0 3.56808 14.2723 -8.23879
1292 2 3.56808 0 14.2723 -7.04592
1548 3 1.78404 1.78404 17.8404 -6.34761
1793 1 1.78404 3.56808 16.0564 -8.46137
2042 2 3.56808 1.78404 16.0564 -6.96695
2300 1 0 3.56808 17.8404 -8.22074
2298 2 3.56808 0 17.8404 -7.03317
2292 3 3.56808 3.56808 14.2723 -6.49143
3300 1 3.56808 3.56808 17.8404 -8.40199
1542 2 5.35212 1.78404 14.2723 -7.02006
1792 1 5.35212 0 16.0564 -8.13341
2549 1 5.35212 1.78404 17.8404 -8.38903
2792 3 5.35212 3.56808 16.0564 -6.41917
262 3 10.7042 3.56808 14.2723 -6.23319
286 3 7.13617 3.56808 17.8404 -6.19387
284 2 10.7042 0 17.8404 -6.99424
26 3 10.7042 1.78404 16.0564 -6.22296
1302 3 10.7042 3.56808 17.8404 -6.12964
2291 1 7.13617 0 14.2723 -8.06911
2542 3 8.92021 1.78404 14.2723 -6.25075
2791 1 8.92021 0 16.0564 -8.29653
3042 2 7.13617 1.78404 16.0564 -6.99046
3298 1 7.13617 0 17.8404 -8.15474
3292 3 7.13617 3.56808 14.2723 -6.31586
3291 2 10.7042 0 14.2723 -6.93125
3549 1 8.92021 1.78404 17.8404 -8.16984
3793 1 8.92021 3.56808 16.0564 -8.44674
261 2 14.2723 0 14.2723 -6.91322
502 1 12.4883 1.78404 17.8404 -8.48272
794 1 12.4883 3.56808 16.0564 -8.1866
1042 2 14.2723 1.78404 16.0564 -6.95945
1300 2 14.2723 0 17.8404 -6.99741
1294 2 14.2723 3.56808 14.2723 -6.94392
2302 2 14.2723 3.56808 17.8404 -6.95393
3542 1 12.4883 1.78404 14.2723 -8.61987
3792 3 12.4883 0 16.0564 -6.62936
401 1 17.8404 0 14.2723 -8.46563
542 3 16.0564 1.78404 14.2723 -6.49851
793 3 16.0564 0 16.0564 -6.42883
1151 3 17.8404 1.78404 16.0564 -6.25476
1407 1 17.8404 0 17.8404 -8.40024
1402 2 17.8404 3.56808 14.2723 -6.90308
1550 1 16.0564 1.78404 17.8404 -8.38657
1794 3 16.0564 3.56808 16.0564 -6.49938
2410 1 17.8404 3.56808 17.8404 -8.41645
1543 3 1.78404 5.35212 14.2723 -6.37104
2043 3 0 5.35212 16.0564 -6.21888
2551 3 1.78404 5.35212 17.8404 -6.37954
3043 3 3.56808 5.35212 16.0564 -6.48702
2543 2 5.35212 5.35212 14.2723 -6.92533
3551 1 5.35212 5.35212 17.8404 -8.42177
27 1 7.13617 5.35212 16.0564 -8.36001
504 2 8.92021 5.35212 17.8404 -6.93663
1043 1 10.7042 5.35212 16.0564 -8.34107
3543 2 8.92021 5.35212 14.2723 -6.95961
543 1 12.4883 5.35212 14.2723 -8.32267
1552 3 12.4883 5.35212 17.8404 -6.28535
2044 1 14.2723 5.35212 16.0564 -8.43305
1544 2 16.0564 5.35212 14.2723 -6.98414
2152 2 17.8404 5.35212 16.0564 -6.97594
2553 3 16.0564 5.35212 17.8404 -6.25783
264 1 3.56808 10.7042 14.2723 -7.96174
290 1 0 10.7042 17.8404 -8.25268
288 2 3.56808 7.13617 17.8404 -7.0484
28 2 3.56808 8.92021 16.0564 -7.03019
1306 2 3.56808 10.7042 17.8404 -6.97057
2293 1 0 7.13617 14.2723 -8.52681
2544 2 1.78404 8.92021 14.2723 -6.9223
2793 2 1.78404 7.13617 16.0564 -6.96688
3044 1 0 8.92021 16.0564 -8.24193
3302 1 0 7.13617 17.8404 -8.43299
3294 3 0 10.7042 14.2723 -6.25045
3293 3 3.56808 7.13617 14.2723 -6.46407
3553 3 1.78404 8.92021 17.8404 -6.33531
3795 1 1.78404 10.7042 16.0564 -8.25619
506 2 5.35212 8.92021 17.8404 -7.02692
796 1 5.35212 10.7042 16.0564 -8.34922
3544 1 5.35212 8.92021 14.2723 -8.18128
3794 3 5.35212 7.13617 16.0564 -6.43501
263 1 7.13617 7.13617 14.2723 -8.00432
544 1 8.92021 8.92021 14.2723 -8.1368
795 2 8.92021 7.13617 16.0564 -7.03491
1044 2 7.13617 8.92021 16.0564 -6.96723
1304 2 7.13617 7.13617 17.8404 -6.9882
1296 3 7.13617 10.7042 14.2723 -6.26271
1295 2 10.7042 7.13617 14.2723 -7.00689
1554 2 8.92021 8.92021 17.8404 -6.9742
1796 1 8.92021 10.7042 16.0564 -8.41313
2045 1 10.7042 8.92021 16.0564 -8.37634
2306 3 7.13617 10.7042 17.8404 -6.19543
2304 2 10.7042 7.13617 17.8404 -6.97902
2295 2 10.7042 10.7042 14.2723 -6.93085
3306 3 10.7042 10.7042 17.8404 -6.27377
292 2 14.2723 10.7042 17.8404 -6.94333
1545 3 12.4883 8.92021 14.2723 -6.38604
1795 2 12.4883 7.13617 16.0564 -6.89484
2294 2 14.2723 7.13617 14.2723 -7.00547
2555 3 12.4883 8.92021 17.8404 -6.29947
2795 1 12.4883 10.7042 16.0564 -8.39757
3045 1 14.2723 8.92021 16.0564 -8.48435
3304 3 14.2723 7.13617 17.8404 -6.20213
3295 1 14.2723 10.7042 14.2723 -8.37987
415 1 17.8404 10.7042 17.8404 -8.40733
2262 2 17.8404 7.13617 14.2723 -7.04577
2545 2 16.0564 8.92021 14.2723 -7.00872
2794 1 16.0564 7.13617 16.0564 -8.46613
3169 2 17.8404 8.92021 16.0564 -6.97432
3427 3 17.8404 7.13617 17.8404 -6.3135
3419 3 17.8404 10.7042 14.2723 -6.48218
3555 3 16.0564 8.92021 17.8404 -6.33264
3796 3 16.0564 10.7042 16.0564 -6.41571
265 2 0 14.2723 14.2723 -6.98251
29 3 0 12.4883 16.0564 -6.37357
508 2 1.78404 12.4883 17.8404 -6.96952
797 2 1.78404 14.2723 16.0564 -6.94762
1045 2 3.56808 12.4883 16.0564 -6.98211
1308 2 0 14.2723 17.8404 -6.95354
1297 2 3.56808 14.2723 14.2723 -6.90626
2308 1 3.56808 14.2723 17.8404 -8.52289
3545 1 1.78404 12.4883 14.2723 -8.2094
545 3 5.35212 12.4883 14.2723 -6.22215
1556 2 5.35212 12.4883 17.8404 -6.95379
1797 1 5.35212 14.2723 16.0564 -8.55011
294 3 10.7042 14.2723 17.8404 -6.47095
1546 3 8.92021 12.4883 14.2723 -6.23048
2046 1 7.13617 12.4883 16.0564 -8.28542
2296 3 7.13617 14.2723 14.2723 -6.19681
2557 1 8.92021 12.4883 17.8404 -8.39684
2796 1 8.92021 14.2723 16.0564 -8.45883
3046 3 10.7042 12.4883 16.0564 -6.3044
3308 3 7.13617 14.2723 17.8404 -6.24051
3296 1 10.7042 14.2723 14.2723 -8.3931
266 1 14.2723 14.2723 14.2723 -8.66007
30 1 14.2723 12.4883 16.0564 -8.46487
1310 2 14.2723 14.2723 17.8404 -7.03547
2546 3 12.4883 12.4883 14.2723 -6.30076
3557 2 12.4883 12.4883 17.8404 -7.03047
3797 2 12.4883 14.2723 16.0564 -6.94135
406 1 17.8404 14.2723 14.2723 -8.36322
154 2 17.8404 12.4883 16.0564 -6.94086
510 3 16.0564 12.4883 17.8404 -6.4841
798 3 16.0564 14.2723 16.0564 -6.53858
1417 3 17.8404 14.2723 17.8404 -6.57054
3546 3 16.0564 12.4883 14.2723 -6.37556
346 1 3.56808 17.8404 17.8404 -8.46062
546 3 1.78404 16.0564 14.2723 -6.1786
1046 1 0 16.0564 16.0564 -8.27083
1558 3 1.78404 16.0564 17.8404 -6.39023
2047 1 3.56808 16.0564 16.0564 -8.34824
2353 1 0 17.8404 14.2723 -7.99886
2853 1 1.78404 17.8404 16.0564 -8.26601
3359 3 0 17.8404 17.8404 -6.3854
3353 3 3.56808 17.8404 14.2723 -6.28655
1547 3 5.35212 16.0564 14.2723 -6.42927
2559 3 5.35212 16.0564 17.8404 -6.2768
3854 2 5.35212 17.8404 16.0564 -6.91445
339 2 7.13617 17.8404 14.2723 -7.02327
31 3 10.7042 16.0564 16.0564 -6.53787
839 3 8.92021 17.8404 16.0564 -6.526
1261 2 10.7042 17.8404 14.2723 -6.96069
1346 1 7.13617 17.8404 17.8404 -8.7189
2361 2 10.7042 17.8404 17.8404 -7.0221
2547 1 8.92021 16.0564 14.2723 -8.49776
3047 3 7.13617 16.0564 16.0564 -6.39538
3559 2 8.92021 16.0564 17.8404 -6.88445
512 3 12.4883 16.0564 17.8404 -6.69326
1047 3 14.2723 16.0564 16.0564 -6.59582
1855 3 12.4883 17.8404 16.0564 -6.57119
2354 1 14.2723 17.8404 14.2723 -8.54212
3361 3 14.2723 17.8404 17.8404 -6.58041
3547 2 12.4883 16.0564 14.2723 -6.91134
547 2 16.0564 16.0564 14.2723 -6.95187
1156 2 17.8404 16.0564 16.0564 -7.06127
1560 2 16.0564 16.0564 17.8404 -7.06772
2463 2 17.8404 17.8404 14.2723 -6.9703
2854 3 16.0564 17.8404 16.0564 -6.5547
3469 3 17.8404 17.8404 17.8404 -6.75729
285 2 3.56808 3.56808 21.4085 -6.98925
1798 2 1.78404 0 19.6245 -7.09679
2048 1 0 1.78404 19.6245 -8.25025
2297 3 0 0 21.4085 -6.41242
2548 2 1.78404 1.78404 21.4085 -7.0488
2798 2 1.78404 3.56808 19.6245 -7.00144
3048 3 3.56808 1.78404 19.6245 -6.55311
3299 1 0 3.56808 21.4085 -8.37444
3297 2 3.56808 0 21.4085 -7.1293
2797 2 5.35212 0 19.6245 -7.04962
3548 1 5.35212 1.78404 21.4085 -8.55233
3799 2 5.35212 3.56808 19.6245 -6.96365
501 1 8.92021 1.78404 21.4085 -7.97759
32 3 7.13617 1.78404 19.6245 -6.14282
283 2 7.13617 0 21.4085 -7.00651
800 1 8.92021 3.56808 19.6245 -8.10939
1048 1 10.7042 1.78404 19.6245 -8.17119
1301 1 7.13617 3.56808 21.4085 -7.99264
1299 1 10.7042 0 21.4085 -8.06968
2301 2 10.7042 3.56808 21.4085 -6.94132
3798 1 8.92021 0 19.6245 -8.087
799 3 12.4883 0 19.6245 -6.55311
1549 2 12.4883 1.78404 21.4085 -6.98476
1800 3 12.4883 3.56808 19.6245 -6.37407
2049 2 14.2723 1.78404 19.6245 -6.97623
2299 3 14.2723 0 21.4085 -6.58893
3301 3 14.2723 3.56808 21.4085 -6.3805
1799 3 16.0564 0 19.6245 -6.47097
2157 1 17.8404 1.78404 19.6245 -8.08173
2407 1 17.8404 0 21.4085 -8.25792
2550 2 16.0564 1.78404 21.4085 -6.99924
2799 2 16.0564 3.56808 19.6245 -6.99812
3424 1 17.8404 3.56808 21.4085 -8.14641
33 2 3.56808 5.35212 19.6245 -7.01837
3049 2 0 5.35212 19.6245 -6.9684
3550 1 1.78404 5.35212 21.4085 -8.43742
503 1 5.35212 5.35212 21.4085 -8.27955
1049 1 7.13617 5.35212 19.6245 -8.21684
1551 3 8.92021 5.35212 21.4085 -6.25237
2050 1 10.7042 5.35212 19.6245 -8.71258
2552 3 12.4883 5.35212 21.4085 -6.44045
3050 1 14.2723 5.35212 19.6245 -8.65874
3174 1 17.8404 5.35212 19.6245 -8.09563
3552 1 16.0564 5.35212 21.4085 -8.08532
505 2 1.78404 8.92021 21.4085 -6.93143
34 1 0 8.92021 19.6245 -8.31152
287 1 0 7.13617 21.4085 -8.48442
802 3 1.78404 10.7042 19.6245 -6.392
1050 1 3.56808 8.92021 19.6245 -8.60629
1305 2 0 10.7042 21.4085 -6.92122
1303 2 3.56808 7.13617 21.4085 -6.96303
2305 3 3.56808 10.7042 21.4085 -6.507
3800 2 1.78404 7.13617 19.6245 -7.03939
801 3 5.35212 7.13617 19.6245 -6.35995
1553 3 5.35212 8.92021 21.4085 -6.46516
1802 1 5.35212 10.7042 19.6245 -8.53284
291 1 10.7042 10.7042 21.4085 -8.39475
1801 3 8.92021 7.13617 19.6245 -6.29421
2051 1 7.13617 8.92021 19.6245 -8.4182
2303 1 7.13617 7.13617 21.4085 -8.39297
2554 3 8.92021 8.92021 21.4085 -6.35567
2801 1 8.92021 10.7042 19.6245 -8.23522
3051 1 10.7042 8.92021 19.6245 -8.57175
3305 2 7.13617 10.7042 21.4085 -6.91689
3303 3 10.7042 7.13617 21.4085 -6.50023
35 1 14.2723 8.92021 19.6245 -8.73423
289 3 14.2723 7.13617 21.4085 -6.26705
1307 3 14.2723 10.7042 21.4085 -6.55482
2800 2 12.4883 7.13617 19.6245 -6.81028
3554 3 12.4883 8.92021 21.4085 -6.39977
3802 2 12.4883 10.7042 19.6245 -6.97127
507 3 16.0564 8.92021 21.4085 -6.25417
159 2 17.8404 8.92021 19.6245 -6.91949
412 1 17.8404 7.13617 21.4085 -8.16254
803 2 16.0564 10.7042 19.6245 -6.97023
1414 1 17.8404 10.7042 21.4085 -8.19246
3801 1 16.0564 7.13617 19.6245 -8.39629
1051 1 0 12.4883 19.6245 -8.3652
1555 1 1.78404 12.4883 21.4085 -8.74542
1803 2 1.78404 14.2723 19.6245 -6.94981
2052 3 3.56808 12.4883 19.6245 -6.51299
2307 3 0 14.2723 21.4085 -6.32264
3307 3 3.56808 14.2723 21.4085 -6.44252
2556 3 5.35212 12.4883 21.4085 -6.48421
2802 2 5.35212 14.2723 19.6245 -6.90134
36 3 10.7042 12.4883 19.6245 -6.40624
293 3 7.13617 14.2723 21.4085 -6.27971
1309 2 10.7042 14.2723 21.4085 -6.92631
3052 3 7.13617 12.4883 19.6245 -6.29954
3556 1 8.92021 12.4883 21.4085 -8.25264
3803 1 8.92021 14.2723 19.6245 -8.47932
509 2 12.4883 12.4883 21.4085 -7.00222
804 3 12.4883 14.2723 19.6245 -6.74819
1052 2 14.2723 12.4883 19.6245 -7.1154
2309 3 14.2723 14.2723 21.4085 -6.58603
1161 1 17.8404 12.4883 19.6245 -8.39469
1557 2 16.0564 12.4883 21.4085 -7.04398
1804 3 16.0564 14.2723 19.6245 -6.64035
2417 2 17.8404 14.2723 21.4085 -7.00901
345 1 0 17.8404 21.4085 -8.38778
1345 1 3.56808 17.8404 21.4085 -8.29225
2053 3 0 16.0564 19.6245 -6.48508
2558 1 1.78404 16.0564 21.4085 -8.497
3053 3 3.56808 16.0564 19.6245 -6.39336
3860 2 1.78404 17.8404 19.6245 -6.90541
845 2 5.35212 17.8404 19.6245 -6.88153
3558 2 5.35212 16.0564 21.4085 -7.00614
511 3 8.92021 16.0564 21.4085 -6.2699
37 1 7.13617 16.0564 19.6245 -8.34313
1053 3 10.7042 16.0564 19.6245 -6.56564
1861 3 8.92021 17.8404 19.6245 -6.34951
2360 1 7.13617 17.8404 21.4085 -8.29148
3360 1 10.7042 17.8404 21.4085 -8.56525
347 2 14.2723 17.8404 21.4085 -7.0033
1559 2 12.4883 16.0564 21.4085 -7.03893
2054 3 14.2723 16.0564 19.6245 -6.67829
2860 2 12.4883 17.8404 19.6245 -7.00836