ITEM: TIMESTEP
0
ITEM: NUMBER OF ATOMS
4000
ITEM: BOX BOUNDS pp pp pp
0.0000000000000000e+00 3.5430900000000001e+01
0.0000000000000000e+00 3.5430900000000001e+01
0.0000000000000000e+00 3.5430900000000001e+01
ITEM: ATOMS id type x y z c_peratom
267 2 0 0 0 -7.0971
516 2 1.77154 1.77154 0 -7.04967
767 3 1.77154 0 1.77154 -6.49865
1016 3 0 1.77154 1.77154 -6.60263
1267 1 0 0 3.54309 -8.57081
1517 1 1.77154 1.77154 3.54309 -8.68668
1268 3 3.54309 0 0 -6.5683
1518 3 5.31463 1.77154 0 -6.54808
1767 1 5.31463 0 1.77154 -8.55418
2017 3 3.54309 1.77154 1.77154 -6.44289
2266 3 3.54309 0 3.54309 -6.21614
2517 1 5.31463 1.77154 3.54309 -8.40291
2267 3 7.08618 0 0 -6.47826
2518 2 8.85773 1.77154 0 -6.99159
2766 2 8.85773 0 1.77154 -7.0312
3017 1 7.08618 1.77154 1.77154 -8.50671
3266 2 7.08618 0 3.54309 -6.95416
3517 2 8.85773 1.77154 3.54309 -7.00173
1 2 10.6293 1.77154 1.77154 -7.03944
268 3 10.6293 0 3.54309 -6.65484
517 3 12.4008 1.77154 3.54309 -6.41195
3267 3 10.6293 0 0 -6.53639
3518 1 12.4008 1.77154 0 -8.35255
3767 1 12.4008 0 1.77154 -8.56139
269 2 14.1724 0 0 -6.9338
518 2 15.9439 1.77154 0 -7.01533
768 2 15.9439 0 1.77154 -6.94947
1017 3 14.1724 1.77154 1.77154 -6.37471
1269 1 14.1724 0 3.54309 -8.20351
1519 2 15.9439 1.77154 3.54309 -6.91032
1270 3 0 3.54309 0 -6.6741
1520 3 1.77154 5.31463 0 -6.51127
1768 3 1.77154 3.54309 1.77154 -6.63298
2018 2 0 5.31463 1.77154 -7.09182
2268 2 0 3.54309 3.54309 -6.95183
2519 2 1.77154 5.31463 3.54309 -7.0042
2269 3 3.54309 3.54309 0 -6.60133
2520 3 5.31463 5.31463 0 -6.36232
2767 3 5.31463 3.54309 1.77154 -6.38428
3018 2 3.54309 5.31463 1.77154 -6.92133
3268 3 3.54309 3.54309 3.54309 -6.33382
3519 3 5.31463 5.31463 3.54309 -6.32043
2 1 7.08618 5.31463 1.77154 -8.6339
270 1 7.08618 3.54309 3.54309 -8.26466
519 3 8.85773 5.31463 3.54309 -6.11429
3269 2 7.08618 3.54309 0 -6.92245
3520 1 8.85773 5.31463 0 -8.235
3768 3 8.85773 3.54309 1.77154 -6.33435
271 1 10.6293 3.54309 0 -8.27742
520 1 12.4008 5.31463 0 -8.1264
769 2 12.4008 3.54309 1.77154 -7.00788
1018 2 10.6293 5.31463 1.77154 -6.99361
1271 2 10.6293 3.54309 3.54309 -6.9769
1521 2 12.4008 5.31463 3.54309 -7.04378
1272 2 14.1724 3.54309 0 -6.96711
1522 2 15.9439 5.31463 0 -6.93435
1769 1 15.9439 3.54309 1.77154 -8.60531
2019 2 14.1724 5.31463 1.77154 -7.00437
2270 3 14.1724 3.54309 3.54309 -6.45435
2521 3 15.9439 5.31463 3.54309 -6.31758
2271 3 0 7.08618 0 -6.57357
2522 3 1.77154 8.85773 0 -6.26064
2768 1 1.77154 7.08618 1.77154 -8.64327
3019 2 0 8.85773 1.77154 -6.96712
3270 2 0 7.08618 3.54309 -7.06168
3521 2 1.77154 8.85773 3.54309 -7.06273
3 3 3.54309 8.85773 1.77154 -6.45131
272 2 3.54309 7.08618 3.54309 -7.0134
521 2 5.31463 8.85773 3.54309 -7.0872
3271 1 3.54309 7.08618 0 -8.5138
3522 1 5.31463 8.85773 0 -8.70943
3769 3 5.31463 7.08618 1.77154 -6.47712
273 3 7.08618 7.08618 0 -6.2442
522 3 8.85773 8.85773 0 -6.29385
770 1 8.85773 7.08618 1.77154 -8.30872
1019 3 7.08618 8.85773 1.77154 -6.34361
1273 2 7.08618 7.08618 3.54309 -6.89987
1523 1 8.85773 8.85773 3.54309 -8.30071
1274 1 10.6293 7.08618 0 -8.3692
1524 2 12.4008 8.85773 0 -6.90655
1770 2 12.4008 7.08618 1.77154 -6.96201
2020 3 10.6293 8.85773 1.77154 -6.20085
2272 1 10.6293 7.08618 3.54309 -8.40835
2523 2 12.4008 8.85773 3.54309 -6.91847
2273 1 14.1724 7.08618 0 -8.39159
2524 2 15.9439 8.85773 0 -6.98222
2769 3 15.9439 7.08618 1.77154 -6.41671
3020 2 14.1724 8.85773 1.77154 -6.98599
3272 1 14.1724 7.08618 3.54309 -8.55584
3523 1 15.9439 8.85773 3.54309 -8.42578
4 1 0 12.4008 1.77154 -8.02415
274 3 0 10.6293 3.54309 -6.36544
523 1 1.77154 12.4008 3.54309 -8.45725
3273 1 0 10.6293 0 -8.28047
3524 3 1.77154 12.4008 0 -6.25016
3770 1 1.77154 10.6293 1.77154 -8.50966
275 2 3.54309 10.6293 0 -6.9193
524 2 5.31463 12.4008 0 -6.98312
771 3 5.31463 10.6293 1.77154 -6.6679
1020 2 3.54309 12.4008 1.77154 -6.89156
1275 2 3.54309 10.6293 3.54309 -7.11218
1525 3 5.31463 12.4008 3.54309 -6.56274
1276 2 7.08618 10.6293 0 -6.91573
1526 3 8.85773 12.4008 0 -6.29413
1771 1 8.85773 10.6293 1.77154 -8.8298
2021 2 7.08618 12.4008 1.77154 -6.89567
2274 3 7.08618 10.6293 3.54309 -6.40896
2525 3 8.85773 12.4008 3.54309 -6.2657
2275 2 10.6293 10.6293 0 -6.80697
2526 1 12.4008 12.4008 0 -8.58683
2770 1 12.4008 10.6293 1.77154 -8.53362
3021 3 10.6293 12.4008 1.77154 -6.16803
3274 2 10.6293 10.6293 3.54309 -6.88483
3525 1 12.4008 12.4008 3.54309 -8.16361
5 3 14.1724 12.4008 1.77154 -6.18245
276 1 14.1724 10.6293 3.54309 -8.39592
525 2 15.9439 12.4008 3.54309 -6.84747
3275 3 14.1724 10.6293 0 -6.38823
3526 1 15.9439 12.4008 0 -9.06444
3771 3 15.9439 10.6293 1.77154 -6.45042
277 1 0 14.1724 0 -8.30207
526 1 1.77154 15.9439 0 -8.46825
772 3 1.77154 14.1724 1.77154 -6.21219
1021 2 0 15.9439 1.77154 -6.90086
1277 1 0 14.1724 3.54309 -8.34851
1527 3 1.77154 15.9439 3.54309 -6.45322
1278 3 3.54309 14.1724 0 -6.3416
1528 3 5.31463 15.9439 0 -6.23771
1772 1 5.31463 14.1724 1.77154 -8.65343
2022 1 3.54309 15.9439 1.77154 -8.80881
2276 3 3.54309 14.1724 3.54309 -6.46521
2527 3 5.31463 15.9439 3.54309 -6.34838
2277 1 7.08618 14.1724 0 -8.236
2528 2 8.85773 15.9439 0 -6.957
2771 1 8.85773 14.1724 1.77154 -8.8836
3022 2 7.08618 15.9439 1.77154 -6.86902
3276 3 7.08618 14.1724 3.54309 -6.43979
3527 3 8.85773 15.9439 3.54309 -6.49634
6 3 10.6293 15.9439 1.77154 -6.42588
278 2 10.6293 14.1724 3.54309 -6.89587
527 2 12.4008 15.9439 3.54309 -6.86638
3277 3 10.6293 14.1724 0 -6.31971
3528 2 12.4008 15.9439 0 -6.92713
3772 1 12.4008 14.1724 1.77154 -8.61436
279 3 14.1724 14.1724 0 -6.3758
528 2 15.9439 15.9439 0 -6.88889
773 3 15.9439 14.1724 1.77154 -6.50453
1022 3 14.1724 15.9439 1.77154 -6.25932
1279 1 14.1724 14.1724 3.54309 -8.64277
1529 3 15.9439 15.9439 3.54309 -6.37634
1773 1 1.77154 0 5.31463 -8.46212
2023 2 0 1.77154 5.31463 -6.85277
2278 1 0 0 7.08618 -8.4587
2529 3 1.77154 1.77154 7.08618 -6.34388
2773 3 3.54309 0 7.08618 -6.19179
2772 2 5.31463 0 5.31463 -6.86698
3024 1 5.31463 1.77154 7.08618 -8.36373
3023 1 3.54309 1.77154 5.31463 -8.39713
7 3 7.08618 1.77154 5.31463 -6.35536
3278 2 7.08618 0 7.08618 -6.97928
3529 2 8.85773 1.77154 7.08618 -6.94289
3773 3 8.85773 0 5.31463 -6.65547
8 1 12.4008 1.77154 7.08618 -8.28961
774 2 12.4008 0 5.31463 -6.96226
1023 3 10.6293 1.77154 5.31463 -6.52743
3774 2 10.6293 0 7.08618 -7.06707
280 1 14.1724 0 7.08618 -8.44128
529 1 15.9439 1.77154 7.08618 -8.42246
1774 1 15.9439 0 5.31463 -8.26682
2024 1 14.1724 1.77154 5.31463 -8.26622
775 3 0 3.54309 7.08618 -6.44592
1024 3 1.77154 5.31463 7.08618 -6.50752
2774 3 1.77154 3.54309 5.31463 -6.42122
3025 1 0 5.31463 5.31463 -8.58576
9 3 3.54309 5.31463 5.31463 -6.52
1280 3 3.54309 3.54309 7.08618 -6.31792
1530 3 5.31463 5.31463 7.08618 -6.25092
3775 1 5.31463 3.54309 5.31463 -8.46318
776 1 8.85773 3.54309 5.31463 -8.41474
1025 1 7.08618 5.31463 5.31463 -8.22711
1775 3 7.08618 3.54309 7.08618 -6.04572
2025 1 8.85773 5.31463 7.08618 -8.26401
1776 1 12.4008 3.54309 5.31463 -8.51833
2026 1 10.6293 5.31463 5.31463 -8.19878
2279 2 10.6293 3.54309 7.08618 -6.93941
2530 3 12.4008 5.31463 7.08618 -6.38178
2776 2 14.1724 3.54309 7.08618 -6.94448
2775 3 15.9439 3.54309 5.31463 -6.38324
3027 3 15.9439 5.31463 7.08618 -6.33564
3026 2 14.1724 5.31463 5.31463 -6.8975
10 3 0 8.85773 5.31463 -6.42179
3279 1 0 7.08618 7.08618 -8.3488
3530 1 1.77154 8.85773 7.08618 -8.34968
3776 3 1.77154 7.08618 5.31463 -6.52771
11 2 5.31463 8.85773 7.08618 -7.04768
777 1 5.31463 7.08618 5.31463 -8.61437
1026 2 3.54309 8.85773 5.31463 -7.11844
3777 2 3.54309 7.08618 7.08618 -6.93472
281 2 7.08618 7.08618 7.08618 -7.0228
530 1 8.85773 8.85773 7.08618 -8.45061
1777 1 8.85773 7.08618 5.31463 -8.16027
2027 2 7.08618 8.85773 5.31463 -6.97566
778 2 10.6293 7.08618 7.08618 -6.91545
1027 1 12.4008 8.85773 7.08618 -8.4898
2777 2 12.4008 7.08618 5.31463 -6.919
3028 3 10.6293 8.85773 5.31463 -6.25324
12 3 14.1724 8.85773 5.31463 -6.10262
1281 1 14.1724 7.08618 7.08618 -8.49285
1531 1 15.9439 8.85773 7.08618 -8.13138
3778 1 15.9439 7.08618 5.31463 -8.17631
779 2 1.77154 10.6293 5.31463 -7.01621
1028 3 0 12.4008 5.31463 -6.35318
1778 1 0 10.6293 7.08618 -8.42149
2028 3 1.77154 12.4008 7.08618 -6.58006
1779 2 5.31463 10.6293 5.31463 -7.08714
2029 2 3.54309 12.4008 5.31463 -7.01545
2280 2 3.54309 10.6293 7.08618 -7.05119
2531 1 5.31463 12.4008 7.08618 -8.29821
2779 3 7.08618 10.6293 7.08618 -6.42158
2778 1 8.85773 10.6293 5.31463 -8.41281
3030 3 8.85773 12.4008 7.08618 -6.2737
3029 1 7.08618 12.4008 5.31463 -8.60999
13 1 10.6293 12.4008 5.31463 -8.33001
3280 2 10.6293 10.6293 7.08618 -6.91106
3531 3 12.4008 12.4008 7.08618 -6.37596
3779 2 12.4008 10.6293 5.31463 -6.89787
14 1 15.9439 12.4008 7.08618 -8.37504
780 1 15.9439 10.6293 5.31463 -8.20546
1029 2 14.1724 12.4008 5.31463 -6.92484
3780 1 14.1724 10.6293 7.08618 -8.50538
282 3 0 14.1724 7.08618 -6.61046
531 3 1.77154 15.9439 7.08618 -6.41224
1780 2 1.77154 14.1724 5.31463 -6.90063
2030 2 0 15.9439 5.31463 -6.94449
781 1 3.54309 14.1724 7.08618 -8.60558
1030 2 5.31463 15.9439 7.08618 -6.89124
2780 2 5.31463 14.1724 5.31463 -6.95513
3031 3 3.54309 15.9439 5.31463 -6.38138
15 3 7.08618 15.9439 5.31463 -6.30669
1282 1 7.08618 14.1724 7.08618 -8.36553
1532 3 8.85773 15.9439 7.08618 -6.1183
3781 2 8.85773 14.1724 5.31463 -6.84594
782 1 12.4008 14.1724 5.31463 -8.33746
1031 3 10.6293 15.9439 5.31463 -6.2876
1781 1 10.6293 14.1724 7.08618 -8.38899
2031 1 12.4008 15.9439 7.08618 -8.29284
1782 3 15.9439 14.1724 5.31463 -6.54935
2032 3 14.1724 15.9439 5.31463 -6.24385
2281 2 14.1724 14.1724 7.08618 -6.89456
2532 2 15.9439 15.9439 7.08618 -7.00419
16 1 0 1.77154 12.4008 -8.38431
2781 1 1.77154 0 8.85773 -8.55242
3032 2 0 1.77154 8.85773 -6.85959
3281 1 0 0 10.6293 -8.37021
3532 2 1.77154 1.77154 10.6293 -7.02739
3782 3 1.77154 0 12.4008 -6.30587
251 2 3.54309 0 10.6293 -6.93622
532 2 5.31463 1.77154 10.6293 -6.94732
783 3 5.31463 0 12.4008 -6.26583
1032 2 3.54309 1.77154 12.4008 -6.96933
3282 1 5.31463 0 8.85773 -8.29074
3533 3 3.54309 1.77154 8.85773 -6.3482
17 1 7.08618 1.77154 8.85773 -8.14475
1283 1 7.08618 0 10.6293 -8.52386
1533 1 8.85773 1.77154 10.6293 -8.45316
1783 2 8.85773 0 12.4008 -6.93461
2033 3 7.08618 1.77154 12.4008 -6.15671
3783 3 8.85773 0 8.85773 -6.41491
252 2 12.4008 0 8.85773 -7.00365
533 3 10.6293 1.77154 8.85773 -6.4474
2282 3 10.6293 0 10.6293 -6.4301
2533 3 12.4008 1.77154 10.6293 -6.37937
2782 1 12.4008 0 12.4008 -8.73063
3033 1 10.6293 1.77154 12.4008 -8.32556
18 3 14.1724 1.77154 12.4008 -6.25152
784 2 15.9439 0 8.85773 -6.94875
1033 2 14.1724 1.77154 8.85773 -6.94447
3283 2 14.1724 0 10.6293 -6.92849
3534 1 15.9439 1.77154 10.6293 -8.45341
3784 1 15.9439 0 12.4008 -8.64585
253 1 0 3.54309 10.6293 -8.4617
534 2 1.77154 5.31463 10.6293 -6.9492
785 3 1.77154 3.54309 12.4008 -6.35374
1034 1 0 5.31463 12.4008 -8.27733
1284 2 1.77154 3.54309 8.85773 -7.00536
1534 2 0 5.31463 8.85773 -6.91064
1285 2 3.54309 3.54309 10.6293 -6.975
1535 1 5.31463 5.31463 10.6293 -8.18019
1785 3 5.31463 3.54309 12.4008 -6.24786
1784 1 5.31463 3.54309 8.85773 -8.41319
2035 1 3.54309 5.31463 12.4008 -8.3058
2034 3 3.54309 5.31463 8.85773 -6.43831
2284 1 7.08618 3.54309 10.6293 -8.2015
2283 2 8.85773 3.54309 8.85773 -6.92218
2535 2 8.85773 5.31463 10.6293 -6.94194
2534 1 7.08618 5.31463 8.85773 -8.343
2783 2 8.85773 3.54309 12.4008 -6.97701
3034 1 7.08618 5.31463 12.4008 -8.19993
19 2 10.6293 5.31463 12.4008 -6.8892
2784 1 12.4008 3.54309 8.85773 -8.55221
3035 3 10.6293 5.31463 8.85773 -6.40811
3284 3 10.6293 3.54309 10.6293 -6.342
3535 1 12.4008 5.31463 10.6293 -8.45476
3785 2 12.4008 3.54309 12.4008 -6.83019
254 1 14.1724 3.54309 10.6293 -8.35801
535 3 15.9439 5.31463 10.6293 -6.30757
786 1 15.9439 3.54309 12.4008 -8.1753
1035 1 14.1724 5.31463 12.4008 -8.38282
3285 3 15.9439 3.54309 8.85773 -6.28705
3536 2 14.1724 5.31463 8.85773 -6.83577
20 1 0 8.85773 8.85773 -8.02336
1286 2 0 7.08618 10.6293 -6.85616
1536 1 1.77154 8.85773 10.6293 -8.08193
1786 1 1.77154 7.08618 12.4008 -8.33578
2036 3 0 8.85773 12.4008 -6.27302
3786 3 1.77154 7.08618 8.85773 -6.23043
255 3 5.31463 7.08618 8.85773 -6.34424
536 1 3.54309 8.85773 8.85773 -8.33179
2285 1 3.54309 7.08618 10.6293 -8.33526
2536 3 5.31463 8.85773 10.6293 -6.28444
2785 1 5.31463 7.08618 12.4008 -8.10943
3036 3 3.54309 8.85773 12.4008 -6.16188
21 1 7.08618 8.85773 12.4008 -8.44704
787 2 8.85773 7.08618 8.85773 -6.93384
1036 3 7.08618 8.85773 8.85773 -6.64158
3286 2 7.08618 7.08618 10.6293 -6.89838
3537 3 8.85773 8.85773 10.6293 -6.44157
3787 3 8.85773 7.08618 12.4008 -6.27296
256 3 10.6293 7.08618 10.6293 -6.33948
537 1 12.4008 8.85773 10.6293 -8.47274
788 1 12.4008 7.08618 12.4008 -8.4476
1037 2 10.6293 8.85773 12.4008 -6.81316
1287 3 12.4008 7.08618 8.85773 -6.24761
1537 1 10.6293 8.85773 8.85773 -8.54281
1288 3 14.1724 7.08618 10.6293 -6.20859
1538 3 15.9439 8.85773 10.6293 -6.28459
1788 3 15.9439 7.08618 12.4008 -6.27111
1787 1 15.9439 7.08618 8.85773 -8.6751
2038 3 14.1724 8.85773 12.4008 -6.10128
2037 3 14.1724 8.85773 8.85773 -6.08003
2287 1 0 10.6293 10.6293 -8.19681
2286 2 1.77154 10.6293 8.85773 -7.04808
2538 2 1.77154 12.4008 10.6293 -7.00686
2537 2 0 12.4008 8.85773 -6.99791
2786 1 1.77154 10.6293 12.4008 -8.38425
3037 1 0 12.4008 12.4008 -8.39535
22 3 3.54309 12.4008 12.4008 -6.51227
2787 2 5.31463 10.6293 8.85773 -7.04467
3038 2 3.54309 12.4008 8.85773 -7.04905
3287 1 3.54309 10.6293 10.6293 -8.56933
3538 2 5.31463 12.4008 10.6293 -7.00595
3788 3 5.31463 10.6293 12.4008 -6.35424
257 2 7.08618 10.6293 10.6293 -6.96643
538 2 8.85773 12.4008 10.6293 -7.00026
789 1 8.85773 10.6293 12.4008 -8.53603
1038 1 7.08618 12.4008 12.4008 -8.38381
3288 3 8.85773 10.6293 8.85773 -6.52603
3539 2 7.08618 12.4008 8.85773 -7.03743
23 2 10.6293 12.4008 8.85773 -6.96146
1289 3 10.6293 10.6293 10.6293 -6.39998
1539 2 12.4008 12.4008 10.6293 -6.94208
1789 1 12.4008 10.6293 12.4008 -8.55339
2039 3 10.6293 12.4008 12.4008 -6.46863
3789 3 12.4008 10.6293 8.85773 -6.30852
258 2 15.9439 10.6293 8.85773 -6.84682
539 3 14.1724 12.4008 8.85773 -6.31581
2288 1 14.1724 10.6293 10.6293 -8.41145
2539 1 15.9439 12.4008 10.6293 -8.48781
2788 1 15.9439 10.6293 12.4008 -8.2484
3039 2 14.1724 12.4008 12.4008 -7.01345
24 1 0 15.9439 12.4008 -8.60405
790 3 1.77154 14.1724 8.85773 -6.57798
1039 2 0 15.9439 8.85773 -6.93963
3289 3 0 14.1724 10.6293 -6.44309
3540 1 1.77154 15.9439 10.6293 -8.5351
3790 2 1.77154 14.1724 12.4008 -7.00379
259 2 3.54309 14.1724 10.6293 -7.02664
540 3 5.31463 15.9439 10.6293 -6.48477
791 2 5.31463 14.1724 12.4008 -7.07344
1040 3 3.54309 15.9439 12.4008 -6.52757
1290 1 5.31463 14.1724 8.85773 -8.31907
1540 2 3.54309 15.9439 8.85773 -6.94372
1291 1 7.08618 14.1724 10.6293 -8.36541
1541 2 8.85773 15.9439 10.6293 -7.00467
1791 2 8.85773 14.1724 12.4008 -6.95033
1790 1 8.85773 14.1724 8.85773 -8.26519
2041 2 7.08618 15.9439 12.4008 -6.99289
2040 2 7.08618 15.9439 8.85773 -6.92806
2290 1 10.6293 14.1724 10.6293 -8.48374
2289 2 12.4008 14.1724 8.85773 -7.01379
2541 2 12.4008 15.9439 10.6293 -7.04179
2540 1 10.6293 15.9439 8.85773 -8.06178
2789 2 12.4008 14.1724 12.4008 -7.02119
3040 3 10.6293 15.9439 12.4008 -6.34405
25 2 14.1724 15.9439 12.4008 -7.08597
2790 1 15.9439 14.1724 8.85773 -8.54539
3041 2 14.1724 15.9439 8.85773 -7.10406
3290 3 14.1724 14.1724 10.6293 -6.59953
3541 2 15.9439 15.9439 10.6293 -7.09515
3791 3 15.9439 14.1724 12.4008 -6.37489
260 3 0 0 14.1724 -6.37859
541 1 1.77154 1.77154 14.1724 -8.4803
792 3 1.77154 0 15.9439 -6.52082
1041 1 0 1.77154 15.9439 -8.61395
1292 1 3.54309 0 14.1724 -8.50519
1542 3 5.31463 1.77154 14.1724 -6.3494
1792 1 5.31463 0 15.9439 -8.4136
2042 2 3.54309 1.77154 15.9439 -7.01099
2291 1 7.08618 0 14.1724 -8.58298
2542 1 8.85773 1.77154 14.1724 -8.24176
2791 2 8.85773 0 15.9439 -7.00113
3042 3 7.08618 1.77154 15.9439 -6.30157
26 1 10.6293 1.77154 15.9439 -8.3656
3291 2 10.6293 0 14.1724 -6.95443
3542 3 12.4008 1.77154 14.1724 -6.36297
3792 1 12.4008 0 15.9439 -8.65658
261 3 14.1724 0 14.1724 -6.34237
542 1 15.9439 1.77154 14.1724 -8.50864
793 2 15.9439 0 15.9439 -6.94217
1042 2 14.1724 1.77154 15.9439 -7.01053
1293 2 0 3.54309 14.1724 -6.96728
1543 2 1.77154 5.31463 14.1724 -7.00497
1793 2 1.77154 3.54309 15.9439 -7.02484
2043 3 0 5.31463 15.9439 -6.56011
2292 2 3.54309 3.54309 14.1724 -6.96354
2543 1 5.31463 5.31463 14.1724 -8.20375
2792 2 5.31463 3.54309 15.9439 -6.9831
3043 1 3.54309 5.31463 15.9439 -8.41211
27 1 7.08618 5.31463 15.9439 -8.42641
3292 1 7.08618 3.54309 14.1724 -8.38443
3543 1 8.85773 5.31463 14.1724 -8.21263
3793 3 8.85773 3.54309 15.9439 -6.17177
262 1 10.6293 3.54309 14.1724 -8.31728
543 3 12.4008 5.31463 14.1724 -6.3389
794 2 12.4008 3.54309 15.9439 -6.94045
1043 1 10.6293 5.31463 15.9439 -8.40494
1294 2 14.1724 3.54309 14.1724 -6.97062
1544 1 15.9439 5.31463 14.1724 -8.65106
1794 2 15.9439 3.54309 15.9439 -6.99639
2044 3 14.1724 5.31463 15.9439 -6.59158
2293 2 0 7.08618 14.1724 -7.02375
2544 2 1.77154 8.85773 14.1724 -6.98126
2793 2 1.77154 7.08618 15.9439 -7.05158
3044 2 0 8.85773 15.9439 -7.01704
28 2 3.54309 8.85773 15.9439 -7.06029
3293 3 3.54309 7.08618 14.1724 -6.28359
3544 1 5.31463 8.85773 14.1724 -8.50502
3794 2 5.31463 7.08618 15.9439 -6.97115
263 3 7.08618 7.08618 14.1724 -6.07504
544 1 8.85773 8.85773 14.1724 -8.29453
795 2 8.85773 7.08618 15.9439 -7.03286
1044 2 7.08618 8.85773 15.9439 -6.98932
1295 1 10.6293 7.08618 14.1724 -8.2591
1545 3 12.4008 8.85773 14.1724 -6.34207
1795 2 12.4008 7.08618 15.9439 -6.95473
2045 2 10.6293 8.85773 15.9439 -7.01177
2294 3 14.1724 7.08618 14.1724 -6.3339
2545 1 15.9439 8.85773 14.1724 -8.41253
2794 2 15.9439 7.08618 15.9439 -6.85284
3045 3 14.1724 8.85773 15.9439 -6.42958
29 2 0 12.4008 15.9439 -6.97844
3294 1 0 10.6293 14.1724 -8.32253
3545 3 1.77154 12.4008 14.1724 -6.55518
3795 2 1.77154 10.6293 15.9439 -7.0306
264 2 3.54309 10.6293 14.1724 -6.94497
545 1 5.31463 12.4008 14.1724 -8.56524
796 1 5.31463 10.6293 15.9439 -8.43299
1045 2 3.54309 12.4008 15.9439 -7.12474
1296 2 7.08618 10.6293 14.1724 -6.96907
1546 3 8.85773 12.4008 14.1724 -6.46094
1796 1 8.85773 10.6293 15.9439 -8.77361
2046 3 7.08618 12.4008 15.9439 -6.42702
2295 3 10.6293 10.6293 14.1724 -6.41172
2546 2 12.4008 12.4008 14.1724 -6.98256
2795 3 12.4008 10.6293 15.9439 -6.56232
3046 2 10.6293 12.4008 15.9439 -6.97639
30 2 14.1724 12.4008 15.9439 -6.91675
3295 1 14.1724 10.6293 14.1724 -8.33716
3546 1 15.9439 12.4008 14.1724 -8.36471
3796 1 15.9439 10.6293 15.9439 -8.17001
265 3 0 14.1724 14.1724 -6.57998
546 2 1.77154 15.9439 14.1724 -6.96929
797 3 1.77154 14.1724 15.9439 -6.6838
1046 3 0 15.9439 15.9439 -6.51844
1297 2 3.54309 14.1724 14.1724 -7.10252
1547 2 5.31463 15.9439 14.1724 -7.01878
1797 2 5.31463 14.1724 15.9439 -7.06677
2047 3 3.54309 15.9439 15.9439 -6.67312
2296 3 7.08618 14.1724 14.1724 -6.50339
2547 1 8.85773 15.9439 14.1724 -8.43852
2796 2 8.85773 14.1724 15.9439 -6.9451
3047 2 7.08618 15.9439 15.9439 -6.97895
31 1 10.6293 15.9439 15.9439 -8.49904
3296 3 10.6293 14.1724 14.1724 -6.5805
3547 2 12.4008 15.9439 14.1724 -6.93487
3797 3 12.4008 14.1724 15.9439 -6.34185
266 1 14.1724 14.1724 14.1724 -8.48925
547 1 15.9439 15.9439 14.1724 -8.41436
798 3 15.9439 14.1724 15.9439 -6.15064
1047 2 14.1724 15.9439 15.9439 -6.92705
1298 2 0 0 17.7155 -7.00213
1548 2 1.77154 1.77154 17.7155 -7.0548
1798 3 1.77154 0 19.487 -6.56015
2048 2 0 1.77154 19.487 -6.94705
2297 1 0 0 21.2585 -8.84272
2548 3 1.77154 1.77154 21.2585 -6.5168
2298 2 3.54309 0 17.7155 -6.96309
2549 2 5.31463 1.77154 17.7155 -6.94439
2797 1 5.31463 0 19.487 -8.58597
3048 3 3.54309 1.77154 19.487 -6.56117
3297 2 3.54309 0 21.2585 -6.87339
3548 3 5.31463 1.77154 21.2585 -6.25093
501 3 8.85773 1.77154 21.2585 -6.14385
32 1 7.08618 1.77154 19.487 -8.25525
283 2 7.08618 0 21.2585 -6.89338
3298 1 7.08618 0 17.7155 -8.36546
3549 2 8.85773 1.77154 17.7155 -6.9665
3798 2 8.85773 0 19.487 -6.92835
502 3 12.4008 1.77154 17.7155 -6.27361
284 1 10.6293 0 17.7155 -8.26785
799 1 12.4008 0 19.487 -8.62294
1048 1 10.6293 1.77154 19.487 -8.32705
1299 3 10.6293 0 21.2585 -6.27219
1549 3 12.4008 1.77154 21.2585 -6.27692
1300 2 14.1724 0 17.7155 -6.96203
1550 3 15.9439 1.77154 17.7155 -6.7091
1799 2 15.9439 0 19.487 -6.93062
2049 3 14.1724 1.77154 19.487 -6.40958
2299 3 14.1724 0 21.2585 -6.41282
2550 3 15.9439 1.77154 21.2585 -6.30418
2300 3 0 3.54309 17.7155 -6.35097
2551 2 1.77154 5.31463 17.7155 -6.94631
2798 3 1.77154 3.54309 19.487 -6.56044
3049 1 0 5.31463 19.487 -8.26476
3299 1 0 3.54309 21.2585 -8.42457
3550 2 1.77154 5.31463 21.2585 -6.91522
503 1 5.31463 5.31463 21.2585 -8.46288
33 3 3.54309 5.31463 19.487 -6.43496
285 2 3.54309 3.54309 21.2585 -6.93833
3300 3 3.54309 3.54309 17.7155 -6.4886
3551 1 5.31463 5.31463 17.7155 -8.33937
3799 1 5.31463 3.54309 19.487 -8.40858
504 2 8.85773 5.31463 17.7155 -6.89197
286 3 7.08618 3.54309 17.7155 -6.2309
800 1 8.85773 3.54309 19.487 -8.23632
1049 1 7.08618 5.31463 19.487 -8.27586
1301 1 7.08618 3.54309 21.2585 -8.06146
1551 1 8.85773 5.31463 21.2585 -8.04603
1302 2 10.6293 3.54309 17.7155 -6.85179
1552 3 12.4008 5.31463 17.7155 -6.34551
1800 1 12.4008 3.54309 19.487 -8.49149
2050 3 10.6293 5.31463 19.487 -6.24113
2301 1 10.6293 3.54309 21.2585 -8.2679
2552 2 12.4008 5.31463 21.2585 -6.88897
2302 3 14.1724 3.54309 17.7155 -6.515
2553 3 15.9439 5.31463 17.7155 -6.47512
2799 3 15.9439 3.54309 19.487 -6.44731
3050 1 14.1724 5.31463 19.487 -8.59093
3301 1 14.1724 3.54309 21.2585 -8.46481
3552 2 15.9439 5.31463 21.2585 -6.90875
505 1 1.77154 8.85773 21.2585 -8.76087
34 3 0 8.85773 19.487 -6.25219
287 3 0 7.08618 21.2585 -6.32292
3302 1 0 7.08618 17.7155 -8.4531
3553 3 1.77154 8.85773 17.7155 -6.49234
3800 2 1.77154 7.08618 19.487 -6.92138
506 2 5.31463 8.85773 17.7155 -7.0044
288 1 3.54309 7.08618 17.7155 -8.52263
801 2 5.31463 7.08618 19.487 -6.92851
1050 3 3.54309 8.85773 19.487 -6.34443
1303 2 3.54309 7.08618 21.2585 -6.92523
1553 1 5.31463 8.85773 21.2585 -8.69052
1304 3 7.08618 7.08618 17.7155 -6.46213
1554 2 8.85773 8.85773 17.7155 -7.08707
1801 2 8.85773 7.08618 19.487 -6.95859
2051 2 7.08618 8.85773 19.487 -7.01925
2303 3 7.08618 7.08618 21.2585 -6.29832
2554 3 8.85773 8.85773 21.2585 -6.50645
2304 1 10.6293 7.08618 17.7155 -8.68242
2555 2 12.4008 8.85773 17.7155 -7.06608
2800 3 12.4008 7.08618 19.487 -6.45511
3051 3 10.6293 8.85773 19.487 -6.61222
3303 1 10.6293 7.08618 21.2585 -8.37943
3554 2 12.4008 8.85773 21.2585 -6.88748
507 1 15.9439 8.85773 21.2585 -8.52132
35 2 14.1724 8.85773 19.487 -6.97566
289 3 14.1724 7.08618 21.2585 -6.31079
3304 3 14.1724 7.08618 17.7155 -6.52864
3555 3 15.9439 8.85773 17.7155 -6.31461
3801 1 15.9439 7.08618 19.487 -8.45909
508 2 1.77154 12.4008 17.7155 -7.0976
290 3 0 10.6293 17.7155 -6.50209
802 2 1.77154 10.6293 19.487 -6.94467
1051 2 0 12.4008 19.487 -6.97931
1305 3 0 10.6293 21.2585 -6.37311
1555 1 1.77154 12.4008 21.2585 -8.54723
1306 1 3.54309 10.6293 17.7155 -8.4702
1556 2 5.31463 12.4008 17.7155 -6.98065
1802 1 5.31463 10.6293 19.487 -8.54555
2052 2 3.54309 12.4008 19.487 -7.06655
2305 3 3.54309 10.6293 21.2585 -6.21496
2556 1 5.31463 12.4008 21.2585 -8.63483
2306 3 7.08618 10.6293 17.7155 -6.50333
2557 3 8.85773 12.4008 17.7155 -6.56581
2801 2 8.85773 10.6293 19.487 -7.07772
3052 3 7.08618 12.4008 19.487 -6.42433
3305 3 7.08618 10.6293 21.2585 -6.51158
3556 2 8.85773 12.4008 21.2585 -6.89898
509 3 12.4008 12.4008 21.2585 -6.38499
36 3 10.6293 12.4008 19.487 -6.51612
291 3 10.6293 10.6293 21.2585 -6.66723
3306 2 10.6293 10.6293 17.7155 -7.05039
3557 1 12.4008 12.4008 17.7155 -8.66779
3802 2 12.4008 10.6293 19.487 -7.00054
510 1 15.9439 12.4008 17.7155 -8.09185
292 2 14.1724 10.6293 17.7155 -6.99216
803 1 15.9439 10.6293 19.487 -8.2971
1052 1 14.1724 12.4008 19.487 -8.37357
1307 1 14.1724 10.6293 21.2585 -8.50047
1557 3 15.9439 12.4008 21.2585 -6.31989
1308 1 0 14.1724 17.7155 -8.47655
1558 2 1.77154 15.9439 17.7155 -7.00132
1803 2 1.77154 14.1724 19.487 -7.04994
2053 1 0 15.9439 19.487 -8.22561
2307 2 0 14.1724 21.2585 -6.94444
2558 2 1.77154 15.9439 21.2585 -6.9907
2308 2 3.54309 14.1724 17.7155 -7.13106
2559 3 5.31463 15.9439 17.7155 -6.4561
2802 2 5.31463 14.1724 19.487 -7.03816
3053 1 3.54309 15.9439 19.487 -8.46362
3307 2 3.54309 14.1724 21.2585 -7.04278
3558 2 5.31463 15.9439 21.2585 -6.99444
511 1 8.85773 15.9439 21.2585 -8.22887
37 1 7.08618 15.9439 19.487 -8.24041
293 1 7.08618 14.1724 21.2585 -8.28397
3308 1 7.08618 14.1724 17.7155 -8.69645
3559 2 8.85773 15.9439 17.7155 -6.88098
3803 3 8.85773 14.1724 19.487 -6.29407
512 1 12.4008 15.9439 17.7155 -8.76774
294 3 10.6293 14.1724 17.7155 -6.46177
804 3 12.4008 14.1724 19.487 -6.2769
1053 3 10.6293 15.9439 19.487 -6.34781
1309 1 10.6293 14.1724 21.2585 -8.50391
1559 2 12.4008 15.9439 21.2585 -6.9514
1310 1 14.1724 14.1724 17.7155 -8.3408
1560 1 15.9439 15.9439 17.7155 -8.39453
1804 2 15.9439 14.1724 19.487 -6.90982
2054 3 14.1724 15.9439 19.487 -6.29461
2309 3 14.1724 14.1724 21.2585 -6.44734
2560 1 15.9439 15.9439 21.2585 -8.56839
2803 3 1.77154 0 23.0301 -6.55221
3054 3 0 1.77154 23.0301 -6.36007
3309 3 0 0 24.8016 -6.60515
3560 3 1.77154 1.77154 24.8016 -6.40309
39 3 5.31463 1.77154 24.8016 -6.50339
38 2 3.54309 1.77154 23.0301 -6.90871
3805 3 3.54309 0 24.8016 -6.66915
3804 1 5.31463 0 23.0301 -8.75403
513 3 8.85773 1.77154 24.8016 -6.37473
295 2 7.08618 0 24.8016 -7.02904
805 2 8.85773 0 23.0301 -6.93243
1054 1 7.08618 1.77154 23.0301 -8.64449
806 1 10.6293 0 24.8016 -8.56155
1055 3 12.4008 1.77154 24.8016 -6.49399
1805 3 12.4008 0 23.0301 -6.4823
2055 2 10.6293 1.77154 23.0301 -6.79698
1311 3 14.1724 0 24.8016 -6.37113
1561 3 15.9439 1.77154 24.8016 -6.27743
2804 1 15.9439 0 23.0301 -8.63232
3055 2 14.1724 1.77154 23.0301 -6.87739
40 2 0 5.31463 23.0301 -6.94708
1806 1 0 3.54309 24.8016 -8.39451
2056 3 1.77154 5.31463 24.8016 -6.29144
3806 2 1.77154 3.54309 23.0301 -6.89228
807 3 5.31463 3.54309 23.0301 -6.30622
1056 1 3.54309 5.31463 23.0301 -8.66899
2310 1 3.54309 3.54309 24.8016 -8.5269
2561 2 5.31463 5.31463 24.8016 -6.9363
1807 1 8.85773 3.54309 23.0301 -8.42322
2057 2 7.08618 5.31463 23.0301 -6.86667
2805 3 7.08618 3.54309 24.8016 -6.45382
3056 3 8.85773 5.31463 24.8016 -6.27405
2806 3 12.4008 3.54309 23.0301 -6.37174
3057 1 10.6293 5.31463 23.0301 -8.26103
3310 3 10.6293 3.54309 24.8016 -6.45423
3561 2 12.4008 5.31463 24.8016 -6.92683
42 3 15.9439 5.31463 24.8016 -6.3443
41 1 14.1724 5.31463 23.0301 -8.55629
3808 2 14.1724 3.54309 24.8016 -6.90225
3807 1 15.9439 3.54309 23.0301 -8.43906
514 2 1.77154 8.85773 24.8016 -6.88761
296 3 0 7.08618 24.8016 -6.57222
808 3 1.77154 7.08618 23.0301 -6.45978
1057 3 0 8.85773 23.0301 -6.53827
809 3 3.54309 7.08618 24.8016 -6.38503
1058 2 5.31463 8.85773 24.8016 -7.00361
1808 3 5.31463 7.08618 23.0301 -6.39544
2058 1 3.54309 8.85773 23.0301 -8.54198
1312 3 7.08618 7.08618 24.8016 -6.62078
1562 2 8.85773 8.85773 24.8016 -6.996
2807 1 8.85773 7.08618 23.0301 -8.44575
3058 2 7.08618 8.85773 23.0301 -6.93963
43 1 10.6293 8.85773 23.0301 -8.50684
1809 1 10.6293 7.08618 24.8016 -8.078
2059 2 12.4008 8.85773 24.8016 -6.95315
3809 1 12.4008 7.08618 23.0301 -8.29283
810 3 15.9439 7.08618 23.0301 -6.52231
1059 3 14.1724 8.85773 23.0301 -6.46054
2311 3 14.1724 7.08618 24.8016 -6.31674
2562 3 15.9439 8.85773 24.8016 -6.46345
1810 1 1.77154 10.6293 23.0301 -8.52522
2060 2 0 12.4008 23.0301 -6.95825
2808 3 0 10.6293 24.8016 -6.46349
3059 2 1.77154 12.4008 24.8016 -6.87486
2809 3 5.31463 10.6293 23.0301 -6.41394
3060 2 3.54309 12.4008 23.0301 -6.96869
3311 2 3.54309 10.6293 24.8016 -6.92112
3562 3 5.31463 12.4008 24.8016 -6.39264
45 1 8.85773 12.4008 24.8016 -8.51049
44 3 7.08618 12.4008 23.0301 -6.29666
3811 1 7.08618 10.6293 24.8016 -8.53016
3810 2 8.85773 10.6293 23.0301 -6.96696
515 2 12.4008 12.4008 24.8016 -7.03058
297 3 10.6293 10.6293 24.8016 -6.51588
811 3 12.4008 10.6293 23.0301 -6.54513
1060 2 10.6293 12.4008 23.0301 -7.00918
812 3 14.1724 10.6293 24.8016 -6.57369
1061 2 15.9439 12.4008 24.8016 -7.02942
1811 3 15.9439 10.6293 23.0301 -6.4876
2061 2 14.1724 12.4008 23.0301 -6.96784
1313 3 0 14.1724 24.8016 -6.34709
1563 1 1.77154 15.9439 24.8016 -8.7006
2810 1 1.77154 14.1724 23.0301 -8.61064
3061 3 0 15.9439 23.0301 -6.17336
46 3 3.54309 15.9439 23.0301 -6.49175
1812 3 3.54309 14.1724 24.8016 -6.34874
2062 2 5.31463 15.9439 24.8016 -6.97416
3812 2 5.31463 14.1724 23.0301 -6.95586
813 1 8.85773 14.1724 23.0301 -8.15196
1062 1 7.08618 15.9439 23.0301 -8.26438
2312 3 7.08618 14.1724 24.8016 -6.31208
2563 2 8.85773 15.9439 24.8016 -6.98067
1813 1 12.4008 14.1724 23.0301 -8.47674
2063 1 10.6293 15.9439 23.0301 -8.19218
2811 1 10.6293 14.1724 24.8016 -8.19572
3062 3 12.4008 15.9439 24.8016 -6.35924
2812 2 15.9439 14.1724 23.0301 -6.96544
3063 2 14.1724 15.9439 23.0301 -6.99209
3312 2 14.1724 14.1724 24.8016 -7.02551
3563 3 15.9439 15.9439 24.8016 -6.40035
751 2 1.77154 0 30.1163 -7.1091
47 1 0 1.77154 26.5732 -8.48817
298 1 0 0 28.3447 -8.53665
548 2 1.77154 1.77154 28.3447 -7.03009
1063 2 0 1.77154 30.1163 -7.04477
3813 2 1.77154 0 26.5732 -7.03586
299 2 5.31463 0 26.5732 -7.09365
549 2 3.54309 1.77154 26.5732 -7.00577
1314 2 3.54309 0 28.3447 -7.06904
1564 1 5.31463 1.77154 28.3447 -8.64044
1814 2 5.31463 0 30.1163 -7.0508
2064 3 3.54309 1.77154 30.1163 -6.65797
752 2 8.85773 0 26.5732 -6.98683
1064 2 7.08618 1.77154 26.5732 -7.01637
2313 2 7.08618 0 28.3447 -7.0203
2564 2 8.85773 1.77154 28.3447 -6.93169
2813 1 8.85773 0 30.1163 -8.27662
3064 2 7.08618 1.77154 30.1163 -6.97045
48 3 10.6293 1.77154 30.1163 -6.31336
1315 3 12.4008 0 26.5732 -6.25283
1565 3 10.6293 1.77154 26.5732 -6.36089
3313 1 10.6293 0 28.3447 -8.57637
3564 2 12.4008 1.77154 28.3447 -6.75984
3814 3 12.4008 0 30.1163 -6.37965
753 2 15.9439 0 30.1163 -6.97621
300 1 14.1724 0 28.3447 -8.48466
550 1 15.9439 1.77154 28.3447 -8.29408
1065 3 14.1724 1.77154 30.1163 -6.3506
1815 1 15.9439 0 26.5732 -8.46684
2065 3 14.1724 1.77154 26.5732 -6.32173
1316 3 0 3.54309 28.3447 -6.5332
1566 2 1.77154 5.31463 28.3447 -7.01922
1816 3 1.77154 3.54309 30.1163 -6.57938
2066 2 0 5.31463 30.1163 -6.99617
2314 1 1.77154 3.54309 26.5732 -8.29569
2565 2 0 5.31463 26.5732 -6.89409
2315 1 3.54309 3.54309 28.3447 -8.30753