ITEM: TIMESTEP
0
ITEM: NUMBER OF ATOMS
4000
ITEM: BOX BOUNDS pp pp pp
0.0000000000000000e+00 3.6243159999999996e+01
0.0000000000000000e+00 3.6243159999999996e+01
0.0000000000000000e+00 3.6243159999999996e+01
ITEM: ATOMS id type x y z c_peratom
267 3 0 0 0 -6.27668
516 1 1.81216 1.81216 0 -8.22634
767 2 1.81216 0 1.81216 -7.04109
1016 1 0 1.81216 1.81216 -8.00475
1267 1 0 0 3.62432 -8.13286
1517 3 1.81216 1.81216 3.62432 -6.46865
1268 2 3.62432 0 0 -7.00068
1518 2 5.43647 1.81216 0 -7.04889
1767 1 5.43647 0 1.81216 -7.97636
2017 2 3.62432 1.81216 1.81216 -7.03287
2266 1 3.62432 0 3.62432 -8.07994
2267 1 7.24863 0 0 -8.08491
2517 1 5.43647 1.81216 3.62432 -8.03158
3017 2 7.24863 1.81216 1.81216 -7.09692
3266 1 7.24863 0 3.62432 -7.86857
1 3 10.8729 1.81216 1.81216 -6.43245
268 3 10.8729 0 3.62432 -6.40632
2518 3 9.06079 1.81216 0 -6.46847
2766 1 9.06079 0 1.81216 -8.19695
3267 1 10.8729 0 0 -8.08396
3517 3 9.06079 1.81216 3.62432 -6.47119
517 3 12.6851 1.81216 3.62432 -6.50707
3518 2 12.6851 1.81216 0 -6.89897
3767 1 12.6851 0 1.81216 -8.28178
269 2 14.4973 0 0 -6.92059
518 3 16.3094 1.81216 0 -6.38187
768 1 16.3094 0 1.81216 -8.32251
1017 3 14.4973 1.81216 1.81216 -6.39754
1269 3 14.4973 0 3.62432 -6.38257
1519 2 16.3094 1.81216 3.62432 -7.06028
1270 1 0 3.62432 0 -7.96727
1520 1 1.81216 5.43647 0 -8.20844
1768 3 1.81216 3.62432 1.81216 -6.44613
2018 2 0 5.43647 1.81216 -7.02028
2271 1 0 7.24863 0 -7.93294
2268 1 0 3.62432 3.62432 -8.06607
2519 3 1.81216 5.43647 3.62432 -6.66425
2768 2 1.81216 7.24863 1.81216 -7.04926
3270 3 0 7.24863 3.62432 -6.57637
2 2 7.24863 5.43647 1.81216 -7.02852
273 1 7.24863 7.24863 0 -8.14072
272 3 3.62432 7.24863 3.62432 -6.57504
270 2 7.24863 3.62432 3.62432 -7.00745
1273 3 7.24863 7.24863 3.62432 -6.51388
2269 3 3.62432 3.62432 0 -6.55133
2520 3 5.43647 5.43647 0 -6.56186
2767 3 5.43647 3.62432 1.81216 -6.67573
3018 3 3.62432 5.43647 1.81216 -6.58341
3271 3 3.62432 7.24863 0 -6.52702
3269 2 7.24863 3.62432 0 -7.05697
3268 2 3.62432 3.62432 3.62432 -7.08128
3519 3 5.43647 5.43647 3.62432 -6.68507
3769 3 5.43647 7.24863 1.81216 -6.51398
271 3 10.8729 3.62432 0 -6.43129
519 1 9.06079 5.43647 3.62432 -8.23156
770 1 9.06079 7.24863 1.81216 -8.14245
1018 3 10.8729 5.43647 1.81216 -6.4738
1274 1 10.8729 7.24863 0 -8.01463
1271 2 10.8729 3.62432 3.62432 -6.96258
2272 2 10.8729 7.24863 3.62432 -7.05946
3520 2 9.06079 5.43647 0 -7.03936
3768 2 9.06079 3.62432 1.81216 -7.08138
520 1 12.6851 5.43647 0 -8.10732
769 1 12.6851 3.62432 1.81216 -8.32655
1521 2 12.6851 5.43647 3.62432 -7.02647
1770 3 12.6851 7.24863 1.81216 -6.55652
1272 1 14.4973 3.62432 0 -8.22571
1522 2 16.3094 5.43647 0 -6.99483
1769 1 16.3094 3.62432 1.81216 -8.12722
2019 3 14.4973 5.43647 1.81216 -6.44719
2273 3 14.4973 7.24863 0 -6.34741
2270 2 14.4973 3.62432 3.62432 -6.96238
2521 3 16.3094 5.43647 3.62432 -6.4825
2769 1 16.3094 7.24863 1.81216 -8.16571
3272 2 14.4973 7.24863 3.62432 -7.02483
274 3 0 10.8729 3.62432 -6.38381
2522 2 1.81216 9.06079 0 -7.06101
3019 1 0 9.06079 1.81216 -8.14292
3273 1 0 10.8729 0 -8.12395
3521 2 1.81216 9.06079 3.62432 -6.91797
3770 3 1.81216 10.8729 1.81216 -6.35219
3 1 3.62432 9.06079 1.81216 -8.31102
275 2 3.62432 10.8729 0 -6.99062
521 1 5.43647 9.06079 3.62432 -8.13794
771 1 5.43647 10.8729 1.81216 -7.85201
1019 2 7.24863 9.06079 1.81216 -7.02784
1276 1 7.24863 10.8729 0 -8.24581
1275 3 3.62432 10.8729 3.62432 -6.29773
2274 1 7.24863 10.8729 3.62432 -7.98046
3522 2 5.43647 9.06079 0 -6.99714
522 2 9.06079 9.06079 0 -7.11455
1523 3 9.06079 9.06079 3.62432 -6.50632
1771 2 9.06079 10.8729 1.81216 -6.98075
2020 3 10.8729 9.06079 1.81216 -6.59228
2275 3 10.8729 10.8729 0 -6.67371
3274 3 10.8729 10.8729 3.62432 -6.4401
1524 2 12.6851 9.06079 0 -6.93504
2523 2 12.6851 9.06079 3.62432 -6.99343
2770 3 12.6851 10.8729 1.81216 -6.55683
276 3 14.4973 10.8729 3.62432 -6.42204
2524 1 16.3094 9.06079 0 -8.11571
3020 3 14.4973 9.06079 1.81216 -6.49551
3275 3 14.4973 10.8729 0 -6.56633
3523 3 16.3094 9.06079 3.62432 -6.51064
3771 1 16.3094 10.8729 1.81216 -8.38586
4 2 0 12.6851 1.81216 -6.98388
523 1 1.81216 12.6851 3.62432 -8.10168
3524 3 1.81216 12.6851 0 -6.38072
524 1 5.43647 12.6851 0 -7.98727
1020 1 3.62432 12.6851 1.81216 -8.05464
1525 1 5.43647 12.6851 3.62432 -8.05304
2021 3 7.24863 12.6851 1.81216 -6.31364
1526 2 9.06079 12.6851 0 -7.01093
2525 1 9.06079 12.6851 3.62432 -8.18038
3021 3 10.8729 12.6851 1.81216 -6.51488
2526 3 12.6851 12.6851 0 -6.60258
3525 1 12.6851 12.6851 3.62432 -8.21322
5 3 14.4973 12.6851 1.81216 -6.48009
525 3 16.3094 12.6851 3.62432 -6.55142
3526 2 16.3094 12.6851 0 -6.9695
277 3 0 14.4973 0 -6.4771
526 1 1.81216 16.3094 0 -8.18542
772 3 1.81216 14.4973 1.81216 -6.30897
1021 2 0 16.3094 1.81216 -7.01579
1277 1 0 14.4973 3.62432 -8.00543
1527 1 1.81216 16.3094 3.62432 -8.04366
1278 1 3.62432 14.4973 0 -7.99422
1528 1 5.43647 16.3094 0 -8.25357
1772 3 5.43647 14.4973 1.81216 -6.2915
2022 2 3.62432 16.3094 1.81216 -6.95607
2277 1 7.24863 14.4973 0 -8.19206
2276 1 3.62432 14.4973 3.62432 -8.10774
2527 3 5.43647 16.3094 3.62432 -6.50081
3022 2 7.24863 16.3094 1.81216 -6.96557
3276 3 7.24863 14.4973 3.62432 -6.44357
6 2 10.8729 16.3094 1.81216 -7.00339
278 1 10.8729 14.4973 3.62432 -8.07985
2528 2 9.06079 16.3094 0 -6.93827
2771 3 9.06079 14.4973 1.81216 -6.46818
3277 3 10.8729 14.4973 0 -6.63148
3527 3 9.06079 16.3094 3.62432 -6.52941
527 1 12.6851 16.3094 3.62432 -8.16504
3528 1 12.6851 16.3094 0 -8.15757
3772 2 12.6851 14.4973 1.81216 -6.9013
279 3 14.4973 14.4973 0 -6.53296
528 3 16.3094 16.3094 0 -6.48082
773 1 16.3094 14.4973 1.81216 -8.39882
1022 3 14.4973 16.3094 1.81216 -6.35857
1279 2 14.4973 14.4973 3.62432 -7.03727
1529 3 16.3094 16.3094 3.62432 -6.39023
1773 2 1.81216 0 5.43647 -7.13641
2023 1 0 1.81216 5.43647 -7.92709
2278 1 0 0 7.24863 -8.02061
2529 1 1.81216 1.81216 7.24863 -8.12398
7 1 7.24863 1.81216 5.43647 -8.16085
2773 3 3.62432 0 7.24863 -6.61857
2772 2 5.43647 0 5.43647 -7.1428
3024 2 5.43647 1.81216 7.24863 -6.91371
3023 2 3.62432 1.81216 5.43647 -7.07481
3278 1 7.24863 0 7.24863 -8.12199
1023 3 10.8729 1.81216 5.43647 -6.49086
3529 3 9.06079 1.81216 7.24863 -6.38587
3774 3 10.8729 0 7.24863 -6.4827
3773 1 9.06079 0 5.43647 -8.16111
8 2 12.6851 1.81216 7.24863 -7.02305
774 3 12.6851 0 5.43647 -6.53661
280 2 14.4973 0 7.24863 -6.9507
529 3 16.3094 1.81216 7.24863 -6.40914
1774 1 16.3094 0 5.43647 -8.27236
2024 2 14.4973 1.81216 5.43647 -7.05636
775 1 0 3.62432 7.24863 -8.19941
1024 2 1.81216 5.43647 7.24863 -7.05918
2774 2 1.81216 3.62432 5.43647 -7.14117
3025 2 0 5.43647 5.43647 -7.01068
3279 1 0 7.24863 7.24863 -8.08941
3776 2 1.81216 7.24863 5.43647 -7.07255
9 2 3.62432 5.43647 5.43647 -7.06949
281 3 7.24863 7.24863 7.24863 -6.58556
777 3 5.43647 7.24863 5.43647 -6.5017
1025 3 7.24863 5.43647 5.43647 -6.53513
1280 3 3.62432 3.62432 7.24863 -6.5906
1530 1 5.43647 5.43647 7.24863 -8.49938
1775 3 7.24863 3.62432 7.24863 -6.53101
3777 3 3.62432 7.24863 7.24863 -6.6374
3775 2 5.43647 3.62432 5.43647 -7.04274
778 2 10.8729 7.24863 7.24863 -7.0814
776 3 9.06079 3.62432 5.43647 -6.456
1777 2 9.06079 7.24863 5.43647 -6.99082
2026 1 10.8729 5.43647 5.43647 -8.21463
2025 3 9.06079 5.43647 7.24863 -6.60472
2279 1 10.8729 3.62432 7.24863 -8.33679
1776 3 12.6851 3.62432 5.43647 -6.60323
2530 2 12.6851 5.43647 7.24863 -7.03525
2777 3 12.6851 7.24863 5.43647 -6.60193
1281 2 14.4973 7.24863 7.24863 -7.00232
2776 1 14.4973 3.62432 7.24863 -8.2218
2775 1 16.3094 3.62432 5.43647 -8.2277
3027 3 16.3094 5.43647 7.24863 -6.49077
3026 3 14.4973 5.43647 5.43647 -6.60296
3778 2 16.3094 7.24863 5.43647 -7.00884
10 1 0 9.06079 5.43647 -8.21405
779 1 1.81216 10.8729 5.43647 -8.12761
1778 3 0 10.8729 7.24863 -6.44468
3530 2 1.81216 9.06079 7.24863 -6.9717
11 3 5.43647 9.06079 7.24863 -6.6489
1026 1 3.62432 9.06079 5.43647 -8.29592
1779 3 5.43647 10.8729 5.43647 -6.43734
2027 2 7.24863 9.06079 5.43647 -6.95686
2280 2 3.62432 10.8729 7.24863 -7.10103
2779 2 7.24863 10.8729 7.24863 -7.0665
530 1 9.06079 9.06079 7.24863 -8.1868
2778 1 9.06079 10.8729 5.43647 -8.03957
3028 2 10.8729 9.06079 5.43647 -7.09408
3280 1 10.8729 10.8729 7.24863 -7.88335
1027 1 12.6851 9.06079 7.24863 -8.00135
3779 1 12.6851 10.8729 5.43647 -8.03047
12 1 14.4973 9.06079 5.43647 -8.20974
780 2 16.3094 10.8729 5.43647 -6.99877
1531 3 16.3094 9.06079 7.24863 -6.49635
3780 1 14.4973 10.8729 7.24863 -7.94683
1028 2 0 12.6851 5.43647 -7.05518
2028 2 1.81216 12.6851 7.24863 -7.05813
2029 2 3.62432 12.6851 5.43647 -7.06534
2531 2 5.43647 12.6851 7.24863 -7.09944
3029 1 7.24863 12.6851 5.43647 -8.05981
13 3 10.8729 12.6851 5.43647 -6.23919
3030 1 9.06079 12.6851 7.24863 -8.09361
3531 2 12.6851 12.6851 7.24863 -7.02179
14 1 16.3094 12.6851 7.24863 -7.95667
1029 1 14.4973 12.6851 5.43647 -8.05146
282 1 0 14.4973 7.24863 -8.17155
531 1 1.81216 16.3094 7.24863 -8.08379
1780 2 1.81216 14.4973 5.43647 -7.0569
2030 3 0 16.3094 5.43647 -6.30819
15 1 7.24863 16.3094 5.43647 -8.29804
781 1 3.62432 14.4973 7.24863 -8.19576
1030 2 5.43647 16.3094 7.24863 -7.05086
1282 2 7.24863 14.4973 7.24863 -7.11326
2780 2 5.43647 14.4973 5.43647 -7.07612
3031 3 3.62432 16.3094 5.43647 -6.42042
1031 1 10.8729 16.3094 5.43647 -8.08859
1532 1 9.06079 16.3094 7.24863 -8.01125
1781 3 10.8729 14.4973 7.24863 -6.32041
3781 2 9.06079 14.4973 5.43647 -6.97706
782 1 12.6851 14.4973 5.43647 -8.10197
2031 2 12.6851 16.3094 7.24863 -6.91548
1782 2 16.3094 14.4973 5.43647 -7.00373
2032 1 14.4973 16.3094 5.43647 -8.1785
2281 3 14.4973 14.4973 7.24863 -6.30768
2532 3 16.3094 16.3094 7.24863 -6.32189
16 2 0 1.81216 12.6851 -7.15676
2781 2 1.81216 0 9.06079 -7.01336
3032 3 0 1.81216 9.06079 -6.39703
3281 1 0 0 10.8729 -8.16463
3532 2 1.81216 1.81216 10.8729 -7.06195
3782 2 1.81216 0 12.6851 -6.96892
251 1 3.62432 0 10.8729 -8.2273
17 3 7.24863 1.81216 9.06079 -6.50442
532 1 5.43647 1.81216 10.8729 -8.16966
783 1 5.43647 0 12.6851 -8.20853
1032 2 3.62432 1.81216 12.6851 -7.01758
1283 2 7.24863 0 10.8729 -6.90446
2033 1 7.24863 1.81216 12.6851 -7.95946
3282 3 5.43647 0 9.06079 -6.40491
3533 1 3.62432 1.81216 9.06079 -8.16627
533 3 10.8729 1.81216 9.06079 -6.4727
1533 2 9.06079 1.81216 10.8729 -6.9863
1783 2 9.06079 0 12.6851 -7.01559
2282 1 10.8729 0 10.8729 -8.43241
3033 1 10.8729 1.81216 12.6851 -8.11852
3783 3 9.06079 0 9.06079 -6.44056
252 3 12.6851 0 9.06079 -6.52214
2533 3 12.6851 1.81216 10.8729 -6.43975
2782 3 12.6851 0 12.6851 -6.38186
18 2 14.4973 1.81216 12.6851 -7.03081
784 2 16.3094 0 9.06079 -7.00746
1033 2 14.4973 1.81216 9.06079 -7.00891
3283 1 14.4973 0 10.8729 -8.29329
3534 3 16.3094 1.81216 10.8729 -6.43238
3784 2 16.3094 0 12.6851 -7.03236
253 2 0 3.62432 10.8729 -7.09691
534 2 1.81216 5.43647 10.8729 -7.09601
785 2 1.81216 3.62432 12.6851 -7.12126
1034 1 0 5.43647 12.6851 -8.24913
1286 3 0 7.24863 10.8729 -6.47018
1284 3 1.81216 3.62432 9.06079 -6.53534
1534 3 0 5.43647 9.06079 -6.6005
1786 2 1.81216 7.24863 12.6851 -7.0231
3786 2 1.81216 7.24863 9.06079 -7.0501
255 2 5.43647 7.24863 9.06079 -6.99141
1285 3 3.62432 3.62432 10.8729 -6.50927
1535 2 5.43647 5.43647 10.8729 -6.97826
1785 1 5.43647 3.62432 12.6851 -7.93817
1784 3 5.43647 3.62432 9.06079 -6.46829
2035 1 3.62432 5.43647 12.6851 -8.12091
2034 3 3.62432 5.43647 9.06079 -6.66775
2285 2 3.62432 7.24863 10.8729 -7.13791
2284 3 7.24863 3.62432 10.8729 -6.52188
2534 3 7.24863 5.43647 9.06079 -6.66209
2785 2 5.43647 7.24863 12.6851 -7.06938
3034 1 7.24863 5.43647 12.6851 -8.13131
3286 2 7.24863 7.24863 10.8729 -7.12855
256 2 10.8729 7.24863 10.8729 -7.09008
19 3 10.8729 5.43647 12.6851 -6.56013
787 2 9.06079 7.24863 9.06079 -7.15388
2283 3 9.06079 3.62432 9.06079 -6.58365
2535 2 9.06079 5.43647 10.8729 -7.10116
2783 2 9.06079 3.62432 12.6851 -7.03512
3035 2 10.8729 5.43647 9.06079 -7.05331
3284 3 10.8729 3.62432 10.8729 -6.54044
3787 3 9.06079 7.24863 12.6851 -6.51746
788 3 12.6851 7.24863 12.6851 -6.40024
1287 1 12.6851 7.24863 9.06079 -8.21548
2784 1 12.6851 3.62432 9.06079 -8.26026
3535 3 12.6851 5.43647 10.8729 -6.45816
3785 1 12.6851 3.62432 12.6851 -8.18206
254 2 14.4973 3.62432 10.8729 -6.87505
535 2 16.3094 5.43647 10.8729 -7.04719
786 1 16.3094 3.62432 12.6851 -8.10642
1035 3 14.4973 5.43647 12.6851 -6.3666
1288 1 14.4973 7.24863 10.8729 -8.31413
1788 2 16.3094 7.24863 12.6851 -7.00703
1787 2 16.3094 7.24863 9.06079 -7.0078
3285 1 16.3094 3.62432 9.06079 -8.08426
3536 3 14.4973 5.43647 9.06079 -6.43142
20 1 0 9.06079 9.06079 -8.13624
1536 1 1.81216 9.06079 10.8729 -8.22476
2036 3 0 9.06079 12.6851 -6.44576
2287 3 0 10.8729 10.8729 -6.33853
2286 3 1.81216 10.8729 9.06079 -6.46463
2786 1 1.81216 10.8729 12.6851 -8.07939
257 3 7.24863 10.8729 10.8729 -6.50929
21 3 7.24863 9.06079 12.6851 -6.49274
536 3 3.62432 9.06079 9.06079 -6.63882
1036 3 7.24863 9.06079 9.06079 -6.66199
2536 1 5.43647 9.06079 10.8729 -8.37641
2787 2 5.43647 10.8729 9.06079 -7.06148
3036 1 3.62432 9.06079 12.6851 -8.03774
3287 3 3.62432 10.8729 10.8729 -6.44089
3788 3 5.43647 10.8729 12.6851 -6.40462
789 1 9.06079 10.8729 12.6851 -7.98364
1037 1 10.8729 9.06079 12.6851 -8.03208
1289 1 10.8729 10.8729 10.8729 -8.09216
1537 2 10.8729 9.06079 9.06079 -7.15613
3288 2 9.06079 10.8729 9.06079 -7.05257
3537 2 9.06079 9.06079 10.8729 -7.05627
537 2 12.6851 9.06079 10.8729 -6.99169
1789 1 12.6851 10.8729 12.6851 -8.04812
3789 2 12.6851 10.8729 9.06079 -7.03906
258 1 16.3094 10.8729 9.06079 -7.91753
1538 1 16.3094 9.06079 10.8729 -7.96324
2038 3 14.4973 9.06079 12.6851 -6.31532
2037 3 14.4973 9.06079 9.06079 -6.36707
2288 1 14.4973 10.8729 10.8729 -8.0787
2788 2 16.3094 10.8729 12.6851 -6.99064
2538 3 1.81216 12.6851 10.8729 -6.29064
2537 1 0 12.6851 9.06079 -8.27396
3037 1 0 12.6851 12.6851 -8.09332
22 1 3.62432 12.6851 12.6851 -8.17079
1038 1 7.24863 12.6851 12.6851 -8.05387
3038 3 3.62432 12.6851 9.06079 -6.58159
3539 3 7.24863 12.6851 9.06079 -6.63139
3538 2 5.43647 12.6851 10.8729 -7.003
23 1 10.8729 12.6851 9.06079 -7.98838
538 3 9.06079 12.6851 10.8729 -6.40215
2039 3 10.8729 12.6851 12.6851 -6.26356
1539 2 12.6851 12.6851 10.8729 -7.13961
539 2 14.4973 12.6851 9.06079 -7.03446
2539 3 16.3094 12.6851 10.8729 -6.31874
3039 1 14.4973 12.6851 12.6851 -7.98309
24 1 0 16.3094 12.6851 -8.02345
790 2 1.81216 14.4973 9.06079 -7.02119
1039 1 0 16.3094 9.06079 -7.9408
3289 1 0 14.4973 10.8729 -7.95301
3540 1 1.81216 16.3094 10.8729 -8.10095
3790 3 1.81216 14.4973 12.6851 -6.21836
259 1 3.62432 14.4973 10.8729 -8.1864
540 2 5.43647 16.3094 10.8729 -7.00503
791 3 5.43647 14.4973 12.6851 -6.35142
1040 3 3.62432 16.3094 12.6851 -6.38249
1291 2 7.24863 14.4973 10.8729 -7.07324
1290 1 5.43647 14.4973 9.06079 -8.23094
1540 3 3.62432 16.3094 9.06079 -6.37101
2041 1 7.24863 16.3094 12.6851 -8.11943
2040 2 7.24863 16.3094 9.06079 -7.08079
1541 2 9.06079 16.3094 10.8729 -7.08289
1791 1 9.06079 14.4973 12.6851 -8.01894
1790 2 9.06079 14.4973 9.06079 -7.05138
2290 2 10.8729 14.4973 10.8729 -7.01873
2540 1 10.8729 16.3094 9.06079 -8.17189
3040 3 10.8729 16.3094 12.6851 -6.47434
2289 1 12.6851 14.4973 9.06079 -8.19797
2541 3 12.6851 16.3094 10.8729 -6.46008
2789 1 12.6851 14.4973 12.6851 -8.26239
25 3 14.4973 16.3094 12.6851 -6.52852
2790 1 16.3094 14.4973 9.06079 -8.08833
3041 1 14.4973 16.3094 9.06079 -8.20581
3290 2 14.4973 14.4973 10.8729 -7.00684
3541 2 16.3094 16.3094 10.8729 -7.02325
3791 1 16.3094 14.4973 12.6851 -8.29266
260 3 0 0 14.4973 -6.51642
541 3 1.81216 1.81216 14.4973 -6.56112
792 1 1.81216 0 16.3094 -8.37611
1041 1 0 1.81216 16.3094 -8.16065
1292 3 3.62432 0 14.4973 -6.40315
1542 2 5.43647 1.81216 14.4973 -7.02451
1792 1 5.43647 0 16.3094 -8.30911
2042 3 3.62432 1.81216 16.3094 -6.45186
2291 1 7.24863 0 14.4973 -7.97378
3042 1 7.24863 1.81216 16.3094 -7.99388
26 3 10.8729 1.81216 16.3094 -6.48069
2542 1 9.06079 1.81216 14.4973 -8.00348
2791 1 9.06079 0 16.3094 -8.0985
3291 2 10.8729 0 14.4973 -6.99917
3542 2 12.6851 1.81216 14.4973 -6.97817
3792 3 12.6851 0 16.3094 -6.53503
261 1 14.4973 0 14.4973 -8.1572
542 1 16.3094 1.81216 14.4973 -8.02916
793 1 16.3094 0 16.3094 -8.06444
1042 3 14.4973 1.81216 16.3094 -6.38176
1293 2 0 3.62432 14.4973 -7.05282
1543 3 1.81216 5.43647 14.4973 -6.48772
1793 2 1.81216 3.62432 16.3094 -6.927
2043 1 0 5.43647 16.3094 -8.0069
2293 2 0 7.24863 14.4973 -7.04585
2793 1 1.81216 7.24863 16.3094 -8.20634
263 3 7.24863 7.24863 14.4973 -6.42748
27 1 7.24863 5.43647 16.3094 -8.09499
2292 1 3.62432 3.62432 14.4973 -8.22037
2543 1 5.43647 5.43647 14.4973 -8.03365
2792 3 5.43647 3.62432 16.3094 -6.36609
3043 3 3.62432 5.43647 16.3094 -6.54027
3293 2 3.62432 7.24863 14.4973 -7.08897
3292 1 7.24863 3.62432 14.4973 -7.8499
3794 2 5.43647 7.24863 16.3094 -7.06168
262 2 10.8729 3.62432 14.4973 -6.97506
795 1 9.06079 7.24863 16.3094 -8.12852
1043 3 10.8729 5.43647 16.3094 -6.45524
1295 3 10.8729 7.24863 14.4973 -6.32478
3543 2 9.06079 5.43647 14.4973 -6.96154
3793 1 9.06079 3.62432 16.3094 -8.10614
543 1 12.6851 5.43647 14.4973 -8.32396
794 3 12.6851 3.62432 16.3094 -6.44348
1795 3 12.6851 7.24863 16.3094 -6.33372
1294 1 14.4973 3.62432 14.4973 -8.03937
1544 1 16.3094 5.43647 14.4973 -8.0699
1794 2 16.3094 3.62432 16.3094 -7.05429
2044 1 14.4973 5.43647 16.3094 -8.08443
2294 3 14.4973 7.24863 14.4973 -6.24321
2794 3 16.3094 7.24863 16.3094 -6.30286
2544 1 1.81216 9.06079 14.4973 -8.15465
3044 2 0 9.06079 16.3094 -7.0172
3294 3 0 10.8729 14.4973 -6.38022
3795 2 1.81216 10.8729 16.3094 -7.0203
264 2 3.62432 10.8729 14.4973 -7.01289
28 3 3.62432 9.06079 16.3094 -6.42886
796 1 5.43647 10.8729 16.3094 -7.99011
1044 2 7.24863 9.06079 16.3094 -7.10262
1296 1 7.24863 10.8729 14.4973 -8.01455
3544 2 5.43647 9.06079 14.4973 -7.02511
544 1 9.06079 9.06079 14.4973 -8.06173
1796 2 9.06079 10.8729 16.3094 -7.05696
2045 1 10.8729 9.06079 16.3094 -8.07816
2295 2 10.8729 10.8729 14.4973 -7.08897
1545 1 12.6851 9.06079 14.4973 -8.15477
2795 1 12.6851 10.8729 16.3094 -8.13998
2545 1 16.3094 9.06079 14.4973 -8.17315
3045 1 14.4973 9.06079 16.3094 -8.17003
3295 3 14.4973 10.8729 14.4973 -6.25367
3796 3 16.3094 10.8729 16.3094 -6.43667
29 1 0 12.6851 16.3094 -8.28783
3545 3 1.81216 12.6851 14.4973 -6.30901
545 2 5.43647 12.6851 14.4973 -7.03456
1045 1 3.62432 12.6851 16.3094 -8.06232
2046 2 7.24863 12.6851 16.3094 -7.14006
1546 1 9.06079 12.6851 14.4973 -7.94824
3046 2 10.8729 12.6851 16.3094 -7.11238
2546 3 12.6851 12.6851 14.4973 -6.29316
30 3 14.4973 12.6851 16.3094 -6.35106
3546 1 16.3094 12.6851 14.4973 -8.06056
265 2 0 14.4973 14.4973 -7.01268
546 1 1.81216 16.3094 14.4973 -8.21387
797 2 1.81216 14.4973 16.3094 -6.99151
1046 1 0 16.3094 16.3094 -8.21165
1297 1 3.62432 14.4973 14.4973 -8.11046
1547 1 5.43647 16.3094 14.4973 -8.28387
1797 2 5.43647 14.4973 16.3094 -7.03772
2047 3 3.62432 16.3094 16.3094 -6.44784
2296 1 7.24863 14.4973 14.4973 -7.95909
3047 3 7.24863 16.3094 16.3094 -6.32561
31 2 10.8729 16.3094 16.3094 -7.1465
2547 1 9.06079 16.3094 14.4973 -8.03051
2796 1 9.06079 14.4973 16.3094 -8.01754
3296 1 10.8729 14.4973 14.4973 -8.00709
3547 2 12.6851 16.3094 14.4973 -6.98068
3797 1 12.6851 14.4973 16.3094 -8.19629
266 2 14.4973 14.4973 14.4973 -6.93554
547 3 16.3094 16.3094 14.4973 -6.47384
798 1 16.3094 14.4973 16.3094 -8.26134
1047 3 14.4973 16.3094 16.3094 -6.38368
1298 2 0 0 18.1216 -6.96603
1548 3 1.81216 1.81216 18.1216 -6.32466
1798 2 1.81216 0 19.9337 -6.93917
2048 1 0 1.81216 19.9337 -8.19404
2297 3 0 0 21.7459 -6.49785
2548 1 1.81216 1.81216 21.7459 -7.91739
32 3 7.24863 1.81216 19.9337 -6.41285
283 3 7.24863 0 21.7459 -6.4354
2298 3 3.62432 0 18.1216 -6.35999
2549 3 5.43647 1.81216 18.1216 -6.36959
2797 2 5.43647 0 19.9337 -6.9707
3048 1 3.62432 1.81216 19.9337 -8.11224
3298 3 7.24863 0 18.1216 -6.35464
3297 1 3.62432 0 21.7459 -7.9182
3548 1 5.43647 1.81216 21.7459 -8.12527
501 1 9.06079 1.81216 21.7459 -8.18597
284 3 10.8729 0 18.1216 -6.4992
1048 1 10.8729 1.81216 19.9337 -8.29518
1299 1 10.8729 0 21.7459 -8.29879
3549 1 9.06079 1.81216 18.1216 -8.25388
3798 3 9.06079 0 19.9337 -6.36837
502 2 12.6851 1.81216 18.1216 -6.87985
799 3 12.6851 0 19.9337 -6.39515
1549 3 12.6851 1.81216 21.7459 -6.30252
1300 3 14.4973 0 18.1216 -6.45094
1550 1 16.3094 1.81216 18.1216 -8.17173
1799 2 16.3094 0 19.9337 -7.00388
2049 3 14.4973 1.81216 19.9337 -6.37739
2299 1 14.4973 0 21.7459 -8.17429
2550 1 16.3094 1.81216 21.7459 -8.0215
287 3 0 7.24863 21.7459 -6.55498
2300 1 0 3.62432 18.1216 -8.05539
2551 2 1.81216 5.43647 18.1216 -6.96402
2798 1 1.81216 3.62432 19.9337 -8.00404
3049 3 0 5.43647 19.9337 -6.31991
3302 3 0 7.24863 18.1216 -6.36717
3299 1 0 3.62432 21.7459 -8.02795
3550 1 1.81216 5.43647 21.7459 -8.02004
3800 2 1.81216 7.24863 19.9337 -6.93827
503 3 5.43647 5.43647 21.7459 -6.3584
33 1 3.62432 5.43647 19.9337 -8.22415
288 2 3.62432 7.24863 18.1216 -7.09125
286 3 7.24863 3.62432 18.1216 -6.36583
285 1 3.62432 3.62432 21.7459 -7.92003
801 2 5.43647 7.24863 19.9337 -6.98549
1049 1 7.24863 5.43647 19.9337 -8.3962
1304 2 7.24863 7.24863 18.1216 -7.03924
1303 3 3.62432 7.24863 21.7459 -6.3611
1301 2 7.24863 3.62432 21.7459 -6.94036
2303 1 7.24863 7.24863 21.7459 -8.24494
3300 3 3.62432 3.62432 18.1216 -6.44893
3551 3 5.43647 5.43647 18.1216 -6.48709
3799 2 5.43647 3.62432 19.9337 -6.92751
504 2 9.06079 5.43647 18.1216 -6.94174
800 3 9.06079 3.62432 19.9337 -6.43685
1302 3 10.8729 3.62432 18.1216 -6.47496
1551 3 9.06079 5.43647 21.7459 -6.51734
1801 3 9.06079 7.24863 19.9337 -6.55622
2050 2 10.8729 5.43647 19.9337 -6.9756
2304 3 10.8729 7.24863 18.1216 -6.44685
2301 3 10.8729 3.62432 21.7459 -6.45673
3303 2 10.8729 7.24863 21.7459 -7.0302
1552 3 12.6851 5.43647 18.1216 -6.42233
1800 3 12.6851 3.62432 19.9337 -6.40746
2552 2 12.6851 5.43647 21.7459 -7.0511
2800 1 12.6851 7.24863 19.9337 -8.19117
289 1 14.4973 7.24863 21.7459 -8.11022
2302 1 14.4973 3.62432 18.1216 -8.15441
2553 1 16.3094 5.43647 18.1216 -8.09804
2799 2 16.3094 3.62432 19.9337 -7.08588
3050 1 14.4973 5.43647 19.9337 -7.94849
3304 2 14.4973 7.24863 18.1216 -7.03681
3301 1 14.4973 3.62432 21.7459 -8.08402
3552 1 16.3094 5.43647 21.7459 -7.99247
3801 1 16.3094 7.24863 19.9337 -8.00271
505 3 1.81216 9.06079 21.7459 -6.54292
34 2 0 9.06079 19.9337 -6.99732
290 1 0 10.8729 18.1216 -8.05386
802 3 1.81216 10.8729 19.9337 -6.36957
1305 2 0 10.8729 21.7459 -7.07486
3553 1 1.81216 9.06079 18.1216 -8.0379
506 1 5.43647 9.06079 18.1216 -8.07894
1050 1 3.62432 9.06079 19.9337 -8.09262
1306 1 3.62432 10.8729 18.1216 -7.90461
1553 1 5.43647 9.06079 21.7459 -8.11594
1802 1 5.43647 10.8729 19.9337 -8.00279
2051 3 7.24863 9.06079 19.9337 -6.35361
2306 1 7.24863 10.8729 18.1216 -7.98565
2305 3 3.62432 10.8729 21.7459 -6.50207
3305 3 7.24863 10.8729 21.7459 -6.54421
291 2 10.8729 10.8729 21.7459 -6.97613
1554 1 9.06079 9.06079 18.1216 -8.20466
2554 3 9.06079 9.06079 21.7459 -6.60659
2801 3 9.06079 10.8729 19.9337 -6.48409
3051 3 10.8729 9.06079 19.9337 -6.58347
3306 2 10.8729 10.8729 18.1216 -7.01535
2555 2 12.6851 9.06079 18.1216 -6.92646
3554 2 12.6851 9.06079 21.7459 -7.07755
3802 3 12.6851 10.8729 19.9337 -6.52921
507 3 16.3094 9.06079 21.7459 -6.44885
35 2 14.4973 9.06079 19.9337 -7.02362
292 3 14.4973 10.8729 18.1216 -6.38228
803 1 16.3094 10.8729 19.9337 -8.1179
1307 1 14.4973 10.8729 21.7459 -8.15792
3555 1 16.3094 9.06079 18.1216 -8.17132
508 3 1.81216 12.6851 18.1216 -6.26598
1051 1 0 12.6851 19.9337 -8.20359
1555 2 1.81216 12.6851 21.7459 -7.07101
1556 1 5.43647 12.6851 18.1216 -8.03431
2052 1 3.62432 12.6851 19.9337 -8.08884
2556 2 5.43647 12.6851 21.7459 -7.04076
3052 3 7.24863 12.6851 19.9337 -6.33164
36 3 10.8729 12.6851 19.9337 -6.387
2557 1 9.06079 12.6851 18.1216 -8.18414
3556 3 9.06079 12.6851 21.7459 -6.463
509 3 12.6851 12.6851 21.7459 -6.34545
3557 1 12.6851 12.6851 18.1216 -8.22727
510 2 16.3094 12.6851 18.1216 -6.98722
1052 3 14.4973 12.6851 19.9337 -6.39149
1557 1 16.3094 12.6851 21.7459 -7.95614
1308 3 0 14.4973 18.1216 -6.4021
1558 3 1.81216 16.3094 18.1216 -6.51107
1803 1 1.81216 14.4973 19.9337 -8.23173
2053 3 0 16.3094 19.9337 -6.51638
2307 3 0 14.4973 21.7459 -6.49743
2558 2 1.81216 16.3094 21.7459 -7.01336
37 2 7.24863 16.3094 19.9337 -6.97509
293 3 7.24863 14.4973 21.7459 -6.41659
2308 1 3.62432 14.4973 18.1216 -8.0368
2559 1 5.43647 16.3094 18.1216 -8.36973
2802 3 5.43647 14.4973 19.9337 -6.39284
3053 2 3.62432 16.3094 19.9337 -7.00269
3308 3 7.24863 14.4973 18.1216 -6.30361
3307 2 3.62432 14.4973 21.7459 -7.09693
3558 1 5.43647 16.3094 21.7459 -8.1223
511 1 9.06079 16.3094 21.7459 -7.9055
294 3 10.8729 14.4973 18.1216 -6.22041
1053 3 10.8729 16.3094 19.9337 -6.30584
1309 1 10.8729 14.4973 21.7459 -8.05405
3559 1 9.06079 16.3094 18.1216 -8.21072
3803 1 9.06079 14.4973 19.9337 -8.14074
512 1 12.6851 16.3094 18.1216 -8.21293
804 1 12.6851 14.4973 19.9337 -8.19708
1559 2 12.6851 16.3094 21.7459 -6.98174
1310 2 14.4973 14.4973 18.1216 -6.99776
1560 1 16.3094 16.3094 18.1216 -8.26806
1804 2 16.3094 14.4973 19.9337 -6.97126
2054 3 14.4973 16.3094 19.9337 -6.378
2309 2 14.4973 14.4973 21.7459 -6.99159
2560 1 16.3094 16.3094 21.7459 -8.10942
2803 1 1.81216 0 23.5581 -8.28687
3054 2 0 1.81216 23.5581 -7.0483
3309 2 0 0 25.3702 -7.0341
3560 3 1.81216 1.81216 25.3702 -6.55567
39 3 5.43647 1.81216 25.3702 -6.48043
38 3 3.62432 1.81216 23.5581 -6.33381
295 3 7.24863 0 25.3702 -6.51427
1054 2 7.24863 1.81216 23.5581 -7.08695
3805 3 3.62432 0 25.3702 -6.48029
3804 2 5.43647 0 23.5581 -6.92613
513 2 9.06079 1.81216 25.3702 -7.10436
806 1 10.8729 0 25.3702 -8.09776
805 2 9.06079 0 23.5581 -6.97922
2055 1 10.8729 1.81216 23.5581 -8.10536
1055 3 12.6851 1.81216 25.3702 -6.49904
1805 2 12.6851 0 23.5581 -6.97884
1311 3 14.4973 0 25.3702 -6.61627
1561 1 16.3094 1.81216 25.3702 -8.13419
2804 2 16.3094 0 23.5581 -7.08635
3055 1 14.4973 1.81216 23.5581 -8.10137
40 2 0 5.43647 23.5581 -7.08025
296 3 0 7.24863 25.3702 -6.56099
808 1 1.81216 7.24863 23.5581 -8.27203
1806 1 0 3.62432 25.3702 -8.204
2056 3 1.81216 5.43647 25.3702 -6.43471
3806 2 1.81216 3.62432 23.5581 -6.95484
809 1 3.62432 7.24863 25.3702 -7.90116
807 1 5.43647 3.62432 23.5581 -8.18084
1056 2 3.62432 5.43647 23.5581 -7.027
1312 1 7.24863 7.24863 25.3702 -8.16272
1808 1 5.43647 7.24863 23.5581 -8.12508
2057 3 7.24863 5.43647 23.5581 -6.27669
2310 1 3.62432 3.62432 25.3702 -8.21753
2561 2 5.43647 5.43647 25.3702 -7.06599
2805 1 7.24863 3.62432 25.3702 -8.17474
1809 1 10.8729 7.24863 25.3702 -8.17323
1807 1 9.06079 3.62432 23.5581 -8.11675
2807 3 9.06079 7.24863 23.5581 -6.4658
3057 2 10.8729 5.43647 23.5581 -6.98202
3056 3 9.06079 5.43647 25.3702 -6.23522
3310 1 10.8729 3.62432 25.3702 -8.00551
2806 3 12.6851 3.62432 23.5581 -6.38727
3561 1 12.6851 5.43647 25.3702 -8.03324
3809 3 12.6851 7.24863 23.5581 -6.54654
42 2 16.3094 5.43647 25.3702 -7.01737
41 2 14.4973 5.43647 23.5581 -7.02845
810 2 16.3094 7.24863 23.5581 -7.03096
2311 3 14.4973 7.24863 25.3702 -6.41368
3808 2 14.4973 3.62432 25.3702 -7.09436
3807 2 16.3094 3.62432 23.5581 -7.13796
514 2 1.81216 9.06079 25.3702 -7.02186
1057 2 0 9.06079 23.5581 -7.11608
1810 3 1.81216 10.8729 23.5581 -6.67983
2808 2 0 10.8729 25.3702 -7.09453
1058 1 5.43647 9.06079 25.3702 -8.07751
2058 3 3.62432 9.06079 23.5581 -6.44413
2809 2 5.43647 10.8729 23.5581 -7.05796
3058 2 7.24863 9.06079 23.5581 -7.04959
3311 2 3.62432 10.8729 25.3702 -7.08083
3811 3 7.24863 10.8729 25.3702 -6.61539
43 2 10.8729 9.06079 23.5581 -7.03757
297 1 10.8729 10.8729 25.3702 -8.11972
1562 3 9.06079 9.06079 25.3702 -6.5094
3810 2 9.06079 10.8729 23.5581 -7.04118
811 1 12.6851 10.8729 23.5581 -8.03619
2059 3 12.6851 9.06079 25.3702 -6.39635
812 2 14.4973 10.8729 25.3702 -6.9461
1059 2 14.4973 9.06079 23.5581 -6.97811
1811 3 16.3094 10.8729 23.5581 -6.31915
2562 1 16.3094 9.06079 25.3702 -8.15341
2060 3 0 12.6851 23.5581 -6.60113
3059 1 1.81216 12.6851 25.3702 -8.21064
44 2 7.24863 12.6851 23.5581 -7.0652
3060 2 3.62432 12.6851 23.5581 -7.16826
3562 3 5.43647 12.6851 25.3702 -6.80512
45 1 9.06079 12.6851 25.3702 -7.95415
1060 1 10.8729 12.6851 23.5581 -8.05437
515 1 12.6851 12.6851 25.3702 -8.04775
1061 3 16.3094 12.6851 25.3702 -6.36833
2061 1 14.4973 12.6851 23.5581 -8.1045
1313 1 0 14.4973 25.3702 -8.13088
1563 2 1.81216 16.3094 25.3702 -7.03864
2810 2 1.81216 14.4973 23.5581 -7.07424
3061 3 0 16.3094 23.5581 -6.52669
46 1 3.62432 16.3094 23.5581 -8.1325
1062 1 7.24863 16.3094 23.5581 -8.01895
1812 2 3.62432 14.4973 25.3702 -7.1243
2062 2 5.43647 16.3094 25.3702 -7.06707
2312 2 7.24863 14.4973 25.3702 -7.10422
3812 2 5.43647 14.4973 23.5581 -7.17285
813 1 9.06079 14.4973 23.5581 -8.05283
2063 1 10.8729 16.3094 23.5581 -8.25856
2563 3 9.06079 16.3094 25.3702 -6.22037
2811 3 10.8729 14.4973 25.3702 -6.22121
1813 3 12.6851 14.4973 23.5581 -6.36599
3062 3 12.6851 16.3094 25.3702 -6.44035
2812 1 16.3094 14.4973 23.5581 -7.91542
3063 2 14.4973 16.3094 23.5581 -7.01579
3312 2 14.4973 14.4973 25.3702 -7.04107
3563 1 16.3094 16.3094 25.3702 -8.15967
751 1 1.81216 0 30.8067 -8.12711
47 2 0 1.81216 27.1824 -7.15035
298 3 0 0 28.9945 -6.59608
548 2 1.81216 1.81216 28.9945 -7.16536
1063 1 0 1.81216 30.8067 -8.15672
3813 2 1.81216 0 27.1824 -7.02154
299 1 5.43647 0 27.1824 -8.43302
549 3 3.62432 1.81216 27.1824 -6.64254
1064 2 7.24863 1.81216 27.1824 -7.11557
1314 2 3.62432 0 28.9945 -7.11129
1564 2 5.43647 1.81216 28.9945 -7.13101
1814 1 5.43647 0 30.8067 -8.20125
2064 2 3.62432 1.81216 30.8067 -7.11705
2313 2 7.24863 0 28.9945 -7.05724
3064 3 7.24863 1.81216 30.8067 -6.57753
752 1 9.06079 0 27.1824 -8.14044
48 1 10.8729 1.81216 30.8067 -8.10255
1565 2 10.8729 1.81216 27.1824 -7.05712
2564 2 9.06079 1.81216 28.9945 -7.12265
2813 1 9.06079 0 30.8067 -8.19443
3313 2 10.8729 0 28.9945 -7.04263
1315 2 12.6851 0 27.1824 -7.0136
3564 3 12.6851 1.81216 28.9945 -6.48984
3814 1 12.6851 0 30.8067 -8.18591
753 2 16.3094 0 30.8067 -6.98708
300 1 14.4973 0 28.9945 -8.13838
550 1 16.3094 1.81216 28.9945 -7.85512
1065 2 14.4973 1.81216 30.8067 -7.03835
1815 2 16.3094 0 27.1824 -7.05494
2065 2 14.4973 1.81216 27.1824 -7.12258
755 1 1.81216 7.24863 27.1824 -8.06645
1316 2 0 3.62432 28.9945 -7.14613
1566 2 1.81216 5.43647 28.9945 -7.05282
1816 3 1.81216 3.62432 30.8067 -6.67609
2066 3 0 5.43647 30.8067 -6.65316