ITEM: TIMESTEP
0
ITEM: NUMBER OF ATOMS
4000
ITEM: BOX BOUNDS pp pp pp
0.0000000000000000e+00 3.5907429999999998e+01
0.0000000000000000e+00 3.5907429999999998e+01
0.0000000000000000e+00 3.5907429999999998e+01
ITEM: ATOMS id type x y z c_peratom
267 3 0 0 0 -6.66875
516 3 1.79537 1.79537 0 -6.53703
767 2 1.79537 0 1.79537 -7.04554
1016 2 0 1.79537 1.79537 -7.0123
1267 2 0 0 3.59074 -7.01359
1268 3 3.59074 0 0 -6.66419
1270 3 0 3.59074 0 -6.43058
1517 1 1.79537 1.79537 3.59074 -8.18119
1768 2 1.79537 3.59074 1.79537 -6.97535
2017 3 3.59074 1.79537 1.79537 -6.45046
2266 1 3.59074 0 3.59074 -8.45858
2268 2 0 3.59074 3.59074 -6.97152
2269 1 3.59074 3.59074 0 -8.34072
3268 1 3.59074 3.59074 3.59074 -8.29476
1518 2 5.38611 1.79537 0 -6.98982
1767 2 5.38611 0 1.79537 -6.99259
2517 3 5.38611 1.79537 3.59074 -6.53441
2767 1 5.38611 3.59074 1.79537 -8.3799
1 2 10.7722 1.79537 1.79537 -6.90531
268 3 10.7722 0 3.59074 -6.43376
270 3 7.18149 3.59074 3.59074 -6.39866
271 1 10.7722 3.59074 0 -8.42658
1271 1 10.7722 3.59074 3.59074 -8.24176
2267 3 7.18149 0 0 -6.54791
2518 1 8.97686 1.79537 0 -8.35985
2766 3 8.97686 0 1.79537 -6.51971
3017 3 7.18149 1.79537 1.79537 -6.54416
3266 2 7.18149 0 3.59074 -6.95331
3269 2 7.18149 3.59074 0 -6.96734
3267 3 10.7722 0 0 -6.28893
3517 3 8.97686 1.79537 3.59074 -6.54246
3768 3 8.97686 3.59074 1.79537 -6.37101
517 1 12.5676 1.79537 3.59074 -8.14421
769 2 12.5676 3.59074 1.79537 -6.98111
3518 3 12.5676 1.79537 0 -6.39876
3767 1 12.5676 0 1.79537 -8.59412
269 2 14.363 0 0 -6.96711
376 1 17.9537 0 0 -8.30363
518 2 16.1583 1.79537 0 -7.06026
768 1 16.1583 0 1.79537 -8.34264
1017 3 14.363 1.79537 1.79537 -6.49277
1126 3 17.9537 1.79537 1.79537 -6.29165
1379 2 17.9537 3.59074 0 -6.96345
1376 1 17.9537 0 3.59074 -8.14147
1269 2 14.363 0 3.59074 -7.00725
1272 2 14.363 3.59074 0 -7.04753
1519 2 16.1583 1.79537 3.59074 -7.06333
1769 1 16.1583 3.59074 1.79537 -8.44495
2270 2 14.363 3.59074 3.59074 -7.05119
2393 1 17.9537 3.59074 3.59074 -8.05152
1520 3 1.79537 5.38611 0 -6.35437
2018 1 0 5.38611 1.79537 -8.37845
2519 1 1.79537 5.38611 3.59074 -8.28814
3018 2 3.59074 5.38611 1.79537 -6.90452
2520 3 5.38611 5.38611 0 -6.3304
3519 3 5.38611 5.38611 3.59074 -6.3236
2 1 7.18149 5.38611 1.79537 -8.41335
519 1 8.97686 5.38611 3.59074 -8.2252
1018 3 10.7722 5.38611 1.79537 -6.53309
3520 3 8.97686 5.38611 0 -6.45588
520 3 12.5676 5.38611 0 -6.58261
1521 2 12.5676 5.38611 3.59074 -7.06255
1522 2 16.1583 5.38611 0 -7.01204
2002 3 17.9537 5.38611 1.79537 -6.50571
2019 3 14.363 5.38611 1.79537 -6.63647
2521 1 16.1583 5.38611 3.59074 -8.19933
3 3 3.59074 8.97686 1.79537 -6.30114
272 1 3.59074 7.18149 3.59074 -8.281
274 3 0 10.7722 3.59074 -6.52685
275 1 3.59074 10.7722 0 -8.25079
1275 2 3.59074 10.7722 3.59074 -7.04028
2271 3 0 7.18149 0 -6.37392
2522 2 1.79537 8.97686 0 -6.91303
2768 3 1.79537 7.18149 1.79537 -6.36309
3019 2 0 8.97686 1.79537 -6.96045
3273 3 0 10.7722 0 -6.42475
3271 1 3.59074 7.18149 0 -8.28809
3270 3 0 7.18149 3.59074 -6.30895
3521 1 1.79537 8.97686 3.59074 -8.32764
3770 2 1.79537 10.7722 1.79537 -6.99453
521 3 5.38611 8.97686 3.59074 -6.35961
771 3 5.38611 10.7722 1.79537 -6.41914
3522 1 5.38611 8.97686 0 -8.12351
3769 1 5.38611 7.18149 1.79537 -8.14765
273 3 7.18149 7.18149 0 -6.28104
522 1 8.97686 8.97686 0 -8.37563
770 3 8.97686 7.18149 1.79537 -6.36219
1019 1 7.18149 8.97686 1.79537 -8.37373
1276 3 7.18149 10.7722 0 -6.29947
1274 2 10.7722 7.18149 0 -6.93986
1273 3 7.18149 7.18149 3.59074 -6.25983
1523 2 8.97686 8.97686 3.59074 -6.95715
1771 2 8.97686 10.7722 1.79537 -6.95411
2020 1 10.7722 8.97686 1.79537 -8.47342
2272 2 10.7722 7.18149 3.59074 -7.10768
2275 3 10.7722 10.7722 0 -6.55851
2274 2 7.18149 10.7722 3.59074 -7.01761
3274 3 10.7722 10.7722 3.59074 -6.51373
1524 2 12.5676 8.97686 0 -6.95615
1770 2 12.5676 7.18149 1.79537 -7.07212
2523 2 12.5676 8.97686 3.59074 -6.98422
2770 3 12.5676 10.7722 1.79537 -6.56888
383 2 17.9537 10.7722 3.59074 -6.97941
276 3 14.363 10.7722 3.59074 -6.49692
2273 3 14.363 7.18149 0 -6.56588
2396 3 17.9537 7.18149 0 -6.41668
2524 2 16.1583 8.97686 0 -6.9143
2769 2 16.1583 7.18149 1.79537 -6.90999
3144 1 17.9537 8.97686 1.79537 -8.50077
3020 1 14.363 8.97686 1.79537 -8.53648
3398 3 17.9537 10.7722 0 -6.41137
3395 3 17.9537 7.18149 3.59074 -6.39684
3275 1 14.363 10.7722 0 -8.31427
3272 3 14.363 7.18149 3.59074 -6.39809
3523 3 16.1583 8.97686 3.59074 -6.33399
3771 3 16.1583 10.7722 1.79537 -6.40967
4 3 0 12.5676 1.79537 -6.57409
523 1 1.79537 12.5676 3.59074 -8.39295
1020 2 3.59074 12.5676 1.79537 -7.06265
3524 1 1.79537 12.5676 0 -8.27665
524 2 5.38611 12.5676 0 -6.87841
1525 3 5.38611 12.5676 3.59074 -6.5461
1526 2 8.97686 12.5676 0 -6.9839
2021 1 7.18149 12.5676 1.79537 -8.54911
2525 1 8.97686 12.5676 3.59074 -8.29428
3021 3 10.7722 12.5676 1.79537 -6.54188
2526 2 12.5676 12.5676 0 -7.02975
3525 2 12.5676 12.5676 3.59074 -6.96107
5 2 14.363 12.5676 1.79537 -6.9913
129 1 17.9537 12.5676 1.79537 -8.27933
525 3 16.1583 12.5676 3.59074 -6.44379
3526 3 16.1583 12.5676 0 -6.45429
314 1 3.59074 17.9537 3.59074 -8.27233
277 3 0 14.363 0 -6.29549
526 1 1.79537 16.1583 0 -8.41549
772 2 1.79537 14.363 1.79537 -6.96848
1021 1 0 16.1583 1.79537 -8.19668
1278 3 3.59074 14.363 0 -6.45639
1277 2 0 14.363 3.59074 -7.05134
1527 2 1.79537 16.1583 3.59074 -6.96045
2022 3 3.59074 16.1583 1.79537 -6.46362
2328 1 0 17.9537 0 -8.11579
2276 2 3.59074 14.363 3.59074 -7.04836
2828 3 1.79537 17.9537 1.79537 -6.25518
3329 2 3.59074 17.9537 0 -6.96896
3328 1 0 17.9537 3.59074 -8.27618
1528 2 5.38611 16.1583 0 -6.96715
1772 2 5.38611 14.363 1.79537 -7.03707
2527 1 5.38611 16.1583 3.59074 -8.25384
3829 1 5.38611 17.9537 1.79537 -8.10383
6 1 10.7722 16.1583 1.79537 -8.14967
315 1 7.18149 17.9537 0 -8.25435
278 1 10.7722 14.363 3.59074 -8.27032
814 1 8.97686 17.9537 1.79537 -8.12744
1331 1 10.7722 17.9537 0 -8.33775
1330 1 7.18149 17.9537 3.59074 -8.13431
2329 2 10.7722 17.9537 3.59074 -6.96583
2277 3 7.18149 14.363 0 -6.56114
2528 3 8.97686 16.1583 0 -6.40822
2771 3 8.97686 14.363 1.79537 -6.45587
3022 2 7.18149 16.1583 1.79537 -7.01669
3277 2 10.7722 14.363 0 -7.00001
3276 3 7.18149 14.363 3.59074 -6.37486
3527 2 8.97686 16.1583 3.59074 -6.98978
527 3 12.5676 16.1583 3.59074 -6.22759
1830 1 12.5676 17.9537 1.79537 -8.06003
3528 2 12.5676 16.1583 0 -7.11464
3772 1 12.5676 14.363 1.79537 -8.15236
386 1 17.9537 14.363 0 -8.14971
279 1 14.363 14.363 0 -8.23105
528 2 16.1583 16.1583 0 -7.09741
773 2 16.1583 14.363 1.79537 -7.02663
1131 1 17.9537 16.1583 1.79537 -7.9258
1022 1 14.363 16.1583 1.79537 -7.96824
1386 1 17.9537 14.363 3.59074 -8.09331
1279 2 14.363 14.363 3.59074 -7.00423
1529 1 16.1583 16.1583 3.59074 -8.08688
2438 2 17.9537 17.9537 0 -6.99918
2330 1 14.363 17.9537 0 -8.30077
2829 1 16.1583 17.9537 1.79537 -7.97195
3453 1 17.9537 17.9537 3.59074 -8.07223
3330 1 14.363 17.9537 3.59074 -7.9978
775 2 0 3.59074 7.18149 -7.05094
1280 2 3.59074 3.59074 7.18149 -7.16328
1773 2 1.79537 0 5.38611 -7.01964
2023 1 0 1.79537 5.38611 -8.15199
2278 3 0 0 7.18149 -6.39361
2529 2 1.79537 1.79537 7.18149 -7.06987
2774 2 1.79537 3.59074 5.38611 -7.10516
2773 2 3.59074 0 7.18149 -7.04126
3023 2 3.59074 1.79537 5.38611 -7.10859
2772 3 5.38611 0 5.38611 -6.53839
3024 2 5.38611 1.79537 7.18149 -7.12821
3775 2 5.38611 3.59074 5.38611 -7.02074
7 3 7.18149 1.79537 5.38611 -6.58417
776 1 8.97686 3.59074 5.38611 -8.39573
1023 2 10.7722 1.79537 5.38611 -7.04954
1775 2 7.18149 3.59074 7.18149 -7.00302
2279 2 10.7722 3.59074 7.18149 -6.98365
3278 1 7.18149 0 7.18149 -8.56241
3529 3 8.97686 1.79537 7.18149 -6.44419
3774 2 10.7722 0 7.18149 -6.93342
3773 2 8.97686 0 5.38611 -6.96082
8 1 12.5676 1.79537 7.18149 -8.23148
774 1 12.5676 0 5.38611 -8.28494
1776 1 12.5676 3.59074 5.38611 -8.07586
280 2 14.363 0 7.18149 -7.03246
529 1 16.1583 1.79537 7.18149 -8.13827
884 3 17.9537 3.59074 7.18149 -6.45076
1774 2 16.1583 0 5.38611 -7.06274
2024 2 14.363 1.79537 5.38611 -7.10799
2007 1 17.9537 1.79537 5.38611 -8.08478
2403 1 17.9537 0 7.18149 -8.0608
2776 2 14.363 3.59074 7.18149 -7.09115
2775 2 16.1583 3.59074 5.38611 -7.05239
9 3 3.59074 5.38611 5.38611 -6.56632
1024 2 1.79537 5.38611 7.18149 -7.15694
3025 3 0 5.38611 5.38611 -6.52768
1530 2 5.38611 5.38611 7.18149 -7.03312
1025 1 7.18149 5.38611 5.38611 -8.45234
2026 2 10.7722 5.38611 5.38611 -7.06773
2025 3 8.97686 5.38611 7.18149 -6.54989
2530 2 12.5676 5.38611 7.18149 -7.08882
3150 1 17.9537 5.38611 5.38611 -8.20505
3027 2 16.1583 5.38611 7.18149 -7.04634
3026 1 14.363 5.38611 5.38611 -8.10174
10 1 0 8.97686 5.38611 -8.34246
779 2 1.79537 10.7722 5.38611 -7.03753
1026 1 3.59074 8.97686 5.38611 -8.31601
1778 2 0 10.7722 7.18149 -7.06932
2280 1 3.59074 10.7722 7.18149 -8.26272
3279 2 0 7.18149 7.18149 -7.02629
3530 3 1.79537 8.97686 7.18149 -6.5447
3777 2 3.59074 7.18149 7.18149 -7.02885
3776 3 1.79537 7.18149 5.38611 -6.45275
11 2 5.38611 8.97686 7.18149 -6.99565
777 3 5.38611 7.18149 5.38611 -6.40413
1779 2 5.38611 10.7722 5.38611 -7.03183
281 3 7.18149 7.18149 7.18149 -6.44076
530 1 8.97686 8.97686 7.18149 -8.33189
778 2 10.7722 7.18149 7.18149 -7.08903
1777 2 8.97686 7.18149 5.38611 -6.98173
2027 1 7.18149 8.97686 5.38611 -8.43338
2779 2 7.18149 10.7722 7.18149 -7.02924
2778 1 8.97686 10.7722 5.38611 -8.25892
3028 2 10.7722 8.97686 5.38611 -6.99686
3280 3 10.7722 10.7722 7.18149 -6.47447
1027 2 12.5676 8.97686 7.18149 -7.01996
2777 1 12.5676 7.18149 5.38611 -8.26128
3779 3 12.5676 10.7722 5.38611 -6.58578
12 1 14.363 8.97686 5.38611 -8.29657
135 3 17.9537 8.97686 5.38611 -6.4199
780 1 16.1583 10.7722 5.38611 -8.31504
1281 2 14.363 7.18149 7.18149 -7.06951
1531 2 16.1583 8.97686 7.18149 -7.03376
1887 2 17.9537 10.7722 7.18149 -6.99549
3404 1 17.9537 7.18149 7.18149 -8.15883
3780 2 14.363 10.7722 7.18149 -7.0276
3778 1 16.1583 7.18149 5.38611 -8.15975
1028 2 0 12.5676 5.38611 -7.06346
2029 2 3.59074 12.5676 5.38611 -7.03358
2028 3 1.79537 12.5676 7.18149 -6.53306
2531 1 5.38611 12.5676 7.18149 -8.17185
13 3 10.7722 12.5676 5.38611 -6.44996
3030 3 8.97686 12.5676 7.18149 -6.54875
3029 1 7.18149 12.5676 5.38611 -8.17518
3531 1 12.5676 12.5676 7.18149 -8.68412
14 1 16.1583 12.5676 7.18149 -8.20544
1138 1 17.9537 12.5676 5.38611 -8.03526
1029 3 14.363 12.5676 5.38611 -6.5591
326 2 0 17.9537 7.18149 -6.99795
282 3 0 14.363 7.18149 -6.63484
531 2 1.79537 16.1583 7.18149 -7.02082
821 2 3.59074 17.9537 7.18149 -6.96028
781 2 3.59074 14.363 7.18149 -6.96682
1780 1 1.79537 14.363 5.38611 -8.42557
2030 2 0 16.1583 5.38611 -7.02404
3031 3 3.59074 16.1583 5.38611 -6.48534
3835 3 1.79537 17.9537 5.38611 -6.48591
820 2 5.38611 17.9537 5.38611 -6.9475
1030 3 5.38611 16.1583 7.18149 -6.56991
2780 1 5.38611 14.363 5.38611 -8.26543
15 3 7.18149 16.1583 5.38611 -6.38437
1031 1 10.7722 16.1583 5.38611 -8.26477
1342 2 7.18149 17.9537 7.18149 -6.98898
1282 1 7.18149 14.363 7.18149 -8.43523
1532 2 8.97686 16.1583 7.18149 -7.08546
1837 3 10.7722 17.9537 7.18149 -6.57387
1836 1 8.97686 17.9537 5.38611 -8.27146
1781 2 10.7722 14.363 7.18149 -6.992
3781 3 8.97686 14.363 5.38611 -6.35969
782 3 12.5676 14.363 5.38611 -6.57075
2031 2 12.5676 16.1583 7.18149 -7.12662
2835 1 12.5676 17.9537 5.38611 -8.07767
451 3 17.9537 17.9537 7.18149 -6.51298
391 1 17.9537 14.363 7.18149 -8.23047
1782 2 16.1583 14.363 5.38611 -7.03401
2032 2 14.363 16.1583 5.38611 -7.0551
2014 3 17.9537 16.1583 5.38611 -6.26739
2341 2 14.363 17.9537 7.18149 -7.14179
2281 2 14.363 14.363 7.18149 -7.05476
2532 2 16.1583 16.1583 7.18149 -7.10756
3836 3 16.1583 17.9537 5.38611 -6.37241
251 3 3.59074 0 10.7722 -6.7535
253 1 0 3.59074 10.7722 -8.15767
16 1 0 1.79537 12.5676 -8.30619
785 1 1.79537 3.59074 12.5676 -8.11163
1032 2 3.59074 1.79537 12.5676 -7.08314
1285 2 3.59074 3.59074 10.7722 -7.04684
1284 1 1.79537 3.59074 8.97686 -8.30846
2781 3 1.79537 0 8.97686 -6.61689
3032 3 0 1.79537 8.97686 -6.44271
3281 3 0 0 10.7722 -6.34785
3533 3 3.59074 1.79537 8.97686 -6.77349
3532 2 1.79537 1.79537 10.7722 -7.01054
3782 2 1.79537 0 12.5676 -7.03272
532 2 5.38611 1.79537 10.7722 -7.12532
783 2 5.38611 0 12.5676 -7.13939
1785 3 5.38611 3.59074 12.5676 -6.43081
1784 2 5.38611 3.59074 8.97686 -7.08957
3282 3 5.38611 0 8.97686 -6.72041
17 3 7.18149 1.79537 8.97686 -6.57784
533 3 10.7722 1.79537 8.97686 -6.40207
1283 2 7.18149 0 10.7722 -7.02673
1533 3 8.97686 1.79537 10.7722 -6.36022
1783 3 8.97686 0 12.5676 -6.49324
2033 1 7.18149 1.79537 12.5676 -8.42599
2284 2 7.18149 3.59074 10.7722 -7.02909
2283 1 8.97686 3.59074 8.97686 -8.53551
2282 1 10.7722 0 10.7722 -8.36761
2783 1 8.97686 3.59074 12.5676 -8.09469
3033 1 10.7722 1.79537 12.5676 -8.29706
3284 2 10.7722 3.59074 10.7722 -6.89621
3783 1 8.97686 0 8.97686 -8.32519
252 3 12.5676 0 8.97686 -6.29428
2533 3 12.5676 1.79537 10.7722 -6.23726
2784 3 12.5676 3.59074 8.97686 -6.39143
2782 2 12.5676 0 12.5676 -6.94564
3785 1 12.5676 3.59074 12.5676 -8.15026
254 1 14.363 3.59074 10.7722 -8.13242
394 2 17.9537 3.59074 10.7722 -6.93739
141 2 17.9537 1.79537 12.5676 -7.00762
18 3 14.363 1.79537 12.5676 -6.24668
786 3 16.1583 3.59074 12.5676 -6.38303
784 1 16.1583 0 8.97686 -7.9282
1033 1 14.363 1.79537 8.97686 -8.04204
3157 1 17.9537 1.79537 8.97686 -8.23041
3406 2 17.9537 0 10.7722 -7.02047
3285 2 16.1583 3.59074 8.97686 -7.06029
3283 1 14.363 0 10.7722 -8.14545
3534 1 16.1583 1.79537 10.7722 -8.14081
3784 2 16.1583 0 12.5676 -7.04647
534 2 1.79537 5.38611 10.7722 -7.0838
1034 2 0 5.38611 12.5676 -7.09972
1534 2 0 5.38611 8.97686 -7.11611
2035 3 3.59074 5.38611 12.5676 -6.40417
2034 1 3.59074 5.38611 8.97686 -8.14856
1535 1 5.38611 5.38611 10.7722 -8.24781
19 3 10.7722 5.38611 12.5676 -6.31086
2535 1 8.97686 5.38611 10.7722 -8.3022
2534 3 7.18149 5.38611 8.97686 -6.48991
3035 3 10.7722 5.38611 8.97686 -6.5207
3034 1 7.18149 5.38611 12.5676 -7.99865
3535 1 12.5676 5.38611 10.7722 -8.2833
535 1 16.1583 5.38611 10.7722 -8.24978
1144 3 17.9537 5.38611 12.5676 -6.31108
1035 3 14.363 5.38611 12.5676 -6.23339
1643 3 17.9537 5.38611 8.97686 -6.45542
3536 1 14.363 5.38611 8.97686 -8.13346
20 2 0 8.97686 8.97686 -7.08212
536 2 3.59074 8.97686 8.97686 -7.00703
1286 1 0 7.18149 10.7722 -8.30234
1536 2 1.79537 8.97686 10.7722 -7.1424
1786 2 1.79537 7.18149 12.5676 -7.12448
2036 2 0 8.97686 12.5676 -7.15187
2287 1 0 10.7722 10.7722 -8.29542
2286 1 1.79537 10.7722 8.97686 -8.32768
2285 3 3.59074 7.18149 10.7722 -6.53859
2786 3 1.79537 10.7722 12.5676 -6.52511
3036 2 3.59074 8.97686 12.5676 -7.02993
3287 3 3.59074 10.7722 10.7722 -6.5561
3786 2 1.79537 7.18149 8.97686 -7.09898
255 1 5.38611 7.18149 8.97686 -8.40885
2536 3 5.38611 8.97686 10.7722 -6.54038
2787 3 5.38611 10.7722 8.97686 -6.6608
2785 1 5.38611 7.18149 12.5676 -8.2732
3788 1 5.38611 10.7722 12.5676 -8.19212
256 2 10.7722 7.18149 10.7722 -6.94675
257 2 7.18149 10.7722 10.7722 -7.14287
21 2 7.18149 8.97686 12.5676 -7.05001
789 2 8.97686 10.7722 12.5676 -7.06542
787 3 8.97686 7.18149 8.97686 -6.47011
1037 3 10.7722 8.97686 12.5676 -6.60813
1036 3 7.18149 8.97686 8.97686 -6.54381
1289 3 10.7722 10.7722 10.7722 -6.63516
1537 1 10.7722 8.97686 8.97686 -8.43043
3288 2 8.97686 10.7722 8.97686 -7.06464
3286 2 7.18149 7.18149 10.7722 -7.01391
3537 1 8.97686 8.97686 10.7722 -8.43441
3787 2 8.97686 7.18149 12.5676 -7.02801
537 3 12.5676 8.97686 10.7722 -6.53863
788 2 12.5676 7.18149 12.5676 -6.94
1287 3 12.5676 7.18149 8.97686 -6.49007
1789 2 12.5676 10.7722 12.5676 -6.98821
3789 3 12.5676 10.7722 8.97686 -6.61744
258 1 16.1583 10.7722 8.97686 -8.30874
145 2 17.9537 8.97686 8.97686 -7.1446
1395 2 17.9537 7.18149 10.7722 -7.00628
1288 1 14.363 7.18149 10.7722 -8.12569
1538 2 16.1583 8.97686 10.7722 -7.06368
1788 1 16.1583 7.18149 12.5676 -8.27646
1787 1 16.1583 7.18149 8.97686 -8.13313
2145 2 17.9537 8.97686 12.5676 -7.06218
2038 1 14.363 8.97686 12.5676 -8.12067
2037 2 14.363 8.97686 8.97686 -7.05411
2256 2 17.9537 10.7722 10.7722 -7.02647
2288 2 14.363 10.7722 10.7722 -7.05824
2788 1 16.1583 10.7722 12.5676 -8.33578
22 1 3.59074 12.5676 12.5676 -8.28405
2538 2 1.79537 12.5676 10.7722 -7.02399
2537 2 0 12.5676 8.97686 -7.07072
3038 2 3.59074 12.5676 8.97686 -7.05378
3037 3 0 12.5676 12.5676 -6.53352
3538 2 5.38611 12.5676 10.7722 -7.13308
23 2 10.7722 12.5676 8.97686 -7.05416
538 2 8.97686 12.5676 10.7722 -7.16811
1038 2 7.18149 12.5676 12.5676 -7.14047
2039 3 10.7722 12.5676 12.5676 -6.60543
3539 2 7.18149 12.5676 8.97686 -7.11287
1539 3 12.5676 12.5676 10.7722 -6.66736
539 3 14.363 12.5676 8.97686 -6.49561
2662 3 17.9537 12.5676 8.97686 -6.28395
2539 1 16.1583 12.5676 10.7722 -8.25094
3162 3 17.9537 12.5676 12.5676 -6.26866
3039 2 14.363 12.5676 12.5676 -6.98494
259 2 3.59074 14.363 10.7722 -7.08085
24 2 0 16.1583 12.5676 -7.09214
829 1 1.79537 17.9537 8.97686 -8.31478
790 1 1.79537 14.363 8.97686 -8.33926
1040 3 3.59074 16.1583 12.5676 -6.53484
1039 2 0 16.1583 8.97686 -7.06413
1251 1 0 17.9537 10.7722 -8.21462
1540 3 3.59074 16.1583 8.97686 -6.55961
1845 1 1.79537 17.9537 12.5676 -8.18178
2344 2 3.59074 17.9537 10.7722 -6.89252
3289 1 0 14.363 10.7722 -8.34771
3540 1 1.79537 16.1583 10.7722 -8.15918
3790 2 1.79537 14.363 12.5676 -7.02484
540 2 5.38611 16.1583 10.7722 -7.08205
791 3 5.38611 14.363 12.5676 -6.78485
1252 3 5.38611 17.9537 8.97686 -6.53598
1290 3 5.38611 14.363 8.97686 -6.68993
2844 1 5.38611 17.9537 12.5676 -8.25568
330 2 10.7722 17.9537 10.7722 -7.17143
1291 2 7.18149 14.363 10.7722 -7.17719
1541 2 8.97686 16.1583 10.7722 -7.20249
1846 2 8.97686 17.9537 8.97686 -7.13337
1791 1 8.97686 14.363 12.5676 -8.51118
1790 3 8.97686 14.363 8.97686 -6.78556
2041 2 7.18149 16.1583 12.5676 -7.11312
2040 2 7.18149 16.1583 8.97686 -7.08105
2290 2 10.7722 14.363 10.7722 -7.09596
2540 2 10.7722 16.1583 8.97686 -7.22624
3040 2 10.7722 16.1583 12.5676 -7.06059
3344 1 7.18149 17.9537 10.7722 -8.31077
3845 2 8.97686 17.9537 12.5676 -7.04532
830 3 12.5676 17.9537 12.5676 -6.66239
2345 2 12.5676 17.9537 8.97686 -7.24861
2289 3 12.5676 14.363 8.97686 -6.73864
2541 3 12.5676 16.1583 10.7722 -6.74537
2789 1 12.5676 14.363 12.5676 -8.66062
149 3 17.9537 16.1583 12.5676 -6.43364
25 3 14.363 16.1583 12.5676 -6.61834
1149 2 17.9537 16.1583 8.97686 -7.1356
1253 2 14.363 17.9537 10.7722 -7.16972
1454 2 17.9537 17.9537 10.7722 -7.05845
1847 3 16.1583 17.9537 12.5676 -6.68019
2845 2 16.1583 17.9537 8.97686 -7.24465
2790 2 16.1583 14.363 8.97686 -6.98279
3041 3 14.363 16.1583 8.97686 -6.81632
3414 1 17.9537 14.363 10.7722 -8.16412
3290 3 14.363 14.363 10.7722 -6.54909
3541 2 16.1583 16.1583 10.7722 -7.03092
3791 1 16.1583 14.363 12.5676 -8.45699
260 3 0 0 14.363 -6.47075
541 1 1.79537 1.79537 14.363 -8.32286
792 2 1.79537 0 16.1583 -7.01228
1041 3 0 1.79537 16.1583 -6.5574
1298 1 0 0 17.9537 -8.59627
1293 3 0 3.59074 14.363 -6.49205
1292 2 3.59074 0 14.363 -7.08934
1548 3 1.79537 1.79537 17.9537 -6.43063
1793 3 1.79537 3.59074 16.1583 -6.36075
2042 2 3.59074 1.79537 16.1583 -6.91329
2300 2 0 3.59074 17.9537 -6.96749
2298 1 3.59074 0 17.9537 -8.3966
2292 1 3.59074 3.59074 14.363 -8.31821
3300 1 3.59074 3.59074 17.9537 -8.34745
1542 3 5.38611 1.79537 14.363 -6.51101
1792 3 5.38611 0 16.1583 -6.57002
2549 2 5.38611 1.79537 17.9537 -7.01043
2792 3 5.38611 3.59074 16.1583 -6.35939
262 3 10.7722 3.59074 14.363 -6.26574
286 2 7.18149 3.59074 17.9537 -6.96888
284 3 10.7722 0 17.9537 -6.32556
26 3 10.7722 1.79537 16.1583 -6.29951
1302 1 10.7722 3.59074 17.9537 -8.35179
2291 3 7.18149 0 14.363 -6.55277
2542 2 8.97686 1.79537 14.363 -6.88237
2791 1 8.97686 0 16.1583 -8.52629
3042 3 7.18149 1.79537 16.1583 -6.47291
3298 3 7.18149 0 17.9537 -6.43891
3292 1 7.18149 3.59074 14.363 -8.20853
3291 3 10.7722 0 14.363 -6.39544
3549 3 8.97686 1.79537 17.9537 -6.49125
3793 1 8.97686 3.59074 16.1583 -8.30114
502 1 12.5676 1.79537 17.9537 -8.21224
794 3 12.5676 3.59074 16.1583 -6.36512
3542 2 12.5676 1.79537 14.363 -6.91905
3792 1 12.5676 0 16.1583 -8.25131
261 1 14.363 0 14.363 -8.11366
401 1 17.9537 0 14.363 -8.03322
542 2 16.1583 1.79537 14.363 -6.98603
793 1 16.1583 0 16.1583 -8.03275
1151 3 17.9537 1.79537 16.1583 -6.37979
1042 1 14.363 1.79537 16.1583 -8.04767
1407 1 17.9537 0 17.9537 -8.2849
1402 3 17.9537 3.59074 14.363 -6.43715
1300 3 14.363 0 17.9537 -6.23696
1294 1 14.363 3.59074 14.363 -8.22188
1550 3 16.1583 1.79537 17.9537 -6.34956
1794 1 16.1583 3.59074 16.1583 -8.40572
2410 3 17.9537 3.59074 17.9537 -6.49575
2302 2 14.363 3.59074 17.9537 -6.99867
1543 1 1.79537 5.38611 14.363 -8.32661
2043 3 0 5.38611 16.1583 -6.54897
2551 1 1.79537 5.38611 17.9537 -8.38375
3043 1 3.59074 5.38611 16.1583 -8.10214
2543 2 5.38611 5.38611 14.363 -6.96397
3551 3 5.38611 5.38611 17.9537 -6.34234
27 1 7.18149 5.38611 16.1583 -8.23111
504 2 8.97686 5.38611 17.9537 -6.96025
1043 3 10.7722 5.38611 16.1583 -6.38923
3543 1 8.97686 5.38611 14.363 -8.26774
543 1 12.5676 5.38611 14.363 -8.48899
1552 3 12.5676 5.38611 17.9537 -6.50379
1544 2 16.1583 5.38611 14.363 -6.9487
2152 2 17.9537 5.38611 16.1583 -7.05867
2044 2 14.363 5.38611 16.1583 -7.07278
2553 2 16.1583 5.38611 17.9537 -7.0998
264 1 3.59074 10.7722 14.363 -8.21774
290 2 0 10.7722 17.9537 -6.95909
288 2 3.59074 7.18149 17.9537 -6.93861
28 1 3.59074 8.97686 16.1583 -8.15004
1306 3 3.59074 10.7722 17.9537 -6.33361
2293 2 0 7.18149 14.363 -7.10185
2544 3 1.79537 8.97686 14.363 -6.59052
2793 2 1.79537 7.18149 16.1583 -6.97845
3044 3 0 8.97686 16.1583 -6.60474
3302 3 0 7.18149 17.9537 -6.52451
3294 2 0 10.7722 14.363 -7.02349
3293 2 3.59074 7.18149 14.363 -7.04634
3553 1 1.79537 8.97686 17.9537 -8.56351
3795 3 1.79537 10.7722 16.1583 -6.41829
506 1 5.38611 8.97686 17.9537 -8.32689
796 3 5.38611 10.7722 16.1583 -6.44417
3544 1 5.38611 8.97686 14.363 -7.96672
3794 1 5.38611 7.18149 16.1583 -8.02164
263 2 7.18149 7.18149 14.363 -7.05161
544 3 8.97686 8.97686 14.363 -6.61303
795 3 8.97686 7.18149 16.1583 -6.42172
1044 1 7.18149 8.97686 16.1583 -8.25297
1304 3 7.18149 7.18149 17.9537 -6.34714
1296 2 7.18149 10.7722 14.363 -7.0664
1295 2 10.7722 7.18149 14.363 -6.96329
1554 2 8.97686 8.97686 17.9537 -6.8963
1796 1 8.97686 10.7722 16.1583 -8.42638
2045 3 10.7722 8.97686 16.1583 -6.5064
2306 2 7.18149 10.7722 17.9537 -6.97419
2304 1 10.7722 7.18149 17.9537 -8.46065
2295 3 10.7722 10.7722 14.363 -6.5233
3306 3 10.7722 10.7722 17.9537 -6.38494
1545 1 12.5676 8.97686 14.363 -8.48335
1795 2 12.5676 7.18149 16.1583 -6.9678
2555 1 12.5676 8.97686 17.9537 -8.45548
2795 2 12.5676 10.7722 16.1583 -6.86973
415 1 17.9537 10.7722 17.9537 -8.36818
292 3 14.363 10.7722 17.9537 -6.50948
2262 2 17.9537 7.18149 14.363 -7.03093
2294 3 14.363 7.18149 14.363 -6.42598
2545 2 16.1583 8.97686 14.363 -7.01354
2794 1 16.1583 7.18149 16.1583 -8.42139
3169 2 17.9537 8.97686 16.1583 -7.0662
3045 3 14.363 8.97686 16.1583 -6.49833
3427 1 17.9537 7.18149 17.9537 -8.33175
3419 3 17.9537 10.7722 14.363 -6.46563
3304 2 14.363 7.18149 17.9537 -7.11926
3295 2 14.363 10.7722 14.363 -7.06535
3555 2 16.1583 8.97686 17.9537 -7.04456
3796 1 16.1583 10.7722 16.1583 -8.52243
29 2 0 12.5676 16.1583 -7.07283
508 1 1.79537 12.5676 17.9537 -8.43067
1045 3 3.59074 12.5676 16.1583 -6.52218
3545 1 1.79537 12.5676 14.363 -8.41686
545 2 5.38611 12.5676 14.363 -7.09556
1556 3 5.38611 12.5676 17.9537 -6.60353
1546 3 8.97686 12.5676 14.363 -6.56559
2046 2 7.18149 12.5676 16.1583 -7.05125
2557 2 8.97686 12.5676 17.9537 -6.97775
3046 1 10.7722 12.5676 16.1583 -8.46036
2546 3 12.5676 12.5676 14.363 -6.49811
3557 3 12.5676 12.5676 17.9537 -6.51734
154 2 17.9537 12.5676 16.1583 -7.07725
30 3 14.363 12.5676 16.1583 -6.47496
510 3 16.1583 12.5676 17.9537 -6.49162
3546 2 16.1583 12.5676 14.363 -6.91784
265 2 0 14.363 14.363 -7.14166
346 1 3.59074 17.9537 17.9537 -8.29374
546 3 1.79537 16.1583 14.363 -6.56977
797 3 1.79537 14.363 16.1583 -6.65833
1046 2 0 16.1583 16.1583 -7.08002
1308 2 0 14.363 17.9537 -7.07331
1297 2 3.59074 14.363 14.363 -7.07687
1558 3 1.79537 16.1583 17.9537 -6.47166
2047 2 3.59074 16.1583 16.1583 -7.0086
2353 1 0 17.9537 14.363 -8.09389
2308 2 3.59074 14.363 17.9537 -6.94014
2853 1 1.79537 17.9537 16.1583 -8.31729
3359 3 0 17.9537 17.9537 -6.49449
3353 3 3.59074 17.9537 14.363 -6.36696
1547 2 5.38611 16.1583 14.363 -7.11124
1797 2 5.38611 14.363 16.1583 -7.13223
2559 3 5.38611 16.1583 17.9537 -6.41915
3854 3 5.38611 17.9537 16.1583 -6.47674
339 2 7.18149 17.9537 14.363 -7.04958
294 3 10.7722 14.363 17.9537 -6.44292
31 3 10.7722 16.1583 16.1583 -6.4637
839 1 8.97686 17.9537 16.1583 -8.24704
1261 3 10.7722 17.9537 14.363 -6.4074
1346 2 7.18149 17.9537 17.9537 -6.99671
2361 2 10.7722 17.9537 17.9537 -7.01498
2296 2 7.18149 14.363 14.363 -7.13036
2547 3 8.97686 16.1583 14.363 -6.52624
2796 2 8.97686 14.363 16.1583 -6.88851
3047 1 7.18149 16.1583 16.1583 -8.39821
3308 1 7.18149 14.363 17.9537 -8.43851
3296 3 10.7722 14.363 14.363 -6.44944
3559 3 8.97686 16.1583 17.9537 -6.47628
512 3 12.5676 16.1583 17.9537 -6.4954
1855 1 12.5676 17.9537 16.1583 -8.32205
3547 2 12.5676 16.1583 14.363 -6.95465
3797 1 12.5676 14.363 16.1583 -8.63414
266 3 14.363 14.363 14.363 -6.42701
406 3 17.9537 14.363 14.363 -6.48451
547 2 16.1583 16.1583 14.363 -6.97418
798 1 16.1583 14.363 16.1583 -8.51317
1156 2 17.9537 16.1583 16.1583 -6.96641
1047 2 14.363 16.1583 16.1583 -7.00607
1417 2 17.9537 14.363 17.9537 -7.07419
1310 2 14.363 14.363 17.9537 -7.0134
1560 1 16.1583 16.1583 17.9537 -8.20781
2463 1 17.9537 17.9537 14.363 -8.49325
2354 2 14.363 17.9537 14.363 -7.04738
2854 1 16.1583 17.9537 16.1583 -8.14974
3469 3 17.9537 17.9537 17.9537 -6.40537
3361 2 14.363 17.9537 17.9537 -7.02188
285 3 3.59074 3.59074 21.5445 -6.39292
1798 2 1.79537 0 19.7491 -6.9378
2048 3 0 1.79537 19.7491 -6.53518
2297 2 0 0 21.5445 -7.01773
2548 1 1.79537 1.79537 21.5445 -8.25283
2798 3 1.79537 3.59074 19.7491 -6.42115
3048 1 3.59074 1.79537 19.7491 -8.17619
3299 2 0 3.59074 21.5445 -7.08735
3297 1 3.59074 0 21.5445 -8.37809
2797 1 5.38611 0 19.7491 -8.18911
3548 2 5.38611 1.79537 21.5445 -6.91048
3799 3 5.38611 3.59074 19.7491 -6.37803
501 1 8.97686 1.79537 21.5445 -8.1281
32 2 7.18149 1.79537 19.7491 -7.00947
283 3 7.18149 0 21.5445 -6.32908
800 2 8.97686 3.59074 19.7491 -6.98456
1048 2 10.7722 1.79537 19.7491 -7.03199
1301 1 7.18149 3.59074 21.5445 -8.11665
1299 3 10.7722 0 21.5445 -6.40042
2301 1 10.7722 3.59074 21.5445 -8.04194
3798 2 8.97686 0 19.7491 -6.90023
799 2 12.5676 0 19.7491 -6.91521
1549 3 12.5676 1.79537 21.5445 -6.47515
1800 1 12.5676 3.59074 19.7491 -8.27579
1799 2 16.1583 0 19.7491 -6.97914
2157 3 17.9537 1.79537 19.7491 -6.5166
2049 2 14.363 1.79537 19.7491 -6.96602
2407 2 17.9537 0 21.5445 -7.11828
2299 3 14.363 0 21.5445 -6.50171
2550 3 16.1583 1.79537 21.5445 -6.52469
2799 1 16.1583 3.59074 19.7491 -8.52084
3424 2 17.9537 3.59074 21.5445 -6.99817
3301 3 14.363 3.59074 21.5445 -6.42363
33 1 3.59074 5.38611 19.7491 -8.42795
3049 2 0 5.38611 19.7491 -7.05525
3550 2 1.79537 5.38611 21.5445 -6.9406
503 1 5.38611 5.38611 21.5445 -8.33482
1049 3 7.18149 5.38611 19.7491 -6.47541
1551 1 8.97686 5.38611 21.5445 -8.2114
2050 3 10.7722 5.38611 19.7491 -6.28937
2552 1 12.5676 5.38611 21.5445 -8.06217
3174 2 17.9537 5.38611 19.7491 -7.07505
3050 2 14.363 5.38611 19.7491 -7.13071
3552 1 16.1583 5.38611 21.5445 -8.18682
505 1 1.79537 8.97686 21.5445 -8.39136
34 2 0 8.97686 19.7491 -6.938
287 3 0 7.18149 21.5445 -6.57566
802 3 1.79537 10.7722 19.7491 -6.37204
1050 3 3.59074 8.97686 19.7491 -6.39845
1305 1 0 10.7722 21.5445 -8.24293
1303 3 3.59074 7.18149 21.5445 -6.36759
2305 2 3.59074 10.7722 21.5445 -6.87875
3800 3 1.79537 7.18149 19.7491 -6.42888
801 3 5.38611 7.18149 19.7491 -6.32145
1553 3 5.38611 8.97686 21.5445 -6.4934
1802 3 5.38611 10.7722 19.7491 -6.44582
291 3 10.7722 10.7722 21.5445 -6.38883
1801 2 8.97686 7.18149 19.7491 -6.98841
2051 1 7.18149 8.97686 19.7491 -8.60172
2303 3 7.18149 7.18149 21.5445 -6.398
2554 3 8.97686 8.97686 21.5445 -6.39613
2801 3 8.97686 10.7722 19.7491 -6.40937
3051 1 10.7722 8.97686 19.7491 -8.36311
3305 3 7.18149 10.7722 21.5445 -6.33749
3303 1 10.7722 7.18149 21.5445 -8.16527
2800 2 12.5676 7.18149 19.7491 -7.05231
3554 2 12.5676 8.97686 21.5445 -7.03743
3802 3 12.5676 10.7722 19.7491 -6.52886
507 1 16.1583 8.97686 21.5445 -8.17551
159 2 17.9537 8.97686 19.7491 -7.06242
35 2 14.363 8.97686 19.7491 -7.08793
412 2 17.9537 7.18149 21.5445 -7.03149
289 1 14.363 7.18149 21.5445 -8.14864
803 1 16.1583 10.7722 19.7491 -8.33647
1414 1 17.9537 10.7722 21.5445 -8.47843
1307 2 14.363 10.7722 21.5445 -7.05219
3801 2 16.1583 7.18149 19.7491 -7.10975
1051 1 0 12.5676 19.7491 -8.14297
1555 3 1.79537 12.5676 21.5445 -6.41086
2052 3 3.59074 12.5676 19.7491 -6.43991
2556 1 5.38611 12.5676 21.5445 -8.62444
36 1 10.7722 12.5676 19.7491 -8.56119
3052 3 7.18149 12.5676 19.7491 -6.4827
3556 3 8.97686 12.5676 21.5445 -6.29921
509 2 12.5676 12.5676 21.5445 -7.07012
1161 3 17.9537 12.5676 19.7491 -6.53075
1052 3 14.363 12.5676 19.7491 -6.6194
1557 3 16.1583 12.5676 21.5445 -6.52292
345 2 0 17.9537 21.5445 -7.07789
1345 1 3.59074 17.9537 21.5445 -8.03248
1803 1 1.79537 14.363 19.7491 -8.30547
2053 2 0 16.1583 19.7491 -6.99146
2307 3 0 14.363 21.5445 -6.40471
2558 2 1.79537 16.1583 21.5445 -7.04372
3053 1 3.59074 16.1583 19.7491 -8.31737
3307 3 3.59074 14.363 21.5445 -6.38897
3860 3 1.79537 17.9537 19.7491 -6.42853
845 1 5.38611 17.9537 19.7491 -8.24944
2802 3 5.38611 14.363 19.7491 -6.4908
3558 2 5.38611 16.1583 21.5445 -7.02193
511 1 8.97686 16.1583 21.5445 -8.21454
37 2 7.18149 16.1583 19.7491 -6.99234
293 3 7.18149 14.363 21.5445 -6.38621
1053 2 10.7722 16.1583 19.7491 -7.02107
1309 2 10.7722 14.363 21.5445 -7.02421
1861 2 8.97686 17.9537 19.7491 -7.0973
2360 2 7.18149 17.9537 21.5445 -7.05778
3360 1 10.7722 17.9537 21.5445 -8.08068
3803 1 8.97686 14.363 19.7491 -8.30136
804 2 12.5676 14.363 19.7491 -6.99917
1559 1 12.5676 16.1583 21.5445 -8.21333
2860 1 12.5676 17.9537 19.7491 -8.38055
470 1 17.9537 17.9537 21.5445 -8.17401
347 3 14.363 17.9537 21.5445 -6.30008
1804 2 16.1583 14.363 19.7491 -6.98784
2162 1 17.9537 16.1583 19.7491 -8.20426
2054 3 14.363 16.1583 19.7491 -6.46506
2417 3 17.9537 14.363 21.5445 -6.44587
2309 2 14.363 14.363 21.5445 -7.06106
2560 1 16.1583 16.1583 21.5445 -8.26367
3861 2 16.1583 17.9537 19.7491 -6.96363