ITEM: TIMESTEP
0
ITEM: NUMBER OF ATOMS
4000
ITEM: BOX BOUNDS pp pp pp
0.0000000000000000e+00 3.5734059999999999e+01
0.0000000000000000e+00 3.5734059999999999e+01
0.0000000000000000e+00 3.5734059999999999e+01
ITEM: ATOMS id type x y z c_peratom
267 2 0 0 0 -6.99462
516 1 1.7867 1.7867 0 -8.18311
767 2 1.7867 0 1.7867 -7.03252
1016 2 0 1.7867 1.7867 -7.08219
1267 2 0 0 3.57341 -7.00523
1517 3 1.7867 1.7867 3.57341 -6.53454
1268 2 3.57341 0 0 -7.00584
1518 2 5.36011 1.7867 0 -6.92561
1767 1 5.36011 0 1.7867 -8.17254
2017 1 3.57341 1.7867 1.7867 -8.13928
2266 2 3.57341 0 3.57341 -7.08045
2267 1 7.14681 0 0 -8.26379
2517 2 5.36011 1.7867 3.57341 -7.03035
3017 3 7.14681 1.7867 1.7867 -6.38226
3267 2 7.14681 0 3.57341 -6.98369
1 2 10.7202 1.7867 1.7867 -7.00164
268 1 10.7202 0 3.57341 -8.32278
2518 3 8.93351 1.7867 0 -6.30069
2766 1 8.93351 0 1.7867 -8.43115
3266 3 10.7202 0 0 -6.3772
3517 2 8.93351 1.7867 3.57341 -7.00869
269 1 14.2936 0 0 -8.08393
517 2 12.5069 1.7867 3.57341 -6.97424
1017 1 14.2936 1.7867 1.7867 -8.02843
1269 1 14.2936 0 3.57341 -8.07638
3518 1 12.5069 1.7867 0 -8.22758
3767 2 12.5069 0 1.7867 -7.02584
376 1 17.867 0 0 -8.4393
518 1 16.0803 1.7867 0 -8.39087
768 3 16.0803 0 1.7867 -6.08836
1126 3 17.867 1.7867 1.7867 -6.29564
1377 1 17.867 0 3.57341 -8.32844
1519 1 16.0803 1.7867 3.57341 -8.12504
1270 1 0 3.57341 0 -8.33593
1520 2 1.7867 5.36011 0 -6.9931
1768 2 1.7867 3.57341 1.7867 -7.04628
2018 3 0 5.36011 1.7867 -6.47112
2268 2 0 3.57341 3.57341 -7.0117
2271 2 0 7.14681 0 -6.98845
2519 2 1.7867 5.36011 3.57341 -7.01643
2768 3 1.7867 7.14681 1.7867 -6.36248
3271 3 0 7.14681 3.57341 -6.26206
2 3 7.14681 5.36011 1.7867 -6.5365
271 2 7.14681 3.57341 3.57341 -6.99214
274 1 3.57341 7.14681 3.57341 -8.34754
275 2 7.14681 7.14681 0 -6.99634
1276 2 7.14681 7.14681 3.57341 -7.00976
2269 1 3.57341 3.57341 0 -8.31491
2520 3 5.36011 5.36011 0 -6.3867
2767 3 5.36011 3.57341 1.7867 -6.34394
3018 1 3.57341 5.36011 1.7867 -8.20311
3272 1 3.57341 7.14681 0 -8.57683
3269 1 7.14681 3.57341 0 -8.64895
3268 1 3.57341 3.57341 3.57341 -8.30598
3519 1 5.36011 5.36011 3.57341 -8.49254
3770 3 5.36011 7.14681 1.7867 -6.43393
270 2 10.7202 3.57341 0 -6.97407
519 2 8.93351 5.36011 3.57341 -7.02556
771 3 8.93351 7.14681 1.7867 -6.51951
1018 1 10.7202 5.36011 1.7867 -8.40378
1274 2 10.7202 7.14681 0 -6.99444
1271 1 10.7202 3.57341 3.57341 -8.47745
2273 3 10.7202 7.14681 3.57341 -6.5074
3520 2 8.93351 5.36011 0 -7.04202
3768 1 8.93351 3.57341 1.7867 -8.35711
520 2 12.5069 5.36011 0 -6.97009
769 2 12.5069 3.57341 1.7867 -6.9914
1272 1 14.2936 3.57341 0 -8.22496
1521 3 12.5069 5.36011 3.57341 -6.47794
1771 2 12.5069 7.14681 1.7867 -6.98142
2019 3 14.2936 5.36011 1.7867 -6.50215
2275 3 14.2936 7.14681 0 -6.46346
2270 1 14.2936 3.57341 3.57341 -8.45119
3275 2 14.2936 7.14681 3.57341 -6.94765
1379 2 17.867 3.57341 0 -6.9298
1522 1 16.0803 5.36011 0 -8.52521
1769 3 16.0803 3.57341 1.7867 -6.27731
2002 3 17.867 5.36011 1.7867 -6.47744
2396 2 17.867 7.14681 0 -7.0114
2394 2 17.867 3.57341 3.57341 -6.93596
2521 3 16.0803 5.36011 3.57341 -6.49166
2770 2 16.0803 7.14681 1.7867 -6.96153
3397 3 17.867 7.14681 3.57341 -6.28646
272 1 0 10.7202 3.57341 -8.20314
2522 2 1.7867 8.93351 0 -6.89883
3019 1 0 8.93351 1.7867 -8.33522
3270 1 0 10.7202 0 -8.24766
3521 3 1.7867 8.93351 3.57341 -6.16299
3769 3 1.7867 10.7202 1.7867 -6.29378
3 3 3.57341 8.93351 1.7867 -6.32484
273 1 3.57341 10.7202 0 -8.74799
521 2 5.36011 8.93351 3.57341 -6.95783
770 3 5.36011 10.7202 1.7867 -6.45454
1019 2 7.14681 8.93351 1.7867 -6.95938
1275 1 7.14681 10.7202 0 -8.41824
1273 1 3.57341 10.7202 3.57341 -8.65629
2274 3 7.14681 10.7202 3.57341 -6.59388
3522 3 5.36011 8.93351 0 -6.44249
522 1 8.93351 8.93351 0 -8.45149
1523 1 8.93351 8.93351 3.57341 -8.8321
1770 3 8.93351 10.7202 1.7867 -6.34453
2020 3 10.7202 8.93351 1.7867 -6.30473
2272 3 10.7202 10.7202 0 -6.35706
3273 3 10.7202 10.7202 3.57341 -6.24544
276 1 14.2936 10.7202 3.57341 -8.34098
1524 1 12.5069 8.93351 0 -8.3707
2523 1 12.5069 8.93351 3.57341 -8.59043
2769 1 12.5069 10.7202 1.7867 -8.37
3020 2 14.2936 8.93351 1.7867 -7.04035
3274 3 14.2936 10.7202 0 -6.57377
383 2 17.867 10.7202 3.57341 -6.98322
2524 2 16.0803 8.93351 0 -7.01084
3144 3 17.867 8.93351 1.7867 -6.412
3396 3 17.867 10.7202 0 -6.55955
3523 1 16.0803 8.93351 3.57341 -8.48776
3771 2 16.0803 10.7202 1.7867 -7.10914
4 2 0 12.5069 1.7867 -6.9623
277 2 0 14.2936 0 -7.02385
523 3 1.7867 12.5069 3.57341 -6.46823
772 3 1.7867 14.2936 1.7867 -6.50689
1277 2 0 14.2936 3.57341 -6.9665
3524 2 1.7867 12.5069 0 -7.02162
524 2 5.36011 12.5069 0 -6.91909
1020 3 3.57341 12.5069 1.7867 -6.54319
1278 3 3.57341 14.2936 0 -6.57841
1525 3 5.36011 12.5069 3.57341 -6.63801
1772 3 5.36011 14.2936 1.7867 -6.56084
2021 3 7.14681 12.5069 1.7867 -6.49496
2277 3 7.14681 14.2936 0 -6.49782
2276 2 3.57341 14.2936 3.57341 -6.92475
3277 2 7.14681 14.2936 3.57341 -7.05712
278 1 10.7202 14.2936 3.57341 -8.39661
1526 2 8.93351 12.5069 0 -6.8862
2525 1 8.93351 12.5069 3.57341 -8.58467
2771 1 8.93351 14.2936 1.7867 -8.36167
3021 3 10.7202 12.5069 1.7867 -6.27144
3276 1 10.7202 14.2936 0 -8.39806
5 2 14.2936 12.5069 1.7867 -7.0469
279 1 14.2936 14.2936 0 -8.53758
1279 2 14.2936 14.2936 3.57341 -6.93065
2526 2 12.5069 12.5069 0 -6.9313
3525 1 12.5069 12.5069 3.57341 -8.4312
3772 3 12.5069 14.2936 1.7867 -6.35372
129 2 17.867 12.5069 1.7867 -7.06043
386 1 17.867 14.2936 0 -8.35099
525 2 16.0803 12.5069 3.57341 -7.05013
773 2 16.0803 14.2936 1.7867 -6.98771
1387 1 17.867 14.2936 3.57341 -8.39188
3526 3 16.0803 12.5069 0 -6.58814
526 2 1.7867 16.0803 0 -6.98771
1021 1 0 16.0803 1.7867 -8.28944
1527 1 1.7867 16.0803 3.57341 -8.26243
2328 1 0 17.867 0 -8.32222
2828 2 1.7867 17.867 1.7867 -7.0591
3329 1 0 17.867 3.57341 -8.52242
317 1 7.14681 17.867 0 -8.4931
316 2 3.57341 17.867 3.57341 -7.00496
1333 3 7.14681 17.867 3.57341 -6.54091
1528 1 5.36011 16.0803 0 -8.53748
2022 1 3.57341 16.0803 1.7867 -8.39115
2527 3 5.36011 16.0803 3.57341 -6.58442
3022 2 7.14681 16.0803 1.7867 -6.98657
3330 1 3.57341 17.867 0 -8.29813
3830 2 5.36011 17.867 1.7867 -7.05504
6 3 10.7202 16.0803 1.7867 -6.35818
815 3 8.93351 17.867 1.7867 -6.42598
1331 1 10.7202 17.867 0 -8.42495
2330 3 10.7202 17.867 3.57341 -6.41652
2528 2 8.93351 16.0803 0 -6.897
3527 2 8.93351 16.0803 3.57341 -7.01424
527 3 12.5069 16.0803 3.57341 -6.4061
1022 3 14.2936 16.0803 1.7867 -6.43987
1831 2 12.5069 17.867 1.7867 -6.93927
2332 1 14.2936 17.867 0 -8.29018
3333 3 14.2936 17.867 3.57341 -6.43203
3528 3 12.5069 16.0803 0 -6.21226
528 3 16.0803 16.0803 0 -6.22854
1131 1 17.867 16.0803 1.7867 -8.14426
1529 2 16.0803 16.0803 3.57341 -6.97238
2438 3 17.867 17.867 0 -6.34956
2830 1 16.0803 17.867 1.7867 -8.34963
3455 2 17.867 17.867 3.57341 -6.96623
1773 3 1.7867 0 5.36011 -6.54312
2023 2 0 1.7867 5.36011 -6.94312
2278 1 0 0 7.14681 -8.44678
2529 3 1.7867 1.7867 7.14681 -6.32658
2781 1 1.7867 0 8.93351 -8.01954
3032 2 0 1.7867 8.93351 -6.93955
7 3 7.14681 1.7867 5.36011 -6.43697
17 2 7.14681 1.7867 8.93351 -7.01093
2773 1 3.57341 0 7.14681 -8.49509
2772 2 5.36011 0 5.36011 -7.06692
3024 1 5.36011 1.7867 7.14681 -8.3117
3023 3 3.57341 1.7867 5.36011 -6.3877
3282 3 5.36011 0 8.93351 -6.37945
3278 1 7.14681 0 7.14681 -8.31089
3533 2 3.57341 1.7867 8.93351 -6.99159
533 1 10.7202 1.7867 8.93351 -8.14456
1023 3 10.7202 1.7867 5.36011 -6.34612
3529 1 8.93351 1.7867 7.14681 -8.25436
3783 3 8.93351 0 8.93351 -6.38378
3774 2 10.7202 0 7.14681 -6.89994
3773 1 8.93351 0 5.36011 -8.27518
8 1 12.5069 1.7867 7.14681 -8.38479
252 3 12.5069 0 8.93351 -6.35604
280 1 14.2936 0 7.14681 -8.14907
774 1 12.5069 0 5.36011 -8.15137
1033 3 14.2936 1.7867 8.93351 -6.47859
2024 2 14.2936 1.7867 5.36011 -6.97008
529 3 16.0803 1.7867 7.14681 -6.28859
784 1 16.0803 0 8.93351 -8.55185
1774 1 16.0803 0 5.36011 -8.26099
2007 1 17.867 1.7867 5.36011 -8.07622
2403 3 17.867 0 7.14681 -6.15086
3157 3 17.867 1.7867 8.93351 -6.36943
775 3 0 3.57341 7.14681 -6.39721
1024 2 1.7867 5.36011 7.14681 -6.94997
1284 3 1.7867 3.57341 8.93351 -6.53296
1534 3 0 5.36011 8.93351 -6.37435
2774 1 1.7867 3.57341 5.36011 -8.42668
3025 2 0 5.36011 5.36011 -6.93229
3279 3 0 7.14681 7.14681 -6.29273
3786 1 1.7867 7.14681 8.93351 -8.40654
3776 1 1.7867 7.14681 5.36011 -8.36328
9 2 3.57341 5.36011 5.36011 -7.00682
255 1 5.36011 7.14681 8.93351 -8.18696
281 3 7.14681 7.14681 7.14681 -6.41876
778 3 5.36011 7.14681 5.36011 -6.47876
1025 2 7.14681 5.36011 5.36011 -7.04759
1280 1 3.57341 3.57341 7.14681 -8.48685
1530 2 5.36011 5.36011 7.14681 -7.00036
1784 2 5.36011 3.57341 8.93351 -7.05123
1775 1 7.14681 3.57341 7.14681 -8.29164
2034 3 3.57341 5.36011 8.93351 -6.39305
2534 2 7.14681 5.36011 8.93351 -7.06242
3777 2 3.57341 7.14681 7.14681 -6.97535
3775 3 5.36011 3.57341 5.36011 -6.37941
787 1 8.93351 7.14681 8.93351 -8.17923
779 3 10.7202 7.14681 7.14681 -6.39654
776 2 8.93351 3.57341 5.36011 -7.02844
1779 3 8.93351 7.14681 5.36011 -6.48458
2026 1 8.93351 5.36011 7.14681 -8.47713
2025 2 10.7202 5.36011 5.36011 -6.99241
2283 2 8.93351 3.57341 8.93351 -7.02605
2279 2 10.7202 3.57341 7.14681 -6.93749
3034 3 10.7202 5.36011 8.93351 -6.22617
1288 3 12.5069 7.14681 8.93351 -6.27618
1281 1 14.2936 7.14681 7.14681 -8.46209
1776 3 12.5069 3.57341 5.36011 -6.38426
2530 1 12.5069 5.36011 7.14681 -8.53014
2784 2 12.5069 3.57341 8.93351 -6.96254
2779 2 12.5069 7.14681 5.36011 -6.95463
2776 2 14.2936 3.57341 7.14681 -6.91783
3026 1 14.2936 5.36011 5.36011 -8.27382
3536 3 14.2936 5.36011 8.93351 -6.45876
884 1 17.867 3.57341 7.14681 -8.51347
1643 2 17.867 5.36011 8.93351 -6.99181
1788 2 16.0803 7.14681 8.93351 -6.93602
2775 2 16.0803 3.57341 5.36011 -6.88386
3150 3 17.867 5.36011 5.36011 -6.26653
3027 3 16.0803 5.36011 7.14681 -6.35681
3404 1 17.867 7.14681 7.14681 -8.34834
3285 3 16.0803 3.57341 8.93351 -6.47659
3779 1 16.0803 7.14681 5.36011 -8.39593
10 1 0 8.93351 5.36011 -8.31142
20 3 0 8.93351 8.93351 -6.35004
777 1 1.7867 10.7202 5.36011 -8.31761
1777 3 0 10.7202 7.14681 -6.24789
2285 3 1.7867 10.7202 8.93351 -6.31267
3530 3 1.7867 8.93351 7.14681 -6.21076
11 1 5.36011 8.93351 7.14681 -8.32447
536 1 3.57341 8.93351 8.93351 -8.12109
1036 2 7.14681 8.93351 8.93351 -6.97492
1026 1 3.57341 8.93351 5.36011 -8.17446
1778 2 5.36011 10.7202 5.36011 -7.05145
2027 2 7.14681 8.93351 5.36011 -7.0041
2280 2 3.57341 10.7202 7.14681 -6.98515
2786 3 5.36011 10.7202 8.93351 -6.39725
2778 2 7.14681 10.7202 7.14681 -7.04063
530 1 8.93351 8.93351 7.14681 -8.54323
1537 3 10.7202 8.93351 8.93351 -6.31325
2777 2 8.93351 10.7202 5.36011 -6.9465
3028 3 10.7202 8.93351 5.36011 -6.35845
3287 3 8.93351 10.7202 8.93351 -6.48342
3280 1 10.7202 10.7202 7.14681 -8.42222
12 3 14.2936 8.93351 5.36011 -6.29977
1027 2 12.5069 8.93351 7.14681 -6.8762
2037 2 14.2936 8.93351 8.93351 -7.02288
3789 2 12.5069 10.7202 8.93351 -7.06771
3780 1 14.2936 10.7202 7.14681 -8.59754
3778 3 12.5069 10.7202 5.36011 -6.28038
145 2 17.867 8.93351 8.93351 -7.01557
135 3 17.867 8.93351 5.36011 -6.30344
258 2 16.0803 10.7202 8.93351 -7.04379
780 3 16.0803 10.7202 5.36011 -6.42283
1531 3 16.0803 8.93351 7.14681 -6.32726
1886 1 17.867 10.7202 7.14681 -8.57053
282 1 0 14.2936 7.14681 -8.31178
790 2 1.7867 14.2936 8.93351 -7.05412
1028 2 0 12.5069 5.36011 -7.00099
1780 3 1.7867 14.2936 5.36011 -6.49341
2028 2 1.7867 12.5069 7.14681 -6.98321
2537 1 0 12.5069 8.93351 -8.36332
781 2 3.57341 14.2936 7.14681 -7.06919
1290 2 5.36011 14.2936 8.93351 -7.12934
1282 2 7.14681 14.2936 7.14681 -7.17508
2029 3 3.57341 12.5069 5.36011 -6.61078
2531 3 5.36011 12.5069 7.14681 -6.79766
2780 3 5.36011 14.2936 5.36011 -6.713
3038 2 3.57341 12.5069 8.93351 -7.05274
3029 2 7.14681 12.5069 5.36011 -7.12261
3539 2 7.14681 12.5069 8.93351 -7.02827
13 3 10.7202 12.5069 5.36011 -6.30041
23 1 10.7202 12.5069 8.93351 -8.2586
1790 2 8.93351 14.2936 8.93351 -7.067
1781 2 10.7202 14.2936 7.14681 -7.02956
3030 1 8.93351 12.5069 7.14681 -8.38407
3781 2 8.93351 14.2936 5.36011 -7.06116
539 1 14.2936 12.5069 8.93351 -8.19645
782 1 12.5069 14.2936 5.36011 -8.4432
1029 3 14.2936 12.5069 5.36011 -6.43652
2290 2 12.5069 14.2936 8.93351 -7.00923
2281 3 14.2936 14.2936 7.14681 -6.37279
3531 2 12.5069 12.5069 7.14681 -6.9538
14 2 16.0803 12.5069 7.14681 -7.01182
391 2 17.867 14.2936 7.14681 -7.01433
1138 2 17.867 12.5069 5.36011 -7.07015
1782 3 16.0803 14.2936 5.36011 -6.54284
2662 3 17.867 12.5069 8.93351 -6.51257
2790 1 16.0803 14.2936 8.93351 -8.42039
326 1 0 17.867 7.14681 -8.44707
531 1 1.7867 16.0803 7.14681 -8.36405
829 2 1.7867 17.867 8.93351 -7.00119
1039 2 0 16.0803 8.93351 -7.03916
2030 2 0 16.0803 5.36011 -6.97445
3835 3 1.7867 17.867 5.36011 -6.35504
15 2 7.14681 16.0803 5.36011 -7.12734
822 2 3.57341 17.867 7.14681 -7.01474
821 1 5.36011 17.867 5.36011 -8.34307
1030 2 5.36011 16.0803 7.14681 -7.07369
1252 2 5.36011 17.867 8.93351 -7.01189
1342 2 7.14681 17.867 7.14681 -7.01403
1540 3 3.57341 16.0803 8.93351 -6.51487
2040 1 7.14681 16.0803 8.93351 -8.20344
3031 1 3.57341 16.0803 5.36011 -8.34022
1031 3 10.7202 16.0803 5.36011 -6.47915
1532 2 8.93351 16.0803 7.14681 -7.06204
1846 1 8.93351 17.867 8.93351 -8.05544
1838 3 10.7202 17.867 7.14681 -6.26948
1837 3 8.93351 17.867 5.36011 -6.53161
2540 1 10.7202 16.0803 8.93351 -8.26908
2032 1 14.2936 16.0803 5.36011 -8.38417
2031 3 12.5069 16.0803 7.14681 -6.29672
2346 1 12.5069 17.867 8.93351 -8.26133
2341 3 14.2936 17.867 7.14681 -6.36744
2837 1 12.5069 17.867 5.36011 -8.66021
3041 2 14.2936 16.0803 8.93351 -6.98151
451 2 17.867 17.867 7.14681 -7.04101
1149 3 17.867 16.0803 8.93351 -6.59933
2014 3 17.867 16.0803 5.36011 -6.48562
2532 1 16.0803 16.0803 7.14681 -8.38256
2846 1 16.0803 17.867 8.93351 -8.43322
3838 2 16.0803 17.867 5.36011 -7.0076
16 1 0 1.7867 12.5069 -8.49211
3281 1 0 0 10.7202 -8.06784
3532 1 1.7867 1.7867 10.7202 -8.25057
3782 1 1.7867 0 12.5069 -8.21697
251 1 3.57341 0 10.7202 -8.23238
532 1 5.36011 1.7867 10.7202 -8.43025
783 2 5.36011 0 12.5069 -6.95945
1032 2 3.57341 1.7867 12.5069 -7.00789
1283 3 7.14681 0 10.7202 -6.63808
2033 2 7.14681 1.7867 12.5069 -7.10031
1533 2 8.93351 1.7867 10.7202 -7.03615
1783 3 8.93351 0 12.5069 -6.53381
2282 1 10.7202 0 10.7202 -8.60945
3033 2 10.7202 1.7867 12.5069 -6.98265
18 2 14.2936 1.7867 12.5069 -7.07102
2533 2 12.5069 1.7867 10.7202 -7.00751
2782 3 12.5069 0 12.5069 -6.52451
3283 3 14.2936 0 10.7202 -6.54139
141 2 17.867 1.7867 12.5069 -7.03801
3406 2 17.867 0 10.7202 -7.00637
3534 3 16.0803 1.7867 10.7202 -6.57446
3784 2 16.0803 0 12.5069 -6.98464
253 3 0 3.57341 10.7202 -6.41056
534 3 1.7867 5.36011 10.7202 -6.37621
785 2 1.7867 3.57341 12.5069 -6.91774
1034 1 0 5.36011 12.5069 -8.63735
1286 1 0 7.14681 10.7202 -8.21057
1786 3 1.7867 7.14681 12.5069 -6.26713
1285 2 3.57341 3.57341 10.7202 -6.98061
1535 2 5.36011 5.36011 10.7202 -6.9439
1785 1 5.36011 3.57341 12.5069 -8.36103
2035 3 3.57341 5.36011 12.5069 -6.3088
2287 1 3.57341 7.14681 10.7202 -8.29779
2284 3 7.14681 3.57341 10.7202 -6.53074
2787 1 5.36011 7.14681 12.5069 -8.37226
3035 3 7.14681 5.36011 12.5069 -6.24751
3288 1 7.14681 7.14681 10.7202 -8.03472
256 1 10.7202 7.14681 10.7202 -8.19736
19 3 10.7202 5.36011 12.5069 -6.2388
2535 1 8.93351 5.36011 10.7202 -8.33584
2783 2 8.93351 3.57341 12.5069 -6.98122
3284 1 10.7202 3.57341 10.7202 -8.26503
3788 2 8.93351 7.14681 12.5069 -6.92952
254 3 14.2936 3.57341 10.7202 -6.5667
789 1 12.5069 7.14681 12.5069 -8.19556
1035 1 14.2936 5.36011 12.5069 -8.3012
1289 3 14.2936 7.14681 10.7202 -6.37957
3535 1 12.5069 5.36011 10.7202 -8.35865
3785 2 12.5069 3.57341 12.5069 -6.9946
394 1 17.867 3.57341 10.7202 -8.44038
535 3 16.0803 5.36011 10.7202 -6.42573
786 2 16.0803 3.57341 12.5069 -6.94566
1144 1 17.867 5.36011 12.5069 -8.14644
1395 1 17.867 7.14681 10.7202 -8.15378
1789 2 16.0803 7.14681 12.5069 -6.98455
1536 1 1.7867 8.93351 10.7202 -8.23352
2036 1 0 8.93351 12.5069 -8.13663
2286 3 0 10.7202 10.7202 -6.30343
2785 2 1.7867 10.7202 12.5069 -6.95698
257 3 7.14681 10.7202 10.7202 -6.39861
21 1 7.14681 8.93351 12.5069 -8.17418
2536 1 5.36011 8.93351 10.7202 -8.1334
3036 3 3.57341 8.93351 12.5069 -6.2684
3286 1 3.57341 10.7202 10.7202 -8.19216
3787 2 5.36011 10.7202 12.5069 -6.9837
788 1 8.93351 10.7202 12.5069 -8.36758
1037 2 10.7202 8.93351 12.5069 -6.97946
1287 2 10.7202 10.7202 10.7202 -6.93902
3537 2 8.93351 8.93351 10.7202 -6.95636
537 1 12.5069 8.93351 10.7202 -8.49624
1787 3 12.5069 10.7202 12.5069 -6.5249
2038 2 14.2936 8.93351 12.5069 -6.989
2288 2 14.2936 10.7202 10.7202 -7.0284
1538 1 16.0803 8.93351 10.7202 -8.36523
2145 1 17.867 8.93351 12.5069 -8.43492
2256 2 17.867 10.7202 10.7202 -6.97516
2788 3 16.0803 10.7202 12.5069 -6.54865
2538 1 1.7867 12.5069 10.7202 -8.3514
3037 3 0 12.5069 12.5069 -6.44006
3289 3 0 14.2936 10.7202 -6.59373
3790 2 1.7867 14.2936 12.5069 -7.00623
259 1 3.57341 14.2936 10.7202 -8.31647
22 2 3.57341 12.5069 12.5069 -7.08059
791 3 5.36011 14.2936 12.5069 -6.46056
1038 1 7.14681 12.5069 12.5069 -8.49592
1291 2 7.14681 14.2936 10.7202 -6.98908
3538 1 5.36011 12.5069 10.7202 -8.25893
538 3 8.93351 12.5069 10.7202 -6.51962
1791 2 8.93351 14.2936 12.5069 -6.90767
2039 3 10.7202 12.5069 12.5069 -6.39305
2289 2 10.7202 14.2936 10.7202 -7.02916
1539 1 12.5069 12.5069 10.7202 -8.32679
2789 1 12.5069 14.2936 12.5069 -8.4533
3039 3 14.2936 12.5069 12.5069 -6.56432
3290 2 14.2936 14.2936 10.7202 -7.03374
2539 2 16.0803 12.5069 10.7202 -7.01197
3163 1 17.867 12.5069 12.5069 -8.32794
3414 2 17.867 14.2936 10.7202 -7.07821
3791 1 16.0803 14.2936 12.5069 -8.39616
24 2 0 16.0803 12.5069 -7.01524
1251 3 0 17.867 10.7202 -6.50152
1845 2 1.7867 17.867 12.5069 -7.04208
3540 2 1.7867 16.0803 10.7202 -7.06917
540 1 5.36011 16.0803 10.7202 -8.33086
1040 2 3.57341 16.0803 12.5069 -6.99378
2041 3 7.14681 16.0803 12.5069 -6.31363
2345 1 3.57341 17.867 10.7202 -8.60769
2845 3 5.36011 17.867 12.5069 -6.36462
3346 2 7.14681 17.867 10.7202 -6.93773
331 1 10.7202 17.867 10.7202 -7.96777
1541 1 8.93351 16.0803 10.7202 -8.17554
3040 2 10.7202 16.0803 12.5069 -6.96078
3847 1 8.93351 17.867 12.5069 -8.06987
25 3 14.2936 16.0803 12.5069 -6.52101
832 3 12.5069 17.867 12.5069 -6.43927
1255 1 14.2936 17.867 10.7202 -8.35087
2541 2 12.5069 16.0803 10.7202 -6.99551
149 1 17.867 16.0803 12.5069 -8.27864
1454 2 17.867 17.867 10.7202 -7.00738
1848 3 16.0803 17.867 12.5069 -6.55626
3541 2 16.0803 16.0803 10.7202 -7.00798
260 3 0 0 14.2936 -6.40404
541 1 1.7867 1.7867 14.2936 -8.42325
792 3 1.7867 0 16.0803 -6.55435
1041 2 0 1.7867 16.0803 -6.94917
1298 2 0 0 17.867 -7.01746
1548 2 1.7867 1.7867 17.867 -6.97718
1292 3 3.57341 0 14.2936 -6.41277
1542 1 5.36011 1.7867 14.2936 -8.16756
1792 1 5.36011 0 16.0803 -8.16737
2042 2 3.57341 1.7867 16.0803 -7.03346
2298 1 3.57341 0 17.867 -8.26678
2291 2 7.14681 0 14.2936 -6.98901
2549 1 5.36011 1.7867 17.867 -8.10105
3042 2 7.14681 1.7867 16.0803 -6.98878
3298 3 7.14681 0 17.867 -6.23213
283 3 10.7202 0 17.867 -6.43354
26 2 10.7202 1.7867 16.0803 -6.93447
2542 2 8.93351 1.7867 14.2936 -7.0392
2791 1 8.93351 0 16.0803 -8.30495
3291 1 10.7202 0 14.2936 -8.29855
3549 3 8.93351 1.7867 17.867 -6.36741
261 2 14.2936 0 14.2936 -6.99435
502 3 12.5069 1.7867 17.867 -6.45165
1042 2 14.2936 1.7867 16.0803 -6.95751
1300 2 14.2936 0 17.867 -7.1085
3542 3 12.5069 1.7867 14.2936 -6.4726
3792 1 12.5069 0 16.0803 -8.36098
401 3 17.867 0 14.2936 -6.38433
542 1 16.0803 1.7867 14.2936 -8.4143
793 2 16.0803 0 16.0803 -7.00707
1151 1 17.867 1.7867 16.0803 -8.61451
1407 2 17.867 0 17.867 -6.94987
1550 3 16.0803 1.7867 17.867 -6.44786
1293 3 0 3.57341 14.2936 -6.48112
1543 3 1.7867 5.36011 14.2936 -6.47589
1793 3 1.7867 3.57341 16.0803 -6.43071
2043 3 0 5.36011 16.0803 -6.58357
2300 1 0 3.57341 17.867 -8.62035
2293 3 0 7.14681 14.2936 -6.36413
2551 2 1.7867 5.36011 17.867 -6.98529
2793 3 1.7867 7.14681 16.0803 -6.53724
3302 2 0 7.14681 17.867 -7.01669
264 1 7.14681 7.14681 14.2936 -8.55866
289 3 3.57341 7.14681 17.867 -6.60499
286 3 7.14681 3.57341 17.867 -6.31755
27 2 7.14681 5.36011 16.0803 -6.9493
1306 3 7.14681 7.14681 17.867 -6.68049
2292 1 3.57341 3.57341 14.2936 -8.29092
2543 3 5.36011 5.36011 14.2936 -6.27018
2792 1 5.36011 3.57341 16.0803 -8.19651
3043 2 3.57341 5.36011 16.0803 -6.94436
3300 1 3.57341 3.57341 17.867 -8.21455
3294 3 3.57341 7.14681 14.2936 -6.49359
3292 1 7.14681 3.57341 14.2936 -8.26903
3551 3 5.36011 5.36011 17.867 -6.51524
3795 3 5.36011 7.14681 16.0803 -6.55374
262 1 10.7202 3.57341 14.2936 -8.31554
504 2 8.93351 5.36011 17.867 -7.0047
796 3 8.93351 7.14681 16.0803 -6.546
1043 2 10.7202 5.36011 16.0803 -6.9573
1301 1 10.7202 3.57341 17.867 -8.43325
1295 3 10.7202 7.14681 14.2936 -6.46715
2304 1 10.7202 7.14681 17.867 -8.43364
3543 3 8.93351 5.36011 14.2936 -6.38674
3793 1 8.93351 3.57341 16.0803 -8.37458
543 1 12.5069 5.36011 14.2936 -8.01812
794 1 12.5069 3.57341 16.0803 -8.22321
1294 3 14.2936 3.57341 14.2936 -6.29898
1552 3 12.5069 5.36011 17.867 -6.17543
1796 1 12.5069 7.14681 16.0803 -8.14171
2044 1 14.2936 5.36011 16.0803 -8.03257
2302 1 14.2936 3.57341 17.867 -8.23229
2295 1 14.2936 7.14681 14.2936 -8.18987
3306 1 14.2936 7.14681 17.867 -8.1048
1402 3 17.867 3.57341 14.2936 -6.33953
1544 1 16.0803 5.36011 14.2936 -8.07212
1794 1 16.0803 3.57341 16.0803 -8.2034
2152 2 17.867 5.36011 16.0803 -6.9148
2262 1 17.867 7.14681 14.2936 -8.38197
2410 3 17.867 3.57341 17.867 -6.32019
2553 2 16.0803 5.36011 17.867 -6.99101
2795 3 16.0803 7.14681 16.0803 -6.26994
3427 2 17.867 7.14681 17.867 -6.96944
287 3 0 10.7202 17.867 -6.44216
2544 1 1.7867 8.93351 14.2936 -8.54248
3044 3 0 8.93351 16.0803 -6.37244
3293 1 0 10.7202 14.2936 -8.40016
3553 1 1.7867 8.93351 17.867 -8.74862
3794 2 1.7867 10.7202 16.0803 -6.93455
263 2 3.57341 10.7202 14.2936 -7.08094
28 2 3.57341 8.93351 16.0803 -6.94367
506 1 5.36011 8.93351 17.867 -8.73033
795 3 5.36011 10.7202 16.0803 -6.69674
1044 3 7.14681 8.93351 16.0803 -6.57874
1304 2 3.57341 10.7202 17.867 -6.97867
1296 2 7.14681 10.7202 14.2936 -6.97644
2305 3 7.14681 10.7202 17.867 -6.64462
3544 3 5.36011 8.93351 14.2936 -6.52794
544 2 8.93351 8.93351 14.2936 -7.0223
1554 3 8.93351 8.93351 17.867 -6.63148
1795 2 8.93351 10.7202 16.0803 -6.96734
2045 2 10.7202 8.93351 16.0803 -6.96912
2294 1 10.7202 10.7202 14.2936 -8.39579
3303 3 10.7202 10.7202 17.867 -6.52663
291 3 14.2936 10.7202 17.867 -6.50664
1545 3 12.5069 8.93351 14.2936 -6.36411
2555 1 12.5069 8.93351 17.867 -8.11911
2794 1 12.5069 10.7202 16.0803 -8.39314
3045 2 14.2936 8.93351 16.0803 -6.98908
3295 2 14.2936 10.7202 14.2936 -7.05025
413 2 17.867 10.7202 17.867 -7.01738
2545 3 16.0803 8.93351 14.2936 -6.48173
3169 3 17.867 8.93351 16.0803 -6.54562
3419 3 17.867 10.7202 14.2936 -6.46095
3555 1 16.0803 8.93351 17.867 -8.43476
3796 2 16.0803 10.7202 16.0803 -6.98905
265 1 0 14.2936 14.2936 -8.26778
29 3 0 12.5069 16.0803 -6.2224
508 1 1.7867 12.5069 17.867 -8.58905
797 1 1.7867 14.2936 16.0803 -8.43896
1308 3 0 14.2936 17.867 -6.32147
3545 3 1.7867 12.5069 14.2936 -6.51826
545 3 5.36011 12.5069 14.2936 -6.61429
1045 2 3.57341 12.5069 16.0803 -7.05834
1297 2 3.57341 14.2936 14.2936 -6.97001
1556 2 5.36011 12.5069 17.867 -6.98525
1797 1 5.36011 14.2936 16.0803 -8.65301
2046 3 7.14681 12.5069 16.0803 -6.56891
2308 3 3.57341 14.2936 17.867 -6.30753
2296 3 7.14681 14.2936 14.2936 -6.38945
3308 2 7.14681 14.2936 17.867 -6.95312
293 3 10.7202 14.2936 17.867 -6.61379
1546 3 8.93351 12.5069 14.2936 -6.32514
2557 2 8.93351 12.5069 17.867 -7.00669
2796 1 8.93351 14.2936 16.0803 -8.47435
3046 1 10.7202 12.5069 16.0803 -8.31901
3296 1 10.7202 14.2936 14.2936 -8.28566
266 3 14.2936 14.2936 14.2936 -6.47081
30 3 14.2936 12.5069 16.0803 -6.50215
1310 1 14.2936 14.2936 17.867 -8.44342
2546 2 12.5069 12.5069 14.2936 -6.93156
3557 2 12.5069 12.5069 17.867 -6.99324
3797 3 12.5069 14.2936 16.0803 -6.50633
406 2 17.867 14.2936 14.2936 -7.02869
154 1 17.867 12.5069 16.0803 -8.33474
510 3 16.0803 12.5069 17.867 -6.52089
798 1 16.0803 14.2936 16.0803 -8.3899
1417 3 17.867 14.2936 17.867 -6.33104
3546 2 16.0803 12.5069 14.2936 -7.02218
546 1 1.7867 16.0803 14.2936 -8.2345
1046 1 0 16.0803 16.0803 -8.08107
1558 3 1.7867 16.0803 17.867 -6.29657
2353 3 0 17.867 14.2936 -6.2215
2853 2 1.7867 17.867 16.0803 -6.96299
3359 1 0 17.867 17.867 -8.10642
347 2 3.57341 17.867 17.867 -6.93598
340 1 7.14681 17.867 14.2936 -8.51249
1348 2 7.14681 17.867 17.867 -6.9835
1547 3 5.36011 16.0803 14.2936 -6.47382
2047 3 3.57341 16.0803 16.0803 -6.35863
2559 1 5.36011 16.0803 17.867 -8.34561
3047 3 7.14681 16.0803 16.0803 -6.34623
3354 1 3.57341 17.867 14.2936 -8.46137
3855 2 5.36011 17.867 16.0803 -6.95012
31 2 10.7202 16.0803 16.0803 -6.89602
840 3 8.93351 17.867 16.0803 -6.5176
1261 3 10.7202 17.867 14.2936 -6.34068
2361 3 10.7202 17.867 17.867 -6.4862
2547 1 8.93351 16.0803 14.2936 -8.30997
3559 3 8.93351 16.0803 17.867 -6.5368
512 2 12.5069 16.0803 17.867 -6.99389
1047 2 14.2936 16.0803 16.0803 -6.89452
1856 1 12.5069 17.867 16.0803 -8.67749
2355 3 14.2936 17.867 14.2936 -6.6203
3363 3 14.2936 17.867 17.867 -6.42862
3547 3 12.5069 16.0803 14.2936 -6.45566
547 2 16.0803 16.0803 14.2936 -7.00474
1156 1 17.867 16.0803 16.0803 -8.49712
1560 3 16.0803 16.0803 17.867 -6.25916
2463 2 17.867 17.867 14.2936 -6.99835
2855 3 16.0803 17.867 16.0803 -6.62684
3469 3 17.867 17.867 17.867 -6.42797
1798 3 1.7867 0 19.6537 -6.34595
2048 2 0 1.7867 19.6537 -6.99908
2297 2 0 0 21.4404 -6.88044
2548 1 1.7867 1.7867 21.4404 -8.16895
32 3 7.14681 1.7867 19.6537 -6.28009
284 3 7.14681 0 21.4404 -6.46578
2797 1 5.36011 0 19.6537 -8.28966
3048 1 3.57341 1.7867 19.6537 -7.97047
3297 1 3.57341 0 21.4404 -8.32593
3548 3 5.36011 1.7867 21.4404 -6.16506
501 2 8.93351 1.7867 21.4404 -6.98667
1048 3 10.7202 1.7867 19.6537 -6.55623
1299 2 10.7202 0 21.4404 -7.06827
3798 3 8.93351 0 19.6537 -6.52973
799 2 12.5069 0 19.6537 -7.11454
1549 2 12.5069 1.7867 21.4404 -7.11
2049 2 14.2936 1.7867 19.6537 -7.07145
2299 2 14.2936 0 21.4404 -7.0807
1799 2 16.0803 0 19.6537 -7.07235
2157 3 17.867 1.7867 19.6537 -6.35409
2408 1 17.867 0 21.4404 -8.43967
2550 1 16.0803 1.7867 21.4404 -8.10503
288 3 0 7.14681 21.4404 -6.53213
2798 1 1.7867 3.57341 19.6537 -8.1688
3049 3 0 5.36011 19.6537 -6.52283
3299 2 0 3.57341 21.4404 -6.90909
3550 3 1.7867 5.36011 21.4404 -6.48248
3800 3 1.7867 7.14681 19.6537 -6.63495
503 3 5.36011 5.36011 21.4404 -6.51489
33 2 3.57341 5.36011 19.6537 -6.96105
285 1 3.57341 3.57341 21.4404 -8.10941
802 2 5.36011 7.14681 19.6537 -7.04823
1049 2 7.14681 5.36011 19.6537 -6.98885
1305 3 3.57341 7.14681 21.4404 -6.66242
1302 3 7.14681 3.57341 21.4404 -6.36747
2306 3 7.14681 7.14681 21.4404 -6.69421
3799 1 5.36011 3.57341 19.6537 -8.45268
800 1 8.93351 3.57341 19.6537 -8.53206
1551 1 8.93351 5.36011 21.4404 -8.57698
1802 2 8.93351 7.14681 19.6537 -7.08071
2050 3 10.7202 5.36011 19.6537 -6.49159
2301 2 10.7202 3.57341 21.4404 -7.07944
3304 2 10.7202 7.14681 21.4404 -7.18387
292 2 14.2936 7.14681 21.4404 -6.96689
1800 3 12.5069 3.57341 19.6537 -6.45703
2552 2 12.5069 5.36011 21.4404 -7.09794
2801 2 12.5069 7.14681 19.6537 -7.08524
3050 1 14.2936 5.36011 19.6537 -8.30675
3301 1 14.2936 3.57341 21.4404 -8.42106
414 2 17.867 7.14681 21.4404 -7.04493
2799 1 16.0803 3.57341 19.6537 -8.28988
3174 3 17.867 5.36011 19.6537 -6.40782
3425 1 17.867 3.57341 21.4404 -8.2764
3552 3 16.0803 5.36011 21.4404 -6.38706
3802 3 16.0803 7.14681 19.6537 -6.41487
505 3 1.7867 8.93351 21.4404 -6.52437
34 2 0 8.93351 19.6537 -7.02018
801 3 1.7867 10.7202 19.6537 -6.51847
1303 2 0 10.7202 21.4404 -6.94447
1050 3 3.57341 8.93351 19.6537 -6.51847
1553 2 5.36011 8.93351 21.4404 -7.00011
1801 2 5.36011 10.7202 19.6537 -6.96638
2051 2 7.14681 8.93351 19.6537 -7.06401
2303 1 3.57341 10.7202 21.4404 -8.50068
3305 1 7.14681 10.7202 21.4404 -8.25935
290 2 10.7202 10.7202 21.4404 -7.14857
2554 2 8.93351 8.93351 21.4404 -7.14722
2800 1 8.93351 10.7202 19.6537 -8.52578
3051 2 10.7202 8.93351 19.6537 -7.10864
35 1 14.2936 8.93351 19.6537 -8.15937
1307 1 14.2936 10.7202 21.4404 -8.3916
3554 2 12.5069 8.93351 21.4404 -7.11693
3801 2 12.5069 10.7202 19.6537 -7.07222
507 1 16.0803 8.93351 21.4404 -8.13029
159 2 17.867 8.93351 19.6537 -7.04759
803 2 16.0803 10.7202 19.6537 -7.06939
1414 1 17.867 10.7202 21.4404 -8.27862
1051 2 0 12.5069 19.6537 -7.01916
1555 3 1.7867 12.5069 21.4404 -6.40631
1803 2 1.7867 14.2936 19.6537 -6.9328
2307 1 0 14.2936 21.4404 -8.47633
294 3 7.14681 14.2936 21.4404 -6.48822
2052 3 3.57341 12.5069 19.6537 -6.36547
2556 1 5.36011 12.5069 21.4404 -8.23694
2802 1 5.36011 14.2936 19.6537 -8.38962
3052 2 7.14681 12.5069 19.6537 -7.03448
3307 1 3.57341 14.2936 21.4404 -8.28565
36 2 10.7202 12.5069 19.6537 -7.13037
1309 2 10.7202 14.2936 21.4404 -7.06678
3556 2 8.93351 12.5069 21.4404 -7.04096
3803 3 8.93351 14.2936 19.6537 -6.75119
509 2 12.5069 12.5069 21.4404 -7.06588
804 3 12.5069 14.2936 19.6537 -6.66671
1052 3 14.2936 12.5069 19.6537 -6.57553
2309 2 14.2936 14.2936 21.4404 -6.94573
1161 2 17.867 12.5069 19.6537 -7.04264
1557 3 16.0803 12.5069 21.4404 -6.39652
1804 2 16.0803 14.2936 19.6537 -6.94063
2418 1 17.867 14.2936 21.4404 -8.35088
346 2 0 17.867 21.4404 -6.995
2053 1 0 16.0803 19.6537 -8.45836
2558 2 1.7867 16.0803 21.4404 -7.03066
3860 3 1.7867 17.867 19.6537 -6.25541
37 3 7.14681 16.0803 19.6537 -6.4837
846 2 5.36011 17.867 19.6537 -6.97471
1347 1 3.57341 17.867 21.4404 -8.40802
2363 2 7.14681 17.867 21.4404 -6.88224
3053 1 3.57341 16.0803 19.6537 -8.2549
3558 3 5.36011 16.0803 21.4404 -6.34565
511 3 8.93351 16.0803 21.4404 -6.50275
1053 2 10.7202 16.0803 19.6537 -7.02053
1862 1 8.93351 17.867 19.6537 -8.61591
3361 1 10.7202 17.867 21.4404 -8.42648
350 2 14.2936 17.867 21.4404 -7.06384
1559 2 12.5069 16.0803 21.4404 -7.0284
2054 1 14.2936 16.0803 19.6537 -8.31395
2861 1 12.5069 17.867 19.6537 -8.2878
472 1 17.867 17.867 21.4404 -8.1668
2162 1 17.867 16.0803 19.6537 -8.34028
2560 2 16.0803 16.0803 21.4404 -7.0842
3862 1 16.0803 17.867 19.6537 -8.2728
47 3 0 1.7867 26.8005 -6.62875
2803 3 1.7867 0 23.2271 -6.36732
3054 3 0 1.7867 23.2271 -6.35182
3309 3 0 0 25.0138 -6.50518
3560 3 1.7867 1.7867 25.0138 -6.47771
3813 3 1.7867 0 26.8005 -6.59694
549 2 3.57341 1.7867 26.8005 -7.02633