ITEM: TIMESTEP
0
ITEM: NUMBER OF ATOMS
4000
ITEM: BOX BOUNDS pp pp pp
0.0000000000000000e+00 3.5790759999999999e+01
0.0000000000000000e+00 3.5790759999999999e+01
0.0000000000000000e+00 3.5790759999999999e+01
ITEM: ATOMS id type x y z c_peratom
267 2 0 0 0 -7.01049
516 2 1.78954 1.78954 0 -6.94507
767 2 1.78954 0 1.78954 -7.1107
1016 1 0 1.78954 1.78954 -8.44539
1267 3 0 0 3.57908 -6.73406
1517 2 1.78954 1.78954 3.57908 -7.03794
1268 3 3.57908 0 0 -6.62739
1518 3 5.36861 1.78954 0 -6.42133
1767 3 5.36861 0 1.78954 -6.51812
2017 3 3.57908 1.78954 1.78954 -6.57034
2266 3 3.57908 0 3.57908 -6.74335
2267 1 7.15815 0 0 -8.50051
2517 3 5.36861 1.78954 3.57908 -6.46842
3017 3 7.15815 1.78954 1.78954 -6.39142
3266 1 7.15815 0 3.57908 -8.42758
1 2 10.7372 1.78954 1.78954 -6.99377
268 2 10.7372 0 3.57908 -6.9226
2518 2 8.94769 1.78954 0 -6.96369
2766 2 8.94769 0 1.78954 -6.97052
3267 1 10.7372 0 0 -8.41296
3517 1 8.94769 1.78954 3.57908 -8.33845
269 2 14.3163 0 0 -6.95199
517 3 12.5268 1.78954 3.57908 -6.59788
1017 3 14.3163 1.78954 1.78954 -6.5419
1269 3 14.3163 0 3.57908 -6.43896
3518 1 12.5268 1.78954 0 -8.46696
3767 3 12.5268 0 1.78954 -6.51172
518 3 16.1058 1.78954 0 -6.39423
768 1 16.1058 0 1.78954 -8.43997
1519 3 16.1058 1.78954 3.57908 -6.22391
1270 3 0 3.57908 0 -6.34548
1520 2 1.78954 5.36861 0 -6.97935
1768 3 1.78954 3.57908 1.78954 -6.32597
2018 1 0 5.36861 1.78954 -8.38744
2271 2 0 7.15815 0 -7.01013
2268 1 0 3.57908 3.57908 -8.4955
2519 3 1.78954 5.36861 3.57908 -6.41124
2768 2 1.78954 7.15815 1.78954 -7.00295
3270 2 0 7.15815 3.57908 -7.01642
2 1 7.15815 5.36861 1.78954 -8.10391
273 2 7.15815 7.15815 0 -7.01641
272 2 3.57908 7.15815 3.57908 -6.96778
270 1 7.15815 3.57908 3.57908 -8.47329
1273 1 7.15815 7.15815 3.57908 -8.22565
2269 1 3.57908 3.57908 0 -8.40382
2520 1 5.36861 5.36861 0 -8.08735
2767 2 5.36861 3.57908 1.78954 -6.93703
3018 1 3.57908 5.36861 1.78954 -8.20912
3271 1 3.57908 7.15815 0 -8.21107
3269 3 7.15815 3.57908 0 -6.42217
3268 1 3.57908 3.57908 3.57908 -8.62229
3519 2 5.36861 5.36861 3.57908 -6.96339
3769 2 5.36861 7.15815 1.78954 -7.0621
271 2 10.7372 3.57908 0 -6.97482
519 3 8.94769 5.36861 3.57908 -6.4086
770 1 8.94769 7.15815 1.78954 -8.18076
1018 2 10.7372 5.36861 1.78954 -6.90461
1274 3 10.7372 7.15815 0 -6.21581
1271 3 10.7372 3.57908 3.57908 -6.59477
2272 3 10.7372 7.15815 3.57908 -6.41955
3520 1 8.94769 5.36861 0 -8.27456
3768 3 8.94769 3.57908 1.78954 -6.42915
520 1 12.5268 5.36861 0 -8.37113
769 3 12.5268 3.57908 1.78954 -6.53679
1272 2 14.3163 3.57908 0 -6.98015
1521 3 12.5268 5.36861 3.57908 -6.60503
1770 2 12.5268 7.15815 1.78954 -7.00301
2019 1 14.3163 5.36861 1.78954 -8.35343
2273 1 14.3163 7.15815 0 -8.26503
2270 2 14.3163 3.57908 3.57908 -6.87083
3272 3 14.3163 7.15815 3.57908 -6.58422
1522 2 16.1058 5.36861 0 -7.04996
1769 2 16.1058 3.57908 1.78954 -6.97198
2521 1 16.1058 5.36861 3.57908 -8.16679
2769 2 16.1058 7.15815 1.78954 -7.12374
274 2 0 10.7372 3.57908 -7.03944
2522 3 1.78954 8.94769 0 -6.34375
3019 2 0 8.94769 1.78954 -7.02651
3273 2 0 10.7372 0 -6.99863
3521 3 1.78954 8.94769 3.57908 -6.55367
3770 1 1.78954 10.7372 1.78954 -8.38348
3 1 3.57908 8.94769 1.78954 -8.21727
275 1 3.57908 10.7372 0 -8.08671
521 2 5.36861 8.94769 3.57908 -7.01458
771 2 5.36861 10.7372 1.78954 -6.97652
1019 1 7.15815 8.94769 1.78954 -8.30601
1276 3 7.15815 10.7372 0 -6.34709
1275 2 3.57908 10.7372 3.57908 -6.9661
2274 3 7.15815 10.7372 3.57908 -6.42204
3522 1 5.36861 8.94769 0 -8.08513
522 3 8.94769 8.94769 0 -6.36711
1523 1 8.94769 8.94769 3.57908 -8.14709
1771 3 8.94769 10.7372 1.78954 -6.42173
2020 1 10.7372 8.94769 1.78954 -8.42196
2275 2 10.7372 10.7372 0 -7.05916
3274 2 10.7372 10.7372 3.57908 -7.0482
276 2 14.3163 10.7372 3.57908 -7.12007
1524 1 12.5268 8.94769 0 -8.18311
2523 2 12.5268 8.94769 3.57908 -7.0657
2770 3 12.5268 10.7372 1.78954 -6.60339
3020 2 14.3163 8.94769 1.78954 -7.08773
3275 1 14.3163 10.7372 0 -8.26585
2524 2 16.1058 8.94769 0 -7.12305
3523 2 16.1058 8.94769 3.57908 -7.11345
3771 1 16.1058 10.7372 1.78954 -8.27675
4 1 0 12.5268 1.78954 -8.16405
277 3 0 14.3163 0 -6.33751
523 3 1.78954 12.5268 3.57908 -6.40664
772 1 1.78954 14.3163 1.78954 -8.291
1277 2 0 14.3163 3.57908 -7.04342
3524 3 1.78954 12.5268 0 -6.27221
524 1 5.36861 12.5268 0 -8.11145
1020 3 3.57908 12.5268 1.78954 -6.21661
1278 2 3.57908 14.3163 0 -6.89881
1525 1 5.36861 12.5268 3.57908 -8.3153
1772 1 5.36861 14.3163 1.78954 -8.04461
2021 1 7.15815 12.5268 1.78954 -8.30281
2277 1 7.15815 14.3163 0 -8.1744
2276 1 3.57908 14.3163 3.57908 -8.11318
3276 2 7.15815 14.3163 3.57908 -6.90869
278 3 10.7372 14.3163 3.57908 -6.50685
1526 2 8.94769 12.5268 0 -7.05146
2525 2 8.94769 12.5268 3.57908 -6.95646
2771 3 8.94769 14.3163 1.78954 -6.45316
3021 2 10.7372 12.5268 1.78954 -7.06562
3277 2 10.7372 14.3163 0 -7.01453
5 2 14.3163 12.5268 1.78954 -6.92387
279 3 14.3163 14.3163 0 -6.32143
1279 2 14.3163 14.3163 3.57908 -6.97242
2526 3 12.5268 12.5268 0 -6.50115
3525 3 12.5268 12.5268 3.57908 -6.65444
3772 1 12.5268 14.3163 1.78954 -8.55188
525 3 16.1058 12.5268 3.57908 -6.49393
773 3 16.1058 14.3163 1.78954 -6.42507
3526 3 16.1058 12.5268 0 -6.33941
526 1 1.78954 16.1058 0 -8.34888
1021 3 0 16.1058 1.78954 -6.35024
1527 2 1.78954 16.1058 3.57908 -6.99966
1528 2 5.36861 16.1058 0 -6.94865
2022 1 3.57908 16.1058 1.78954 -7.9942
2527 1 5.36861 16.1058 3.57908 -8.26417
3022 3 7.15815 16.1058 1.78954 -6.3012
6 2 10.7372 16.1058 1.78954 -7.00244
2528 1 8.94769 16.1058 0 -8.2689
3527 1 8.94769 16.1058 3.57908 -8.45798
527 3 12.5268 16.1058 3.57908 -6.38602
1022 3 14.3163 16.1058 1.78954 -6.3441
3528 1 12.5268 16.1058 0 -8.24121
528 1 16.1058 16.1058 0 -8.39382
1529 1 16.1058 16.1058 3.57908 -8.28007
1773 2 1.78954 0 5.36861 -7.09259
2023 2 0 1.78954 5.36861 -7.05486
2278 1 0 0 7.15815 -8.40164
2529 2 1.78954 1.78954 7.15815 -7.00923
7 2 7.15815 1.78954 5.36861 -6.96113
2773 3 3.57908 0 7.15815 -6.62023
2772 2 5.36861 0 5.36861 -6.99252
3024 1 5.36861 1.78954 7.15815 -8.37109
3023 2 3.57908 1.78954 5.36861 -7.01804
3278 2 7.15815 0 7.15815 -6.97572
1023 3 10.7372 1.78954 5.36861 -6.40522
3529 3 8.94769 1.78954 7.15815 -6.45103
3774 2 10.7372 0 7.15815 -6.96253
3773 1 8.94769 0 5.36861 -8.30092
8 1 12.5268 1.78954 7.15815 -8.24537
280 2 14.3163 0 7.15815 -6.99993
774 3 12.5268 0 5.36861 -6.47179
2024 1 14.3163 1.78954 5.36861 -8.25835
529 1 16.1058 1.78954 7.15815 -7.88454
1774 1 16.1058 0 5.36861 -8.13401
775 2 0 3.57908 7.15815 -7.03273
1024 2 1.78954 5.36861 7.15815 -6.91927
2774 3 1.78954 3.57908 5.36861 -6.49862
3025 3 0 5.36861 5.36861 -6.53859
3279 3 0 7.15815 7.15815 -6.45011
3776 1 1.78954 7.15815 5.36861 -8.59611
9 3 3.57908 5.36861 5.36861 -6.48253
281 2 7.15815 7.15815 7.15815 -7.00525
777 3 5.36861 7.15815 5.36861 -6.55435
1025 3 7.15815 5.36861 5.36861 -6.41238
1280 1 3.57908 3.57908 7.15815 -8.47232
1530 3 5.36861 5.36861 7.15815 -6.55585
1775 1 7.15815 3.57908 7.15815 -8.52277
3777 3 3.57908 7.15815 7.15815 -6.51584
3775 3 5.36861 3.57908 5.36861 -6.33649
778 3 10.7372 7.15815 7.15815 -6.39311
776 2 8.94769 3.57908 5.36861 -6.92173
1777 1 8.94769 7.15815 5.36861 -8.38388
2026 2 10.7372 5.36861 5.36861 -6.92123
2025 2 8.94769 5.36861 7.15815 -7.0183
2279 1 10.7372 3.57908 7.15815 -8.2946
1281 2 14.3163 7.15815 7.15815 -6.97805
1776 3 12.5268 3.57908 5.36861 -6.39343
2530 1 12.5268 5.36861 7.15815 -8.26513
2777 3 12.5268 7.15815 5.36861 -6.56442
2776 1 14.3163 3.57908 7.15815 -8.12213
3026 3 14.3163 5.36861 5.36861 -6.38457
2775 1 16.1058 3.57908 5.36861 -8.07163
3027 3 16.1058 5.36861 7.15815 -6.40043
3778 3 16.1058 7.15815 5.36861 -6.45883
10 3 0 8.94769 5.36861 -6.59629
779 3 1.78954 10.7372 5.36861 -6.63851
1778 2 0 10.7372 7.15815 -7.00365
3530 1 1.78954 8.94769 7.15815 -8.45098
11 1 5.36861 8.94769 7.15815 -8.51947
1026 3 3.57908 8.94769 5.36861 -6.55535
1779 2 5.36861 10.7372 5.36861 -6.98528
2027 2 7.15815 8.94769 5.36861 -6.96727
2280 2 3.57908 10.7372 7.15815 -6.93565
2779 1 7.15815 10.7372 7.15815 -8.43017
530 3 8.94769 8.94769 7.15815 -6.47782
2778 2 8.94769 10.7372 5.36861 -6.96174
3028 1 10.7372 8.94769 5.36861 -8.53451
3280 3 10.7372 10.7372 7.15815 -6.4583
12 2 14.3163 8.94769 5.36861 -7.07265
1027 2 12.5268 8.94769 7.15815 -7.00676
3780 1 14.3163 10.7372 7.15815 -8.10461
3779 2 12.5268 10.7372 5.36861 -7.07279
780 1 16.1058 10.7372 5.36861 -8.30352
1531 1 16.1058 8.94769 7.15815 -8.01984
282 2 0 14.3163 7.15815 -7.04946
1028 2 0 12.5268 5.36861 -7.07776
1780 1 1.78954 14.3163 5.36861 -8.47783
2028 3 1.78954 12.5268 7.15815 -6.51405
781 3 3.57908 14.3163 7.15815 -6.44652
1282 1 7.15815 14.3163 7.15815 -8.34751
2029 3 3.57908 12.5268 5.36861 -6.43839
2531 3 5.36861 12.5268 7.15815 -6.42368
2780 1 5.36861 14.3163 5.36861 -8.22383
3029 3 7.15815 12.5268 5.36861 -6.42281
13 1 10.7372 12.5268 5.36861 -8.63007
1781 2 10.7372 14.3163 7.15815 -6.9529
3030 3 8.94769 12.5268 7.15815 -6.40457
3781 3 8.94769 14.3163 5.36861 -6.40778
782 2 12.5268 14.3163 5.36861 -6.98341
1029 2 14.3163 12.5268 5.36861 -7.04828
2281 1 14.3163 14.3163 7.15815 -8.29969
3531 2 12.5268 12.5268 7.15815 -7.0474
14 3 16.1058 12.5268 7.15815 -6.31348
1782 2 16.1058 14.3163 5.36861 -7.04385
531 2 1.78954 16.1058 7.15815 -7.01637
2030 2 0 16.1058 5.36861 -7.05066
15 3 7.15815 16.1058 5.36861 -6.19225
1030 1 5.36861 16.1058 7.15815 -8.32154
3031 2 3.57908 16.1058 5.36861 -7.00171
1031 3 10.7372 16.1058 5.36861 -6.3035
1532 1 8.94769 16.1058 7.15815 -8.26129
2032 1 14.3163 16.1058 5.36861 -8.08471
2031 1 12.5268 16.1058 7.15815 -8.30523
2532 2 16.1058 16.1058 7.15815 -7.01746
16 1 0 1.78954 12.5268 -8.58783
2781 3 1.78954 0 8.94769 -6.54505
3032 1 0 1.78954 8.94769 -8.27327
3281 2 0 0 10.7372 -6.97349
3532 2 1.78954 1.78954 10.7372 -6.92537
3782 3 1.78954 0 12.5268 -6.43756
251 3 3.57908 0 10.7372 -6.53691
17 1 7.15815 1.78954 8.94769 -8.32563
532 2 5.36861 1.78954 10.7372 -7.01484
783 3 5.36861 0 12.5268 -6.51838
1032 3 3.57908 1.78954 12.5268 -6.56348
1283 2 7.15815 0 10.7372 -6.9986
2033 3 7.15815 1.78954 12.5268 -6.59942
3282 3 5.36861 0 8.94769 -6.58351
3533 3 3.57908 1.78954 8.94769 -6.52892
533 2 10.7372 1.78954 8.94769 -7.02636
1533 2 8.94769 1.78954 10.7372 -6.99007
1783 3 8.94769 0 12.5268 -6.48061
2282 2 10.7372 0 10.7372 -6.98706
3033 3 10.7372 1.78954 12.5268 -6.4437
3783 1 8.94769 0 8.94769 -8.27294
252 2 12.5268 0 8.94769 -6.99402
18 2 14.3163 1.78954 12.5268 -7.0382
1033 3 14.3163 1.78954 8.94769 -6.18523
2533 1 12.5268 1.78954 10.7372 -8.37958
2782 2 12.5268 0 12.5268 -7.02345
3283 2 14.3163 0 10.7372 -7.04385
784 1 16.1058 0 8.94769 -8.20466
3534 1 16.1058 1.78954 10.7372 -8.10439
3784 2 16.1058 0 12.5268 -6.93114
253 3 0 3.57908 10.7372 -6.39674
534 3 1.78954 5.36861 10.7372 -6.39166
785 1 1.78954 3.57908 12.5268 -8.56233
1034 2 0 5.36861 12.5268 -6.90864
1286 1 0 7.15815 10.7372 -8.40617
1284 1 1.78954 3.57908 8.94769 -8.40442
1534 2 0 5.36861 8.94769 -6.96127
1786 3 1.78954 7.15815 12.5268 -6.50525
3786 3 1.78954 7.15815 8.94769 -6.45702
255 2 5.36861 7.15815 8.94769 -7.0557
1285 3 3.57908 3.57908 10.7372 -6.45124
1535 1 5.36861 5.36861 10.7372 -8.32116
1785 2 5.36861 3.57908 12.5268 -6.99987
1784 3 5.36861 3.57908 8.94769 -6.44292
2035 1 3.57908 5.36861 12.5268 -8.3693
2034 2 3.57908 5.36861 8.94769 -6.91515
2285 1 3.57908 7.15815 10.7372 -8.44978
2284 2 7.15815 3.57908 10.7372 -7.02375
2534 2 7.15815 5.36861 8.94769 -7.03122
2785 3 5.36861 7.15815 12.5268 -6.49607
3034 1 7.15815 5.36861 12.5268 -8.20185
3286 2 7.15815 7.15815 10.7372 -7.10911
256 2 10.7372 7.15815 10.7372 -7.0121
19 3 10.7372 5.36861 12.5268 -6.40872
787 3 8.94769 7.15815 8.94769 -6.66389
2283 2 8.94769 3.57908 8.94769 -6.98994
2535 3 8.94769 5.36861 10.7372 -6.55341
2783 1 8.94769 3.57908 12.5268 -8.40509
3035 1 10.7372 5.36861 8.94769 -8.31304
3284 3 10.7372 3.57908 10.7372 -6.31258
3787 2 8.94769 7.15815 12.5268 -7.0414
254 2 14.3163 3.57908 10.7372 -6.95536
788 2 12.5268 7.15815 12.5268 -6.98913
1035 3 14.3163 5.36861 12.5268 -6.43475
1288 1 14.3163 7.15815 10.7372 -8.46171
1287 1 12.5268 7.15815 8.94769 -8.18452
2784 1 12.5268 3.57908 8.94769 -8.05828
3536 2 14.3163 5.36861 8.94769 -7.03053
3535 1 12.5268 5.36861 10.7372 -8.12457
3785 1 12.5268 3.57908 12.5268 -8.40007
535 3 16.1058 5.36861 10.7372 -6.37369
786 1 16.1058 3.57908 12.5268 -8.3252
1788 2 16.1058 7.15815 12.5268 -6.90787
1787 2 16.1058 7.15815 8.94769 -6.99358
3285 1 16.1058 3.57908 8.94769 -8.22554
20 1 0 8.94769 8.94769 -8.11938
1536 2 1.78954 8.94769 10.7372 -6.99029
2036 2 0 8.94769 12.5268 -6.99744
2287 1 0 10.7372 10.7372 -8.36053
2286 1 1.78954 10.7372 8.94769 -8.17666
2786 2 1.78954 10.7372 12.5268 -7.04019
257 3 7.15815 10.7372 10.7372 -6.60164
21 2 7.15815 8.94769 12.5268 -7.11143
536 3 3.57908 8.94769 8.94769 -6.41823
1036 2 7.15815 8.94769 8.94769 -7.09203
2536 2 5.36861 8.94769 10.7372 -7.08819
2787 2 5.36861 10.7372 8.94769 -6.98234
3036 2 3.57908 8.94769 12.5268 -7.03423
3287 1 3.57908 10.7372 10.7372 -8.31031
3788 2 5.36861 10.7372 12.5268 -7.08845
789 1 8.94769 10.7372 12.5268 -8.76083
1037 3 10.7372 8.94769 12.5268 -6.63511
1289 3 10.7372 10.7372 10.7372 -6.46863
1537 2 10.7372 8.94769 8.94769 -6.88094
3288 1 8.94769 10.7372 8.94769 -8.62752
3537 3 8.94769 8.94769 10.7372 -6.64667
537 3 12.5268 8.94769 10.7372 -6.42137
1789 3 12.5268 10.7372 12.5268 -6.53354
2038 3 14.3163 8.94769 12.5268 -6.53791
2037 1 14.3163 8.94769 8.94769 -8.04512
2288 1 14.3163 10.7372 10.7372 -8.38025
3789 1 12.5268 10.7372 8.94769 -8.37226
258 1 16.1058 10.7372 8.94769 -8.05482
1538 3 16.1058 8.94769 10.7372 -6.29559
2788 3 16.1058 10.7372 12.5268 -6.3799
790 2 1.78954 14.3163 8.94769 -6.96359
2538 2 1.78954 12.5268 10.7372 -6.9594
2537 3 0 12.5268 8.94769 -6.45621
3037 2 0 12.5268 12.5268 -7.03902
3289 1 0 14.3163 10.7372 -8.32307
3790 1 1.78954 14.3163 12.5268 -8.36912
259 3 3.57908 14.3163 10.7372 -6.54176
22 3 3.57908 12.5268 12.5268 -6.47591
791 3 5.36861 14.3163 12.5268 -6.51739
1038 2 7.15815 12.5268 12.5268 -7.01246
1291 2 7.15815 14.3163 10.7372 -6.98233
1290 3 5.36861 14.3163 8.94769 -6.37365
3038 1 3.57908 12.5268 8.94769 -8.39063
3539 2 7.15815 12.5268 8.94769 -6.95946
3538 1 5.36861 12.5268 10.7372 -8.48327
23 3 10.7372 12.5268 8.94769 -6.36547
538 2 8.94769 12.5268 10.7372 -6.92316
1791 3 8.94769 14.3163 12.5268 -6.43808
1790 1 8.94769 14.3163 8.94769 -8.30005
2039 3 10.7372 12.5268 12.5268 -6.46382
2290 3 10.7372 14.3163 10.7372 -6.42849
539 1 14.3163 12.5268 8.94769 -8.00937
1539 2 12.5268 12.5268 10.7372 -6.95769
2289 1 12.5268 14.3163 8.94769 -8.37397
2789 2 12.5268 14.3163 12.5268 -6.96929
3039 3 14.3163 12.5268 12.5268 -6.3454
3290 2 14.3163 14.3163 10.7372 -6.96328
2539 1 16.1058 12.5268 10.7372 -8.08509
2790 3 16.1058 14.3163 8.94769 -6.27382
3791 1 16.1058 14.3163 12.5268 -8.11829
24 2 0 16.1058 12.5268 -6.98711
1039 1 0 16.1058 8.94769 -8.27252
3540 3 1.78954 16.1058 10.7372 -6.5339
540 2 5.36861 16.1058 10.7372 -6.94436
1040 2 3.57908 16.1058 12.5268 -6.99511
1540 2 3.57908 16.1058 8.94769 -7.01974
2041 1 7.15815 16.1058 12.5268 -8.45609
2040 1 7.15815 16.1058 8.94769 -8.24081
1541 1 8.94769 16.1058 10.7372 -8.18186
2540 2 10.7372 16.1058 8.94769 -6.93817
3040 1 10.7372 16.1058 12.5268 -8.18049
25 2 14.3163 16.1058 12.5268 -7.00666
2541 2 12.5268 16.1058 10.7372 -6.99783
3041 3 14.3163 16.1058 8.94769 -6.5876
3541 3 16.1058 16.1058 10.7372 -6.49287
260 2 0 0 14.3163 -7.03217
541 3 1.78954 1.78954 14.3163 -6.41105
792 3 1.78954 0 16.1058 -6.44158
1041 2 0 1.78954 16.1058 -6.93534
1292 1 3.57908 0 14.3163 -8.53845
1542 2 5.36861 1.78954 14.3163 -6.92497
1792 3 5.36861 0 16.1058 -6.39645
2042 1 3.57908 1.78954 16.1058 -8.53664
2291 3 7.15815 0 14.3163 -6.45792
3042 3 7.15815 1.78954 16.1058 -6.36356
26 3 10.7372 1.78954 16.1058 -6.25926
2542 1 8.94769 1.78954 14.3163 -8.58974
2791 1 8.94769 0 16.1058 -8.31099
3291 3 10.7372 0 14.3163 -6.49759
261 3 14.3163 0 14.3163 -6.50629
1042 3 14.3163 1.78954 16.1058 -6.49308
3542 3 12.5268 1.78954 14.3163 -6.60048
3792 3 12.5268 0 16.1058 -6.38124
542 2 16.1058 1.78954 14.3163 -6.99457
793 1 16.1058 0 16.1058 -8.39911
1293 3 0 3.57908 14.3163 -6.49646
1543 3 1.78954 5.36861 14.3163 -6.41381
1793 3 1.78954 3.57908 16.1058 -6.41468
2043 1 0 5.36861 16.1058 -8.55234
2293 2 0 7.15815 14.3163 -6.9524
2793 3 1.78954 7.15815 16.1058 -6.42784
263 2 7.15815 7.15815 14.3163 -6.99474
27 3 7.15815 5.36861 16.1058 -6.48788
2292 3 3.57908 3.57908 14.3163 -6.39878
2543 1 5.36861 5.36861 14.3163 -8.57332
2792 3 5.36861 3.57908 16.1058 -6.47676
3043 3 3.57908 5.36861 16.1058 -6.51482
3293 3 3.57908 7.15815 14.3163 -6.44445
3292 2 7.15815 3.57908 14.3163 -6.94902
3794 3 5.36861 7.15815 16.1058 -6.47752
262 2 10.7372 3.57908 14.3163 -6.89915
795 3 8.94769 7.15815 16.1058 -6.61366
1043 1 10.7372 5.36861 16.1058 -8.27442
1295 2 10.7372 7.15815 14.3163 -7.05252
3543 1 8.94769 5.36861 14.3163 -8.37473
3793 3 8.94769 3.57908 16.1058 -6.26341
543 1 12.5268 5.36861 14.3163 -8.3742
794 3 12.5268 3.57908 16.1058 -6.41457
1294 2 14.3163 3.57908 14.3163 -7.01398
1795 2 12.5268 7.15815 16.1058 -6.99147
2044 2 14.3163 5.36861 16.1058 -6.96068
2294 2 14.3163 7.15815 14.3163 -7.0276
1544 3 16.1058 5.36861 14.3163 -6.44741
1794 3 16.1058 3.57908 16.1058 -6.4979
2794 1 16.1058 7.15815 16.1058 -8.28245
2544 3 1.78954 8.94769 14.3163 -6.63838
3044 3 0 8.94769 16.1058 -6.5816
3294 3 0 10.7372 14.3163 -6.62372
3795 2 1.78954 10.7372 16.1058 -6.94307
264 2 3.57908 10.7372 14.3163 -7.02458
28 1 3.57908 8.94769 16.1058 -8.5432
796 3 5.36861 10.7372 16.1058 -6.60381
1044 3 7.15815 8.94769 16.1058 -6.6792
1296 2 7.15815 10.7372 14.3163 -7.02891
3544 3 5.36861 8.94769 14.3163 -6.66269
544 3 8.94769 8.94769 14.3163 -6.69734
1796 2 8.94769 10.7372 16.1058 -6.93927
2045 3 10.7372 8.94769 16.1058 -6.67792
2295 3 10.7372 10.7372 14.3163 -6.49743
1545 2 12.5268 8.94769 14.3163 -7.02633
2795 1 12.5268 10.7372 16.1058 -8.49897
3045 1 14.3163 8.94769 16.1058 -8.28917
3295 2 14.3163 10.7372 14.3163 -6.96482
2545 2 16.1058 8.94769 14.3163 -7.04134
3796 2 16.1058 10.7372 16.1058 -6.96479
265 1 0 14.3163 14.3163 -8.13229
29 2 0 12.5268 16.1058 -6.97529
797 1 1.78954 14.3163 16.1058 -8.4159
3545 1 1.78954 12.5268 14.3163 -8.36685
545 3 5.36861 12.5268 14.3163 -6.6863
1045 3 3.57908 12.5268 16.1058 -6.60917
1297 2 3.57908 14.3163 14.3163 -6.88537
1797 3 5.36861 14.3163 16.1058 -6.51876
2046 3 7.15815 12.5268 16.1058 -6.59754
2296 3 7.15815 14.3163 14.3163 -6.40687
1546 3 8.94769 12.5268 14.3163 -6.45864
2796 1 8.94769 14.3163 16.1058 -8.35568
3046 3 10.7372 12.5268 16.1058 -6.42111
3296 1 10.7372 14.3163 14.3163 -8.19071
266 3 14.3163 14.3163 14.3163 -6.26306
30 3 14.3163 12.5268 16.1058 -6.43694
2546 1 12.5268 12.5268 14.3163 -8.60635
3797 3 12.5268 14.3163 16.1058 -6.27504
798 3 16.1058 14.3163 16.1058 -6.37073
3546 1 16.1058 12.5268 14.3163 -8.44164
546 3 1.78954 16.1058 14.3163 -6.44961
1046 1 0 16.1058 16.1058 -8.2937
1547 1 5.36861 16.1058 14.3163 -8.47757
2047 3 3.57908 16.1058 16.1058 -6.36215
3047 1 7.15815 16.1058 16.1058 -8.24909
31 1 10.7372 16.1058 16.1058 -8.02545
2547 2 8.94769 16.1058 14.3163 -6.88581
1047 3 14.3163 16.1058 16.1058 -6.39217
3547 1 12.5268 16.1058 14.3163 -8.36042
547 1 16.1058 16.1058 14.3163 -8.41
1298 2 0 0 17.8954 -6.93084
1548 1 1.78954 1.78954 17.8954 -8.14782
1798 1 1.78954 0 19.6849 -8.26849
2048 2 0 1.78954 19.6849 -7.01139
2297 2 0 0 21.4745 -7.03396
2548 3 1.78954 1.78954 21.4745 -6.42205
32 2 7.15815 1.78954 19.6849 -6.9876
283 2 7.15815 0 21.4745 -7.02173
2298 3 3.57908 0 17.8954 -6.32078
2549 2 5.36861 1.78954 17.8954 -6.9242
2797 1 5.36861 0 19.6849 -8.23445
3048 1 3.57908 1.78954 19.6849 -8.33946
3298 1 7.15815 0 17.8954 -8.2509
3297 2 3.57908 0 21.4745 -6.96189
3548 2 5.36861 1.78954 21.4745 -6.95226
501 3 8.94769 1.78954 21.4745 -6.33096
284 1 10.7372 0 17.8954 -8.21272
1048 3 10.7372 1.78954 19.6849 -6.2176
1299 2 10.7372 0 21.4745 -7.01289
3549 1 8.94769 1.78954 17.8954 -8.17151
3798 2 8.94769 0 19.6849 -7.00543
502 1 12.5268 1.78954 17.8954 -8.48962
799 3 12.5268 0 19.6849 -6.25916
1300 3 14.3163 0 17.8954 -6.18521
1549 1 12.5268 1.78954 21.4745 -8.36004
2049 1 14.3163 1.78954 19.6849 -8.29436
2299 3 14.3163 0 21.4745 -6.32877
1550 2 16.1058 1.78954 17.8954 -6.88575
1799 1 16.1058 0 19.6849 -8.29194
2550 3 16.1058 1.78954 21.4745 -6.1169
287 2 0 7.15815 21.4745 -6.9217
2300 1 0 3.57908 17.8954 -8.3959
2551 3 1.78954 5.36861 17.8954 -6.40592
2798 1 1.78954 3.57908 19.6849 -8.39575
3049 2 0 5.36861 19.6849 -6.91717
3302 2 0 7.15815 17.8954 -6.90667
3299 3 0 3.57908 21.4745 -6.46294
3550 3 1.78954 5.36861 21.4745 -6.37231
3800 3 1.78954 7.15815 19.6849 -6.4094
503 1 5.36861 5.36861 21.4745 -8.42225
33 2 3.57908 5.36861 19.6849 -6.88477
288 1 3.57908 7.15815 17.8954 -8.51521
286 1 7.15815 3.57908 17.8954 -8.4565
285 3 3.57908 3.57908 21.4745 -6.43403
801 3 5.36861 7.15815 19.6849 -6.28356
1049 1 7.15815 5.36861 19.6849 -8.17995
1304 3 7.15815 7.15815 17.8954 -6.6152
1303 1 3.57908 7.15815 21.4745 -8.2202
1301 1 7.15815 3.57908 21.4745 -8.32458
2303 1 7.15815 7.15815 21.4745 -8.2166
3300 2 3.57908 3.57908 17.8954 -6.93987
3551 2 5.36861 5.36861 17.8954 -6.8876
3799 3 5.36861 3.57908 19.6849 -6.38624
504 2 8.94769 5.36861 17.8954 -6.9284
800 1 8.94769 3.57908 19.6849 -8.09336
1302 1 10.7372 3.57908 17.8954 -8.37338
1551 2 8.94769 5.36861 21.4745 -6.89195
1801 2 8.94769 7.15815 19.6849 -6.98913
2050 3 10.7372 5.36861 19.6849 -6.40728
2304 2 10.7372 7.15815 17.8954 -7.01377
2301 1 10.7372 3.57908 21.4745 -8.32463
3303 3 10.7372 7.15815 21.4745 -6.43995
289 1 14.3163 7.15815 21.4745 -8.27803
1552 3 12.5268 5.36861 17.8954 -6.45226
1800 3 12.5268 3.57908 19.6849 -6.26451
2302 3 14.3163 3.57908 17.8954 -6.36688
2552 1 12.5268 5.36861 21.4745 -8.47085
2800 3 12.5268 7.15815 19.6849 -6.45596
3050 2 14.3163 5.36861 19.6849 -6.97811
3304 1 14.3163 7.15815 17.8954 -8.34076
3301 2 14.3163 3.57908 21.4745 -6.97193
2553 1 16.1058 5.36861 17.8954 -8.17352
2799 1 16.1058 3.57908 19.6849 -8.27589
3552 2 16.1058 5.36861 21.4745 -6.95109
3801 1 16.1058 7.15815 19.6849 -8.12854
505 3 1.78954 8.94769 21.4745 -6.21715
34 3 0 8.94769 19.6849 -6.49999
290 3 0 10.7372 17.8954 -6.56824
802 3 1.78954 10.7372 19.6849 -6.2713
1305 3 0 10.7372 21.4745 -6.21716
3553 1 1.78954 8.94769 17.8954 -8.51453
506 2 5.36861 8.94769 17.8954 -6.87371
1050 1 3.57908 8.94769 19.6849 -8.35111
1306 3 3.57908 10.7372 17.8954 -6.44327
1553 1 5.36861 8.94769 21.4745 -8.23901
1802 2 5.36861 10.7372 19.6849 -6.97901
2051 3 7.15815 8.94769 19.6849 -6.4861
2306 1 7.15815 10.7372 17.8954 -8.56223
2305 3 3.57908 10.7372 21.4745 -6.15482
3305 2 7.15815 10.7372 21.4745 -6.98468
291 3 10.7372 10.7372 21.4745 -6.52371
1554 2 8.94769 8.94769 17.8954 -6.99955
2554 2 8.94769 8.94769 21.4745 -6.9049
2801 1 8.94769 10.7372 19.6849 -8.54152
3051 3 10.7372 8.94769 19.6849 -6.57497
3306 3 10.7372 10.7372 17.8954 -6.53916
35 2 14.3163 8.94769 19.6849 -6.94931
292 2 14.3163 10.7372 17.8954 -6.96931
1307 2 14.3163 10.7372 21.4745 -6.96615
2555 3 12.5268 8.94769 17.8954 -6.55098
3554 1 12.5268 8.94769 21.4745 -8.68068
3802 3 12.5268 10.7372 19.6849 -6.59677
507 2 16.1058 8.94769 21.4745 -7.02383
803 3 16.1058 10.7372 19.6849 -6.56446
3555 3 16.1058 8.94769 17.8954 -6.40341
508 2 1.78954 12.5268 17.8954 -6.92603
1051 1 0 12.5268 19.6849 -8.42755
1308 3 0 14.3163 17.8954 -6.42917
1555 1 1.78954 12.5268 21.4745 -8.23258
1803 2 1.78954 14.3163 19.6849 -7.00027
2307 2 0 14.3163 21.4745 -7.0884
293 2 7.15815 14.3163 21.4745 -7.02826
1556 2 5.36861 12.5268 17.8954 -6.98627
2052 1 3.57908 12.5268 19.6849 -8.54146
2308 3 3.57908 14.3163 17.8954 -6.50948
2556 2 5.36861 12.5268 21.4745 -6.96754
2802 2 5.36861 14.3163 19.6849 -6.97613
3052 3 7.15815 12.5268 19.6849 -6.59845
3308 3 7.15815 14.3163 17.8954 -6.49407
3307 3 3.57908 14.3163 21.4745 -6.37106
36 3 10.7372 12.5268 19.6849 -6.55388
294 2 10.7372 14.3163 17.8954 -6.95503
1309 2 10.7372 14.3163 21.4745 -7.10244
2557 2 8.94769 12.5268 17.8954 -6.91409
3556 1 8.94769 12.5268 21.4745 -8.44255
3803 2 8.94769 14.3163 19.6849 -6.9898
509 2 12.5268 12.5268 21.4745 -7.05305
804 1 12.5268 14.3163 19.6849 -8.32093
1052 1 14.3163 12.5268 19.6849 -8.42571
1310 1 14.3163 14.3163 17.8954 -8.50922
2309 2 14.3163 14.3163 21.4745 -6.94048
3557 2 12.5268 12.5268 17.8954 -6.92037
510 2 16.1058 12.5268 17.8954 -6.92507
1557 3 16.1058 12.5268 21.4745 -6.55022
1804 3 16.1058 14.3163 19.6849 -6.42402
1558 2 1.78954 16.1058 17.8954 -6.97924
2053 2 0 16.1058 19.6849 -7.06197
2558 2 1.78954 16.1058 21.4745 -7.06104
37 3 7.15815 16.1058 19.6849 -6.44148
2559 3 5.36861 16.1058 17.8954 -6.34882
3053 1 3.57908 16.1058 19.6849 -8.35861
3558 1 5.36861 16.1058 21.4745 -8.33904
511 2 8.94769 16.1058 21.4745 -7.00248
1053 3 10.7372 16.1058 19.6849 -6.45331
3559 1 8.94769 16.1058 17.8954 -8.42753
512 1 12.5268 16.1058 17.8954 -8.48497
1559 2 12.5268 16.1058 21.4745 -6.93483
2054 3 14.3163 16.1058 19.6849 -6.37795
1560 2 16.1058 16.1058 17.8954 -6.88756
2560 1 16.1058 16.1058 21.4745 -8.45549
2803 1 1.78954 0 23.264 -8.44569
3054 3 0 1.78954 23.264 -6.54523
3309 1 0 0 25.0535 -8.39415
3560 3 1.78954 1.78954 25.0535 -6.43538
39 1 5.36861 1.78954 25.0535 -8.38909
38 3 3.57908 1.78954 23.264 -6.38395
295 3 7.15815 0 25.0535 -6.44455
1054 1 7.15815 1.78954 23.264 -8.1611
3805 1 3.57908 0 25.0535 -8.19435
3804 1 5.36861 0 23.264 -8.31663
513 3 8.94769 1.78954 25.0535 -6.51661
806 2 10.7372 0 25.0535 -7.04543
805 1 8.94769 0 23.264 -8.47725
2055 3 10.7372 1.78954 23.264 -6.45483
1055 1 12.5268 1.78954 25.0535 -8.47692
1311 2 14.3163 0 25.0535 -7.02056
1805 2 12.5268 0 23.264 -7.008
3055 1 14.3163 1.78954 23.264 -8.21426
1561 3 16.1058 1.78954 25.0535 -6.21921
2804 1 16.1058 0 23.264 -8.40503
40 1 0 5.36861 23.264 -8.37113
296 1 0 7.15815 25.0535 -8.11683
808 1 1.78954 7.15815 23.264 -8.19097
1806 3 0 3.57908 25.0535 -6.54292
2056 2 1.78954 5.36861 25.0535 -6.95074
3806 3 1.78954 3.57908 23.264 -6.54594
809 3 3.57908 7.15815 25.0535 -6.44436
807 3 5.36861 3.57908 23.264 -6.28362
1056 3 3.57908 5.36861 23.264 -6.3846
1312 3 7.15815 7.15815 25.0535 -6.47699
1808 2 5.36861 7.15815 23.264 -6.89195
2057 3 7.15815 5.36861 23.264 -6.25141
2310 3 3.57908 3.57908 25.0535 -6.52282
2561 1 5.36861 5.36861 25.0535 -8.71537
2805 1 7.15815 3.57908 25.0535 -8.43137
1809 1 10.7372 7.15815 25.0535 -8.36195
1807 3 8.94769 3.57908 23.264 -6.25377
2807 1 8.94769 7.15815 23.264 -8.45542
3057 1 10.7372 5.36861 23.264 -8.27331
3056 3 8.94769 5.36861 25.0535 -6.35773
3310 3 10.7372 3.57908 25.0535 -6.48864
41 3 14.3163 5.36861 23.264 -6.32604
2311 1 14.3163 7.15815 25.0535 -8.52542
2806 2 12.5268 3.57908 23.264 -6.91454
3561 2 12.5268 5.36861 25.0535 -6.94209
3809 3 12.5268 7.15815 23.264 -6.29404
3808 3 14.3163 3.57908 25.0535 -6.23122
42 3 16.1058 5.36861 25.0535 -6.15537
810 1 16.1058 7.15815 23.264 -8.24351
3807 1 16.1058 3.57908 23.264 -8.48417
514 1 1.78954 8.94769 25.0535 -8.1564
1057 1 0 8.94769 23.264 -8.14113
1810 1 1.78954 10.7372 23.264 -8.05129
2808 2 0 10.7372 25.0535 -7.08444
1058 2 5.36861 8.94769 25.0535 -6.94184
2058 1 3.57908 8.94769 23.264 -8.06382
2809 1 5.36861 10.7372 23.264 -8.21192
3058 3 7.15815 8.94769 23.264 -6.4248
3311 1 3.57908 10.7372 25.0535 -8.07141
3811 3 7.15815 10.7372 25.0535 -6.31572
43 3 10.7372 8.94769 23.264 -6.4786
297 3 10.7372 10.7372 25.0535 -6.53564
1562 2 8.94769 8.94769 25.0535 -6.87807
3810 2 8.94769 10.7372 23.264 -6.96265
812 1 14.3163 10.7372 25.0535 -8.64771
811 2 12.5268 10.7372 23.264 -7.01008
1059 3 14.3163 8.94769 23.264 -6.33447
2059 3 12.5268 8.94769 25.0535 -6.40713
1811 3 16.1058 10.7372 23.264 -6.40846
2562 3 16.1058 8.94769 25.0535 -6.22514
1313 1 0 14.3163 25.0535 -8.26367
2060 1 0 12.5268 23.264 -8.01144
2810 2 1.78954 14.3163 23.264 -7.04688
3059 2 1.78954 12.5268 25.0535 -7.01924
44 1 7.15815 12.5268 23.264 -8.00186
1812 3 3.57908 14.3163 25.0535 -6.45062
2312 1 7.15815 14.3163 25.0535 -8.13595
3060 1 3.57908 12.5268 23.264 -8.15023
3562 2 5.36861 12.5268 25.0535 -6.92864
3812 1 5.36861 14.3163 23.264 -8.14066
45 1 8.94769 12.5268 25.0535 -8.23923
813 2 8.94769 14.3163 23.264 -7.07446
1060 2 10.7372 12.5268 23.264 -7.07099
2811 2 10.7372 14.3163 25.0535 -7.02649
515 3 12.5268 12.5268 25.0535 -6.53933
1813 2 12.5268 14.3163 23.264 -7.07932
2061 1 14.3163 12.5268 23.264 -8.4388
3312 2 14.3163 14.3163 25.0535 -6.85874
1061 1 16.1058 12.5268 25.0535 -8.321
2812 3 16.1058 14.3163 23.264 -6.35508
1563 2 1.78954 16.1058 25.0535 -7.11883
3061 3 0 16.1058 23.264 -6.52598
46 2 3.57908 16.1058 23.264 -7.00622
1062 3 7.15815 16.1058 23.264 -6.26637
2062 1 5.36861 16.1058 25.0535 -8.2187
2063 1 10.7372 16.1058 23.264 -8.22733
2563 2 8.94769 16.1058 25.0535 -7.00603
3063 1 14.3163 16.1058 23.264 -8.27707
3062 1 12.5268 16.1058 25.0535 -8.19603
3563 3 16.1058 16.1058 25.0535 -6.45803
751 3 1.78954 0 30.4221 -6.22729
47 2 0 1.78954 26.8431 -6.96634
298 3 0 0 28.6326 -6.4449
548 1 1.78954 1.78954 28.6326 -8.51321
1063 3 0 1.78954 30.4221 -6.38392
3813 1 1.78954 0 26.8431 -8.24368
299 2 5.36861 0 26.8431 -6.91788
549 3 3.57908 1.78954 26.8431 -6.35611
1064 2 7.15815 1.78954 26.8431 -7.07704
1314 1 3.57908 0 28.6326 -8.21233
1564 2 5.36861 1.78954 28.6326 -6.9967
1814 1 5.36861 0 30.4221 -8.21922
2064 1 3.57908 1.78954 30.4221 -8.05335
2313 2 7.15815 0 28.6326 -7.05673
3064 3 7.15815 1.78954 30.4221 -6.48317
752 2 8.94769 0 26.8431 -7.12526
48 1 10.7372 1.78954 30.4221 -8.40948
1565 3 10.7372 1.78954 26.8431 -6.63393
2564 2 8.94769 1.78954 28.6326 -7.11214
2813 1 8.94769 0 30.4221 -8.32848
3313 3 10.7372 0 28.6326 -6.64155
300 1 14.3163 0 28.6326 -8.69514
1065 2 14.3163 1.78954 30.4221 -6.99074
1315 3 12.5268 0 26.8431 -6.58605
2065 3 14.3163 1.78954 26.8431 -6.37552
3564 3 12.5268 1.78954 28.6326 -6.53797
3814 3 12.5268 0 30.4221 -6.60278
753 3 16.1058 0 30.4221 -6.3822
550 1 16.1058 1.78954 28.6326 -8.27117
1815 3 16.1058 0 26.8431 -6.413
755 2 1.78954 7.15815 26.8431 -7.03773
1316 3 0 3.57908 28.6326 -6.61423
1566 2 1.78954 5.36861 28.6326 -7.13244
1816 3 1.78954 3.57908 30.4221 -6.48148
2066 2 0 5.36861 30.4221 -7.06718
2316 2 0 7.15815 28.6326 -7.01598