ITEM: TIMESTEP
0
ITEM: NUMBER OF ATOMS
4000
ITEM: BOX BOUNDS pp pp pp
0.0000000000000000e+00 3.5907429999999998e+01
0.0000000000000000e+00 3.5907429999999998e+01
0.0000000000000000e+00 3.5907429999999998e+01
ITEM: ATOMS id type x y z c_peratom
267 1 0 0 0 -8.26498
516 1 1.79537 1.79537 0 -8.22773
767 1 1.79537 0 1.79537 -8.22119
1016 2 0 1.79537 1.79537 -7.06536
1267 1 0 0 3.59074 -8.32084
1268 3 3.59074 0 0 -6.56422
1270 1 0 3.59074 0 -8.26204
1517 3 1.79537 1.79537 3.59074 -6.49393
1768 1 1.79537 3.59074 1.79537 -8.45451
2017 3 3.59074 1.79537 1.79537 -6.44852
2266 1 3.59074 0 3.59074 -8.30602
2268 2 0 3.59074 3.59074 -7.10822
2269 3 3.59074 3.59074 0 -6.38777
3268 2 3.59074 3.59074 3.59074 -6.97734
1518 3 5.38611 1.79537 0 -6.567
1767 3 5.38611 0 1.79537 -6.51936
2517 3 5.38611 1.79537 3.59074 -6.51684
2767 2 5.38611 3.59074 1.79537 -6.99566
1 1 10.7722 1.79537 1.79537 -8.26167
268 3 10.7722 0 3.59074 -6.41987
270 2 7.18149 3.59074 3.59074 -6.97365
271 3 10.7722 3.59074 0 -6.36402
1271 2 10.7722 3.59074 3.59074 -6.96739
2267 2 7.18149 0 0 -7.02664
2518 1 8.97686 1.79537 0 -8.14025
2766 2 8.97686 0 1.79537 -6.94985
3017 3 7.18149 1.79537 1.79537 -6.53061
3266 1 7.18149 0 3.59074 -8.29508
3269 2 7.18149 3.59074 0 -6.92586
3267 2 10.7722 0 0 -6.96632
3517 1 8.97686 1.79537 3.59074 -8.35321
3768 3 8.97686 3.59074 1.79537 -6.43822
517 1 12.5676 1.79537 3.59074 -8.32397
769 3 12.5676 3.59074 1.79537 -6.37991
3518 3 12.5676 1.79537 0 -6.357
3767 1 12.5676 0 1.79537 -8.32553
269 2 14.363 0 0 -7.01973
376 3 17.9537 0 0 -6.61311
518 3 16.1583 1.79537 0 -6.57675
768 2 16.1583 0 1.79537 -6.95348
1017 1 14.363 1.79537 1.79537 -8.32192
1126 3 17.9537 1.79537 1.79537 -6.62926
1379 2 17.9537 3.59074 0 -7.06628
1376 2 17.9537 0 3.59074 -6.99544
1269 3 14.363 0 3.59074 -6.28535
1272 3 14.363 3.59074 0 -6.53972
1519 1 16.1583 1.79537 3.59074 -8.46878
1769 3 16.1583 3.59074 1.79537 -6.51854
2270 1 14.363 3.59074 3.59074 -8.29608
2393 2 17.9537 3.59074 3.59074 -7.03201
1520 3 1.79537 5.38611 0 -6.45593
2018 2 0 5.38611 1.79537 -7.08816
2519 3 1.79537 5.38611 3.59074 -6.692
3018 2 3.59074 5.38611 1.79537 -6.97355
2520 1 5.38611 5.38611 0 -8.25963
3519 3 5.38611 5.38611 3.59074 -6.53996
2 1 7.18149 5.38611 1.79537 -8.40336
519 3 8.97686 5.38611 3.59074 -6.49313
1018 3 10.7722 5.38611 1.79537 -6.59426
3520 3 8.97686 5.38611 0 -6.37159
520 2 12.5676 5.38611 0 -6.96616
1521 2 12.5676 5.38611 3.59074 -6.94355
1522 3 16.1583 5.38611 0 -6.59906
2002 2 17.9537 5.38611 1.79537 -7.13591
2019 1 14.363 5.38611 1.79537 -8.28591
2521 2 16.1583 5.38611 3.59074 -7.00499
3 2 3.59074 8.97686 1.79537 -7.06561
272 1 3.59074 7.18149 3.59074 -8.32529
274 3 0 10.7722 3.59074 -6.45358
275 2 3.59074 10.7722 0 -7.08414
1275 1 3.59074 10.7722 3.59074 -8.25461
2271 3 0 7.18149 0 -6.52764
2522 3 1.79537 8.97686 0 -6.66066
2768 2 1.79537 7.18149 1.79537 -7.07977
3019 2 0 8.97686 1.79537 -7.05463
3273 2 0 10.7722 0 -7.00141
3271 3 3.59074 7.18149 0 -6.56288
3270 2 0 7.18149 3.59074 -7.10483
3521 1 1.79537 8.97686 3.59074 -8.25461
3770 3 1.79537 10.7722 1.79537 -6.53254
521 1 5.38611 8.97686 3.59074 -8.07545
771 1 5.38611 10.7722 1.79537 -8.45454
3522 3 5.38611 8.97686 0 -6.66022
3769 2 5.38611 7.18149 1.79537 -6.91226
273 2 7.18149 7.18149 0 -6.92337
522 1 8.97686 8.97686 0 -8.43045
770 1 8.97686 7.18149 1.79537 -8.53702
1019 3 7.18149 8.97686 1.79537 -6.38446
1276 2 7.18149 10.7722 0 -6.98679
1274 3 10.7722 7.18149 0 -6.51769
1273 3 7.18149 7.18149 3.59074 -6.32093
1523 3 8.97686 8.97686 3.59074 -6.41897
1771 3 8.97686 10.7722 1.79537 -6.47195
2020 3 10.7722 8.97686 1.79537 -6.58504
2272 3 10.7722 7.18149 3.59074 -6.5275
2275 3 10.7722 10.7722 0 -6.58004
2274 3 7.18149 10.7722 3.59074 -6.35016
3274 2 10.7722 10.7722 3.59074 -6.97549
1524 2 12.5676 8.97686 0 -7.11793
1770 2 12.5676 7.18149 1.79537 -7.05787
2523 2 12.5676 8.97686 3.59074 -6.992
2770 3 12.5676 10.7722 1.79537 -6.54476
383 3 17.9537 10.7722 3.59074 -6.42453
276 2 14.363 10.7722 3.59074 -6.96731
2273 1 14.363 7.18149 0 -8.36176
2396 2 17.9537 7.18149 0 -7.03529
2524 2 16.1583 8.97686 0 -7.05977
2769 2 16.1583 7.18149 1.79537 -7.06568
3144 3 17.9537 8.97686 1.79537 -6.52102
3020 1 14.363 8.97686 1.79537 -8.31396
3398 3 17.9537 10.7722 0 -6.47262
3395 1 17.9537 7.18149 3.59074 -8.39836
3275 2 14.363 10.7722 0 -7.10296
3272 1 14.363 7.18149 3.59074 -8.18056
3523 2 16.1583 8.97686 3.59074 -7.02468
3771 3 16.1583 10.7722 1.79537 -6.53324
4 2 0 12.5676 1.79537 -7.0021
523 3 1.79537 12.5676 3.59074 -6.42915
1020 2 3.59074 12.5676 1.79537 -6.94675
3524 1 1.79537 12.5676 0 -8.40481
524 3 5.38611 12.5676 0 -6.58986
1525 3 5.38611 12.5676 3.59074 -6.37927
1526 3 8.97686 12.5676 0 -6.55209
2021 2 7.18149 12.5676 1.79537 -6.95537
2525 1 8.97686 12.5676 3.59074 -8.21216
3021 1 10.7722 12.5676 1.79537 -8.31118
2526 2 12.5676 12.5676 0 -6.97698
3525 1 12.5676 12.5676 3.59074 -8.31507
5 2 14.363 12.5676 1.79537 -6.97896
129 1 17.9537 12.5676 1.79537 -8.44219
525 1 16.1583 12.5676 3.59074 -8.5937
3526 2 16.1583 12.5676 0 -6.99435
314 3 3.59074 17.9537 3.59074 -6.24255
277 1 0 14.363 0 -8.34528
526 1 1.79537 16.1583 0 -8.22
772 3 1.79537 14.363 1.79537 -6.2912
1021 3 0 16.1583 1.79537 -6.32727
1278 3 3.59074 14.363 0 -6.3617
1277 3 0 14.363 3.59074 -6.42668
1527 1 1.79537 16.1583 3.59074 -8.38101
2022 1 3.59074 16.1583 1.79537 -8.06525
2328 1 0 17.9537 0 -7.963
2276 1 3.59074 14.363 3.59074 -8.13472
2828 1 1.79537 17.9537 1.79537 -8.04413
3329 2 3.59074 17.9537 0 -6.93425
3328 2 0 17.9537 3.59074 -6.93397
1528 1 5.38611 16.1583 0 -8.11826
1772 1 5.38611 14.363 1.79537 -8.25608
2527 1 5.38611 16.1583 3.59074 -8.1319
3829 3 5.38611 17.9537 1.79537 -6.41712
6 1 10.7722 16.1583 1.79537 -8.12137
315 2 7.18149 17.9537 0 -7.05164
278 1 10.7722 14.363 3.59074 -8.02807
814 2 8.97686 17.9537 1.79537 -7.05716
1331 2 10.7722 17.9537 0 -7.1326
1330 3 7.18149 17.9537 3.59074 -6.40264
2329 2 10.7722 17.9537 3.59074 -7.02407
2277 2 7.18149 14.363 0 -7.09189
2528 2 8.97686 16.1583 0 -7.05756
2771 2 8.97686 14.363 1.79537 -7.0248
3022 1 7.18149 16.1583 1.79537 -8.23073
3277 3 10.7722 14.363 0 -6.38282
3276 3 7.18149 14.363 3.59074 -6.34215
3527 1 8.97686 16.1583 3.59074 -8.15977
527 3 12.5676 16.1583 3.59074 -6.24166
1830 1 12.5676 17.9537 1.79537 -8.19398
3528 2 12.5676 16.1583 0 -6.92655
3772 1 12.5676 14.363 1.79537 -8.29345
386 3 17.9537 14.363 0 -6.51878
279 3 14.363 14.363 0 -6.43954
528 2 16.1583 16.1583 0 -6.8607
773 3 16.1583 14.363 1.79537 -6.4556
1131 1 17.9537 16.1583 1.79537 -8.53813
1022 3 14.363 16.1583 1.79537 -6.34883
1386 3 17.9537 14.363 3.59074 -6.41997
1279 2 14.363 14.363 3.59074 -6.9273
1529 1 16.1583 16.1583 3.59074 -8.2147
2438 3 17.9537 17.9537 0 -6.54747
2330 3 14.363 17.9537 0 -6.27655
2829 1 16.1583 17.9537 1.79537 -8.21455
3453 2 17.9537 17.9537 3.59074 -7.00141
3330 1 14.363 17.9537 3.59074 -8.10421
775 3 0 3.59074 7.18149 -6.50051
1280 1 3.59074 3.59074 7.18149 -8.37855
1773 2 1.79537 0 5.38611 -7.00944
2023 2 0 1.79537 5.38611 -7.08873
2278 2 0 0 7.18149 -7.00312
2529 2 1.79537 1.79537 7.18149 -7.06915
2774 2 1.79537 3.59074 5.38611 -7.0625
2773 1 3.59074 0 7.18149 -8.34366
3023 3 3.59074 1.79537 5.38611 -6.4326
2772 1 5.38611 0 5.38611 -8.18619
3024 3 5.38611 1.79537 7.18149 -6.50274
3775 3 5.38611 3.59074 5.38611 -6.54628
7 2 7.18149 1.79537 5.38611 -7.01072
776 2 8.97686 3.59074 5.38611 -7.02688
1023 2 10.7722 1.79537 5.38611 -6.97707
1775 3 7.18149 3.59074 7.18149 -6.5751
2279 1 10.7722 3.59074 7.18149 -8.20055
3278 2 7.18149 0 7.18149 -6.98738
3529 3 8.97686 1.79537 7.18149 -6.53817
3774 1 10.7722 0 7.18149 -8.48928
3773 3 8.97686 0 5.38611 -6.52736
8 2 12.5676 1.79537 7.18149 -6.96898
774 3 12.5676 0 5.38611 -6.41688
1776 2 12.5676 3.59074 5.38611 -7.02428
280 3 14.363 0 7.18149 -6.46393
529 3 16.1583 1.79537 7.18149 -6.49716
884 1 17.9537 3.59074 7.18149 -8.47722
1774 3 16.1583 0 5.38611 -6.3885
2024 3 14.363 1.79537 5.38611 -6.47373
2007 2 17.9537 1.79537 5.38611 -6.92757
2403 3 17.9537 0 7.18149 -6.40002
2776 2 14.363 3.59074 7.18149 -6.98567
2775 3 16.1583 3.59074 5.38611 -6.49278
9 3 3.59074 5.38611 5.38611 -6.37852
1024 3 1.79537 5.38611 7.18149 -6.40389
3025 2 0 5.38611 5.38611 -7.1346
1530 1 5.38611 5.38611 7.18149 -8.27428
1025 3 7.18149 5.38611 5.38611 -6.54026
2026 1 10.7722 5.38611 5.38611 -8.31809
2025 2 8.97686 5.38611 7.18149 -6.96077
2530 1 12.5676 5.38611 7.18149 -8.23275
3150 3 17.9537 5.38611 5.38611 -6.54513
3027 2 16.1583 5.38611 7.18149 -6.98434
3026 3 14.363 5.38611 5.38611 -6.45334
10 3 0 8.97686 5.38611 -6.29301
779 1 1.79537 10.7722 5.38611 -8.26085
1026 2 3.59074 8.97686 5.38611 -6.98866
1778 3 0 10.7722 7.18149 -6.28901
2280 1 3.59074 10.7722 7.18149 -8.23458
3279 3 0 7.18149 7.18149 -6.36497
3530 1 1.79537 8.97686 7.18149 -8.1419
3777 1 3.59074 7.18149 7.18149 -8.22801
3776 3 1.79537 7.18149 5.38611 -6.41082
11 3 5.38611 8.97686 7.18149 -6.2972
777 1 5.38611 7.18149 5.38611 -8.17397
1779 2 5.38611 10.7722 5.38611 -6.90829
281 2 7.18149 7.18149 7.18149 -6.91768
530 3 8.97686 8.97686 7.18149 -6.44171
778 1 10.7722 7.18149 7.18149 -8.35782
1777 3 8.97686 7.18149 5.38611 -6.44483
2027 1 7.18149 8.97686 5.38611 -8.36457
2779 2 7.18149 10.7722 7.18149 -6.97069
2778 1 8.97686 10.7722 5.38611 -8.25604
3028 3 10.7722 8.97686 5.38611 -6.51957
3280 2 10.7722 10.7722 7.18149 -6.99264
1027 3 12.5676 8.97686 7.18149 -6.41832
2777 3 12.5676 7.18149 5.38611 -6.36106
3779 3 12.5676 10.7722 5.38611 -6.50236
12 1 14.363 8.97686 5.38611 -8.43067
135 2 17.9537 8.97686 5.38611 -6.96509
780 3 16.1583 10.7722 5.38611 -6.5588
1281 3 14.363 7.18149 7.18149 -6.43259
1531 2 16.1583 8.97686 7.18149 -6.97758
1887 1 17.9537 10.7722 7.18149 -8.50597
3404 2 17.9537 7.18149 7.18149 -6.9698
3780 3 14.363 10.7722 7.18149 -6.65724
3778 1 16.1583 7.18149 5.38611 -8.23767
1028 2 0 12.5676 5.38611 -6.90378
2029 3 3.59074 12.5676 5.38611 -6.19158
2028 2 1.79537 12.5676 7.18149 -6.99943
2531 3 5.38611 12.5676 7.18149 -6.41365
13 1 10.7722 12.5676 5.38611 -8.00046
3030 1 8.97686 12.5676 7.18149 -8.07687
3029 2 7.18149 12.5676 5.38611 -6.99334
3531 2 12.5676 12.5676 7.18149 -7.09492
14 2 16.1583 12.5676 7.18149 -7.07242
1138 2 17.9537 12.5676 5.38611 -7.0193
1029 3 14.363 12.5676 5.38611 -6.62032
326 3 0 17.9537 7.18149 -6.29009
282 3 0 14.363 7.18149 -6.38813
531 2 1.79537 16.1583 7.18149 -6.90099
821 1 3.59074 17.9537 7.18149 -8.43449
781 1 3.59074 14.363 7.18149 -8.43016
1780 1 1.79537 14.363 5.38611 -8.38544
2030 3 0 16.1583 5.38611 -6.3715
3031 3 3.59074 16.1583 5.38611 -6.24371
3835 3 1.79537 17.9537 5.38611 -6.29435
820 1 5.38611 17.9537 5.38611 -8.23481
1030 2 5.38611 16.1583 7.18149 -7.0359
2780 1 5.38611 14.363 5.38611 -8.33137
15 2 7.18149 16.1583 5.38611 -7.02512
1031 3 10.7722 16.1583 5.38611 -6.4283
1342 2 7.18149 17.9537 7.18149 -7.04613
1282 2 7.18149 14.363 7.18149 -7.09582
1532 2 8.97686 16.1583 7.18149 -7.06564
1837 3 10.7722 17.9537 7.18149 -6.54938
1836 1 8.97686 17.9537 5.38611 -8.37762
1781 1 10.7722 14.363 7.18149 -8.21901
3781 2 8.97686 14.363 5.38611 -7.0555
782 2 12.5676 14.363 5.38611 -7.01502
2031 2 12.5676 16.1583 7.18149 -7.03607
2835 1 12.5676 17.9537 5.38611 -8.41351
451 2 17.9537 17.9537 7.18149 -6.97031
391 2 17.9537 14.363 7.18149 -7.06841
1782 3 16.1583 14.363 5.38611 -6.57086
2032 1 14.363 16.1583 5.38611 -8.17048
2014 2 17.9537 16.1583 5.38611 -6.96126
2341 1 14.363 17.9537 7.18149 -8.35373
2281 2 14.363 14.363 7.18149 -7.1343
2532 3 16.1583 16.1583 7.18149 -6.60248
3836 1 16.1583 17.9537 5.38611 -8.16699
251 1 3.59074 0 10.7722 -8.07761
253 2 0 3.59074 10.7722 -7.10076
16 2 0 1.79537 12.5676 -7.16244
785 2 1.79537 3.59074 12.5676 -7.11176
1032 2 3.59074 1.79537 12.5676 -7.07269
1285 2 3.59074 3.59074 10.7722 -7.06027
1284 1 1.79537 3.59074 8.97686 -8.05775
2781 1 1.79537 0 8.97686 -8.14488
3032 1 0 1.79537 8.97686 -8.1921
3281 2 0 0 10.7722 -7.06692
3533 2 3.59074 1.79537 8.97686 -7.03924
3532 1 1.79537 1.79537 10.7722 -8.13668
3782 2 1.79537 0 12.5676 -7.06728
532 1 5.38611 1.79537 10.7722 -8.26514
783 2 5.38611 0 12.5676 -6.98347
1785 3 5.38611 3.59074 12.5676 -6.49136
1784 2 5.38611 3.59074 8.97686 -6.98486
3282 3 5.38611 0 8.97686 -6.44746
17 3 7.18149 1.79537 8.97686 -6.43886
533 2 10.7722 1.79537 8.97686 -6.94525
1283 2 7.18149 0 10.7722 -6.91387
1533 1 8.97686 1.79537 10.7722 -8.19854
1783 1 8.97686 0 12.5676 -8.14985
2033 1 7.18149 1.79537 12.5676 -8.19697
2284 1 7.18149 3.59074 10.7722 -8.10718
2283 1 8.97686 3.59074 8.97686 -8.36506
2282 3 10.7722 0 10.7722 -6.16447
2783 1 8.97686 3.59074 12.5676 -8.16775
3033 1 10.7722 1.79537 12.5676 -8.01156
3284 3 10.7722 3.59074 10.7722 -6.21334
3783 3 8.97686 0 8.97686 -6.41464
252 1 12.5676 0 8.97686 -8.24744
2533 1 12.5676 1.79537 10.7722 -8.12663
2784 1 12.5676 3.59074 8.97686 -8.33982
2782 3 12.5676 0 12.5676 -6.2387
3785 1 12.5676 3.59074 12.5676 -8.21014
254 2 14.363 3.59074 10.7722 -7.05591
394 3 17.9537 3.59074 10.7722 -6.34827
141 2 17.9537 1.79537 12.5676 -7.07793
18 2 14.363 1.79537 12.5676 -7.07532
786 2 16.1583 3.59074 12.5676 -7.02506
784 2 16.1583 0 8.97686 -6.95149
1033 3 14.363 1.79537 8.97686 -6.35509
3157 1 17.9537 1.79537 8.97686 -8.35249
3406 1 17.9537 0 10.7722 -8.18683
3285 1 16.1583 3.59074 8.97686 -8.22379
3283 1 14.363 0 10.7722 -8.10467
3534 1 16.1583 1.79537 10.7722 -8.13977
3784 1 16.1583 0 12.5676 -8.03691
534 2 1.79537 5.38611 10.7722 -7.04499
1034 1 0 5.38611 12.5676 -8.36827
1534 1 0 5.38611 8.97686 -8.37391
2035 3 3.59074 5.38611 12.5676 -6.65778
2034 1 3.59074 5.38611 8.97686 -8.24686
1535 2 5.38611 5.38611 10.7722 -6.95931
19 3 10.7722 5.38611 12.5676 -6.30285
2535 3 8.97686 5.38611 10.7722 -6.33624
2534 2 7.18149 5.38611 8.97686 -6.97373
3035 3 10.7722 5.38611 8.97686 -6.31128
3034 1 7.18149 5.38611 12.5676 -8.4195
3535 3 12.5676 5.38611 10.7722 -6.35397
535 2 16.1583 5.38611 10.7722 -6.96839
1144 1 17.9537 5.38611 12.5676 -8.36603
1035 1 14.363 5.38611 12.5676 -8.21325
1643 1 17.9537 5.38611 8.97686 -8.31698
3536 2 14.363 5.38611 8.97686 -7.01268
20 1 0 8.97686 8.97686 -8.04518
536 1 3.59074 8.97686 8.97686 -8.14874
1286 1 0 7.18149 10.7722 -8.18342
1536 3 1.79537 8.97686 10.7722 -6.3175
1786 1 1.79537 7.18149 12.5676 -8.39471
2036 2 0 8.97686 12.5676 -6.90923
2287 1 0 10.7722 10.7722 -8.13001
2286 1 1.79537 10.7722 8.97686 -8.07575
2285 2 3.59074 7.18149 10.7722 -6.95374
2786 2 1.79537 10.7722 12.5676 -7.03513
3036 2 3.59074 8.97686 12.5676 -7.02421
3287 2 3.59074 10.7722 10.7722 -7.04273
3786 3 1.79537 7.18149 8.97686 -6.19488
255 3 5.38611 7.18149 8.97686 -6.3503
2536 1 5.38611 8.97686 10.7722 -8.20216
2787 1 5.38611 10.7722 8.97686 -8.13028
2785 3 5.38611 7.18149 12.5676 -6.54813
3788 1 5.38611 10.7722 12.5676 -8.33568
256 3 10.7722 7.18149 10.7722 -6.40781
257 3 7.18149 10.7722 10.7722 -6.46491
21 2 7.18149 8.97686 12.5676 -6.92188
789 3 8.97686 10.7722 12.5676 -6.52851
787 3 8.97686 7.18149 8.97686 -6.44296
1037 1 10.7722 8.97686 12.5676 -8.30124
1036 3 7.18149 8.97686 8.97686 -6.48924
1289 3 10.7722 10.7722 10.7722 -6.58787
1537 1 10.7722 8.97686 8.97686 -8.35269
3288 2 8.97686 10.7722 8.97686 -6.99142
3286 1 7.18149 7.18149 10.7722 -8.44156
3537 2 8.97686 8.97686 10.7722 -6.90421
3787 3 8.97686 7.18149 12.5676 -6.31695
537 1 12.5676 8.97686 10.7722 -8.26126
788 2 12.5676 7.18149 12.5676 -6.96365
1287 1 12.5676 7.18149 8.97686 -8.31186
1789 2 12.5676 10.7722 12.5676 -6.99626
3789 2 12.5676 10.7722 8.97686 -7.03394
258 3 16.1583 10.7722 8.97686 -6.60746
145 3 17.9537 8.97686 8.97686 -6.55741
1395 3 17.9537 7.18149 10.7722 -6.49688
1288 2 14.363 7.18149 10.7722 -7.02589
1538 2 16.1583 8.97686 10.7722 -6.93488
1788 1 16.1583 7.18149 12.5676 -8.1293
1787 3 16.1583 7.18149 8.97686 -6.6398
2145 2 17.9537 8.97686 12.5676 -6.96343
2038 1 14.363 8.97686 12.5676 -8.1776
2037 3 14.363 8.97686 8.97686 -6.57575
2256 1 17.9537 10.7722 10.7722 -8.45485
2288 3 14.363 10.7722 10.7722 -6.57116
2788 3 16.1583 10.7722 12.5676 -6.45747
22 3 3.59074 12.5676 12.5676 -6.4544
2538 1 1.79537 12.5676 10.7722 -8.163
2537 2 0 12.5676 8.97686 -6.91673
3038 2 3.59074 12.5676 8.97686 -7.03811
3037 1 0 12.5676 12.5676 -8.13634
3538 1 5.38611 12.5676 10.7722 -8.20314
23 2 10.7722 12.5676 8.97686 -7.10755
538 3 8.97686 12.5676 10.7722 -6.72214
1038 2 7.18149 12.5676 12.5676 -7.05871
2039 2 10.7722 12.5676 12.5676 -7.03791
3539 1 7.18149 12.5676 8.97686 -8.30586
1539 2 12.5676 12.5676 10.7722 -7.0693
539 3 14.363 12.5676 8.97686 -6.77483
2662 2 17.9537 12.5676 8.97686 -6.95784
2539 3 16.1583 12.5676 10.7722 -6.53041
3162 1 17.9537 12.5676 12.5676 -8.34909
3039 3 14.363 12.5676 12.5676 -6.53003
259 2 3.59074 14.363 10.7722 -7.08186
24 3 0 16.1583 12.5676 -6.6118
829 3 1.79537 17.9537 8.97686 -6.4422
790 2 1.79537 14.363 8.97686 -6.96395
1040 2 3.59074 16.1583 12.5676 -7.07636
1039 1 0 16.1583 8.97686 -8.48175
1251 2 0 17.9537 10.7722 -7.00459
1540 3 3.59074 16.1583 8.97686 -6.5994
1845 3 1.79537 17.9537 12.5676 -6.64255
2344 2 3.59074 17.9537 10.7722 -7.02699
3289 3 0 14.363 10.7722 -6.3134
3540 3 1.79537 16.1583 10.7722 -6.60172
3790 1 1.79537 14.363 12.5676 -8.32719
540 2 5.38611 16.1583 10.7722 -7.14125
791 2 5.38611 14.363 12.5676 -7.10227
1252 3 5.38611 17.9537 8.97686 -6.70527
1290 3 5.38611 14.363 8.97686 -6.62738
2844 1 5.38611 17.9537 12.5676 -8.25875
330 2 10.7722 17.9537 10.7722 -7.03684
1291 2 7.18149 14.363 10.7722 -7.17138
1541 3 8.97686 16.1583 10.7722 -6.70787
1846 3 8.97686 17.9537 8.97686 -6.69171
1791 2 8.97686 14.363 12.5676 -7.14619
1790 2 8.97686 14.363 8.97686 -7.12629
2041 2 7.18149 16.1583 12.5676 -7.1804
2040 2 7.18149 16.1583 8.97686 -7.16797
2290 2 10.7722 14.363 10.7722 -7.12529
2540 1 10.7722 16.1583 8.97686 -8.32441
3040 1 10.7722 16.1583 12.5676 -8.39409
3344 3 7.18149 17.9537 10.7722 -6.73778
3845 2 8.97686 17.9537 12.5676 -7.15114
830 3 12.5676 17.9537 12.5676 -6.6109
2345 2 12.5676 17.9537 8.97686 -7.01584
2289 2 12.5676 14.363 8.97686 -7.14345
2541 1 12.5676 16.1583 10.7722 -8.30975
2789 1 12.5676 14.363 12.5676 -8.32968
149 2 17.9537 16.1583 12.5676 -6.97913
25 2 14.363 16.1583 12.5676 -6.98868
1149 3 17.9537 16.1583 8.97686 -6.4607
1253 3 14.363 17.9537 10.7722 -6.60213
1454 1 17.9537 17.9537 10.7722 -8.22861
1847 3 16.1583 17.9537 12.5676 -6.61168
2845 2 16.1583 17.9537 8.97686 -6.95091
2790 2 16.1583 14.363 8.97686 -7.12384
3041 2 14.363 16.1583 8.97686 -7.10565
3414 3 17.9537 14.363 10.7722 -6.44334
3290 3 14.363 14.363 10.7722 -6.61589
3541 2 16.1583 16.1583 10.7722 -7.03393
3791 1 16.1583 14.363 12.5676 -8.50958
260 2 0 0 14.363 -7.1168
541 3 1.79537 1.79537 14.363 -6.67599
792 1 1.79537 0 16.1583 -8.40965
1041 2 0 1.79537 16.1583 -6.95921
1298 3 0 0 17.9537 -6.45214
1293 2 0 3.59074 14.363 -7.06017
1292 3 3.59074 0 14.363 -6.43099
1548 3 1.79537 1.79537 17.9537 -6.53193
1793 3 1.79537 3.59074 16.1583 -6.54254
2042 3 3.59074 1.79537 16.1583 -6.47361
2300 3 0 3.59074 17.9537 -6.5632
2298 3 3.59074 0 17.9537 -6.39989
2292 2 3.59074 3.59074 14.363 -6.99698
3300 1 3.59074 3.59074 17.9537 -8.23142
1542 3 5.38611 1.79537 14.363 -6.44831
1792 3 5.38611 0 16.1583 -6.40337
2549 2 5.38611 1.79537 17.9537 -7.00232
2792 1 5.38611 3.59074 16.1583 -8.12522
262 1 10.7722 3.59074 14.363 -8.16258
286 1 7.18149 3.59074 17.9537 -7.89701
284 3 10.7722 0 17.9537 -6.31135
26 2 10.7722 1.79537 16.1583 -6.93171
1302 1 10.7722 3.59074 17.9537 -8.06618
2291 2 7.18149 0 14.363 -6.98588
2542 2 8.97686 1.79537 14.363 -7.0658
2791 1 8.97686 0 16.1583 -8.1875
3042 1 7.18149 1.79537 16.1583 -8.21838
3298 2 7.18149 0 17.9537 -6.9668
3292 3 7.18149 3.59074 14.363 -6.1637
3291 1 10.7722 0 14.363 -8.15972
3549 2 8.97686 1.79537 17.9537 -7.04577
3793 1 8.97686 3.59074 16.1583 -7.99696
502 3 12.5676 1.79537 17.9537 -6.36735
794 3 12.5676 3.59074 16.1583 -6.40227
3542 2 12.5676 1.79537 14.363 -7.06771
3792 3 12.5676 0 16.1583 -6.42318
261 2 14.363 0 14.363 -7.04571
401 1 17.9537 0 14.363 -8.26299
542 2 16.1583 1.79537 14.363 -7.08674
793 2 16.1583 0 16.1583 -7.06274
1151 3 17.9537 1.79537 16.1583 -6.62185
1042 2 14.363 1.79537 16.1583 -7.06027
1407 3 17.9537 0 17.9537 -6.66258
1402 2 17.9537 3.59074 14.363 -7.06511
1300 3 14.363 0 17.9537 -6.43247
1294 2 14.363 3.59074 14.363 -7.05995
1550 3 16.1583 1.79537 17.9537 -6.52413
1794 1 16.1583 3.59074 16.1583 -8.20927
2410 2 17.9537 3.59074 17.9537 -6.96427
2302 1 14.363 3.59074 17.9537 -8.17761
1543 3 1.79537 5.38611 14.363 -6.52146
2043 3 0 5.38611 16.1583 -6.57567
2551 1 1.79537 5.38611 17.9537 -8.38072
3043 1 3.59074 5.38611 16.1583 -8.21014
2543 2 5.38611 5.38611 14.363 -6.94181
3551 1 5.38611 5.38611 17.9537 -8.05279
27 1 7.18149 5.38611 16.1583 -8.20236
504 1 8.97686 5.38611 17.9537 -8.12832
1043 1 10.7722 5.38611 16.1583 -8.12398
3543 3 8.97686 5.38611 14.363 -6.16001
543 3 12.5676 5.38611 14.363 -6.23635
1552 2 12.5676 5.38611 17.9537 -7.04768
1544 1 16.1583 5.38611 14.363 -7.98867
2152 1 17.9537 5.38611 16.1583 -8.21499
2044 2 14.363 5.38611 16.1583 -7.02308
2553 1 16.1583 5.38611 17.9537 -8.03898
264 2 3.59074 10.7722 14.363 -7.04182
290 2 0 10.7722 17.9537 -7.03595
288 2 3.59074 7.18149 17.9537 -7.00943
28 1 3.59074 8.97686 16.1583 -8.2303
1306 1 3.59074 10.7722 17.9537 -8.03535
2293 2 0 7.18149 14.363 -6.89269
2544 3 1.79537 8.97686 14.363 -6.46003
2793 3 1.79537 7.18149 16.1583 -6.35857
3044 1 0 8.97686 16.1583 -8.21734
3302 3 0 7.18149 17.9537 -6.37485
3294 1 0 10.7722 14.363 -8.26194
3293 3 3.59074 7.18149 14.363 -6.40755
3553 1 1.79537 8.97686 17.9537 -8.10315
3795 2 1.79537 10.7722 16.1583 -7.00726
506 2 5.38611 8.97686 17.9537 -7.04493
796 1 5.38611 10.7722 16.1583 -8.19767
3544 2 5.38611 8.97686 14.363 -7.01456
3794 1 5.38611 7.18149 16.1583 -8.05926
263 3 7.18149 7.18149 14.363 -6.29875
544 1 8.97686 8.97686 14.363 -8.23196
795 3 8.97686 7.18149 16.1583 -6.29299
1044 1 7.18149 8.97686 16.1583 -8.24877
1304 2 7.18149 7.18149 17.9537 -7.03255
1296 2 7.18149 10.7722 14.363 -7.04816
1295 1 10.7722 7.18149 14.363 -8.22852
1554 3 8.97686 8.97686 17.9537 -6.52056
1796 1 8.97686 10.7722 16.1583 -8.20051
2045 2 10.7722 8.97686 16.1583 -7.02136
2306 3 7.18149 10.7722 17.9537 -6.25621
2304 2 10.7722 7.18149 17.9537 -7.03391
2295 2 10.7722 10.7722 14.363 -7.05073
3306 2 10.7722 10.7722 17.9537 -7.06981
1545 1 12.5676 8.97686 14.363 -8.08888
1795 1 12.5676 7.18149 16.1583 -8.06728
2555 2 12.5676 8.97686 17.9537 -7.10558
2795 2 12.5676 10.7722 16.1583 -7.05601
415 1 17.9537 10.7722 17.9537 -8.1912
292 1 14.363 10.7722 17.9537 -8.3075
2262 3 17.9537 7.18149 14.363 -6.47093
2294 1 14.363 7.18149 14.363 -7.95601
2545 1 16.1583 8.97686 14.363 -8.3259
2794 2 16.1583 7.18149 16.1583 -7.04826
3169 2 17.9537 8.97686 16.1583 -7.07375
3045 2 14.363 8.97686 16.1583 -7.09906
3427 1 17.9537 7.18149 17.9537 -8.23552
3419 2 17.9537 10.7722 14.363 -7.02422
3304 1 14.363 7.18149 17.9537 -8.09326
3295 3 14.363 10.7722 14.363 -6.46074
3555 1 16.1583 8.97686 17.9537 -8.09776
3796 2 16.1583 10.7722 16.1583 -7.0851
29 3 0 12.5676 16.1583 -6.5244
508 2 1.79537 12.5676 17.9537 -7.04962
1045 2 3.59074 12.5676 16.1583 -7.06903
3545 1 1.79537 12.5676 14.363 -8.26543
545 3 5.38611 12.5676 14.363 -6.65448
1556 1 5.38611 12.5676 17.9537 -8.27607
1546 1 8.97686 12.5676 14.363 -8.33119
2046 3 7.18149 12.5676 16.1583 -6.49295
2557 2 8.97686 12.5676 17.9537 -6.96357
3046 1 10.7722 12.5676 16.1583 -8.22975
2546 1 12.5676 12.5676 14.363 -8.24937
3557 3 12.5676 12.5676 17.9537 -6.50804
154 3 17.9537 12.5676 16.1583 -6.57355
30 2 14.363 12.5676 16.1583 -7.04013
510 2 16.1583 12.5676 17.9537 -7.06833
3546 3 16.1583 12.5676 14.363 -6.61185
265 2 0 14.363 14.363 -7.04869
346 3 3.59074 17.9537 17.9537 -6.64227
546 2 1.79537 16.1583 14.363 -7.04101
797 3 1.79537 14.363 16.1583 -6.66854
1046 2 0 16.1583 16.1583 -7.09131
1308 2 0 14.363 17.9537 -7.10746
1297 2 3.59074 14.363 14.363 -7.06552
1558 3 1.79537 16.1583 17.9537 -6.63363
2047 1 3.59074 16.1583 16.1583 -8.3675
2353 3 0 17.9537 14.363 -6.71826
2308 2 3.59074 14.363 17.9537 -7.04206
2853 2 1.79537 17.9537 16.1583 -7.0113
3359 1 0 17.9537 17.9537 -8.36359
3353 1 3.59074 17.9537 14.363 -8.23358
1547 1 5.38611 16.1583 14.363 -8.243
1797 2 5.38611 14.363 16.1583 -7.07947
2559 2 5.38611 16.1583 17.9537 -7.07532
3854 3 5.38611 17.9537 16.1583 -6.55056
339 2 7.18149 17.9537 14.363 -7.13014
294 3 10.7722 14.363 17.9537 -6.39554
31 2 10.7722 16.1583 16.1583 -7.03342
839 2 8.97686 17.9537 16.1583 -7.17807
1261 2 10.7722 17.9537 14.363 -7.04092
1346 2 7.18149 17.9537 17.9537 -7.11521
2361 1 10.7722 17.9537 17.9537 -8.05278
2296 2 7.18149 14.363 14.363 -7.15603
2547 2 8.97686 16.1583 14.363 -7.19526
2796 2 8.97686 14.363 16.1583 -7.0951
3047 3 7.18149 16.1583 16.1583 -6.77555
3308 2 7.18149 14.363 17.9537 -7.08159
3296 3 10.7722 14.363 14.363 -6.43729
3559 2 8.97686 16.1583 17.9537 -7.14175
512 1 12.5676 16.1583 17.9537 -8.15619
1855 1 12.5676 17.9537 16.1583 -8.12126
3547 3 12.5676 16.1583 14.363 -6.38302
3797 1 12.5676 14.363 16.1583 -8.26656
266 2 14.363 14.363 14.363 -7.02638
406 2 17.9537 14.363 14.363 -7.05905
547 2 16.1583 16.1583 14.363 -7.05223
798 2 16.1583 14.363 16.1583 -7.08189
1156 2 17.9537 16.1583 16.1583 -6.9897
1047 1 14.363 16.1583 16.1583 -8.18426
1417 2 17.9537 14.363 17.9537 -7.06686
1310 3 14.363 14.363 17.9537 -6.48933
1560 1 16.1583 16.1583 17.9537 -8.27245
2463 3 17.9537 17.9537 14.363 -6.44224
2354 3 14.363 17.9537 14.363 -6.52594
2854 1 16.1583 17.9537 16.1583 -8.38611
3469 3 17.9537 17.9537 17.9537 -6.32801
3361 1 14.363 17.9537 17.9537 -7.97813
285 1 3.59074 3.59074 21.5445 -8.20516
1798 3 1.79537 0 19.7491 -6.5562
2048 2 0 1.79537 19.7491 -7.0845
2297 2 0 0 21.5445 -7.03812
2548 1 1.79537 1.79537 21.5445 -8.41761
2798 2 1.79537 3.59074 19.7491 -7.05044
3048 2 3.59074 1.79537 19.7491 -6.94124
3299 2 0 3.59074 21.5445 -7.01214
3297 1 3.59074 0 21.5445 -8.25146
2797 1 5.38611 0 19.7491 -8.23103
3548 3 5.38611 1.79537 21.5445 -6.48335
3799 2 5.38611 3.59074 19.7491 -7.02695
501 3 8.97686 1.79537 21.5445 -6.32721
32 1 7.18149 1.79537 19.7491 -8.36274
283 3 7.18149 0 21.5445 -6.53629
800 1 8.97686 3.59074 19.7491 -8.14229
1048 1 10.7722 1.79537 19.7491 -8.49075
1301 3 7.18149 3.59074 21.5445 -6.47306
1299 3 10.7722 0 21.5445 -6.28885
2301 3 10.7722 3.59074 21.5445 -6.30314
3798 3 8.97686 0 19.7491 -6.29763
799 2 12.5676 0 19.7491 -6.78738
1549 3 12.5676 1.79537 21.5445 -6.14491
1800 1 12.5676 3.59074 19.7491 -8.1046
1799 3 16.1583 0 19.7491 -6.38201
2157 2 17.9537 1.79537 19.7491 -6.98898
2049 1 14.363 1.79537 19.7491 -8.36238
2407 3 17.9537 0 21.5445 -6.38151
2299 1 14.363 0 21.5445 -8.17659
2550 2 16.1583 1.79537 21.5445 -6.90863
2799 3 16.1583 3.59074 19.7491 -6.40149
3424 3 17.9537 3.59074 21.5445 -6.43375
3301 1 14.363 3.59074 21.5445 -8.10177
33 1 3.59074 5.38611 19.7491 -7.99943
3049 3 0 5.38611 19.7491 -6.5651
3550 1 1.79537 5.38611 21.5445 -8.10845
503 1 5.38611 5.38611 21.5445 -8.22675
1049 2 7.18149 5.38611 19.7491 -6.97389
1551 2 8.97686 5.38611 21.5445 -6.99528
2050 2 10.7722 5.38611 19.7491 -7.02246
2552 2 12.5676 5.38611 21.5445 -7.03741
3174 3 17.9537 5.38611 19.7491 -6.54308
3050 1 14.363 5.38611 19.7491 -8.16317
3552 3 16.1583 5.38611 21.5445 -6.41046
505 3 1.79537 8.97686 21.5445 -6.27224
34 1 0 8.97686 19.7491 -8.15034
287 2 0 7.18149 21.5445 -6.97739
802 1 1.79537 10.7722 19.7491 -8.13725
1050 2 3.59074 8.97686 19.7491 -6.99059
1305 1 0 10.7722 21.5445 -8.1866
1303 1 3.59074 7.18149 21.5445 -8.10888
2305 3 3.59074 10.7722 21.5445 -6.37381
3800 2 1.79537 7.18149 19.7491 -7.00022
801 3 5.38611 7.18149 19.7491 -6.42863
1553 2 5.38611 8.97686 21.5445 -7.02571
1802 1 5.38611 10.7722 19.7491 -8.2739
291 2 10.7722 10.7722 21.5445 -7.01397
1801 3 8.97686 7.18149 19.7491 -6.57642
2051 2 7.18149 8.97686 19.7491 -7.02876
2303 1 7.18149 7.18149 21.5445 -8.44907
2554 2 8.97686 8.97686 21.5445 -6.99384
2801 1 8.97686 10.7722 19.7491 -8.31292
3051 3 10.7722 8.97686 19.7491 -6.64434
3305 3 7.18149 10.7722 21.5445 -6.50858
3303 1 10.7722 7.18149 21.5445 -8.61319
2800 2 12.5676 7.18149 19.7491 -7.03449
3554 3 12.5676 8.97686 21.5445 -6.56249
3802 2 12.5676 10.7722 19.7491 -7.08493
507 1 16.1583 8.97686 21.5445 -8.19818
159 2 17.9537 8.97686 19.7491 -7.08202
35 3 14.363 8.97686 19.7491 -6.49817
412 2 17.9537 7.18149 21.5445 -7.07296
289 3 14.363 7.18149 21.5445 -6.39478
803 1 16.1583 10.7722 19.7491 -8.23054
1414 3 17.9537 10.7722 21.5445 -6.3948
1307 2 14.363 10.7722 21.5445 -7.04228
3801 2 16.1583 7.18149 19.7491 -7.02131
1051 2 0 12.5676 19.7491 -7.09472
1555 1 1.79537 12.5676 21.5445 -8.37021
2052 3 3.59074 12.5676 19.7491 -6.44492
2556 2 5.38611 12.5676 21.5445 -6.93044
36 1 10.7722 12.5676 19.7491 -8.27132
3052 1 7.18149 12.5676 19.7491 -8.04113
3556 1 8.97686 12.5676 21.5445 -8.06829
509 2 12.5676 12.5676 21.5445 -7.0569
1161 3 17.9537 12.5676 19.7491 -6.43407
1052 2 14.363 12.5676 19.7491 -7.11291
1557 2 16.1583 12.5676 21.5445 -7.05326
345 1 0 17.9537 21.5445 -8.19893
1345 1 3.59074 17.9537 21.5445 -8.26881
1803 3 1.79537 14.363 19.7491 -6.66358
2053 3 0 16.1583 19.7491 -6.52004
2307 2 0 14.363 21.5445 -6.97806
2558 3 1.79537 16.1583 21.5445 -6.4619
3053 3 3.59074 16.1583 19.7491 -6.66402
3307 2 3.59074 14.363 21.5445 -6.97231
3860 2 1.79537 17.9537 19.7491 -6.95884
845 2 5.38611 17.9537 19.7491 -7.01822
2802 3 5.38611 14.363 19.7491 -6.54766
3558 2 5.38611 16.1583 21.5445 -7.01254
511 3 8.97686 16.1583 21.5445 -6.17221
37 3 7.18149 16.1583 19.7491 -6.55356
293 1 7.18149 14.363 21.5445 -8.20131
1053 2 10.7722 16.1583 19.7491 -6.98849
1309 1 10.7722 14.363 21.5445 -8.25018
1861 2 8.97686 17.9537 19.7491 -7.03219
2360 1 7.18149 17.9537 21.5445 -8.27337
3360 1 10.7722 17.9537 21.5445 -8.34226
3803 1 8.97686 14.363 19.7491 -8.20563
804 3 12.5676 14.363 19.7491 -6.49038
1559 2 12.5676 16.1583 21.5445 -6.91431
2860 1 12.5676 17.9537 19.7491 -7.9363
470 1 17.9537 17.9537 21.5445 -8.21908
347 1 14.363 17.9537 21.5445 -8.33976
1804 2 16.1583 14.363 19.7491 -7.03991
2162 1 17.9537 16.1583 19.7491 -8.05743
2054 3 14.363 16.1583 19.7491 -6.29441
2417 2 17.9537 14.363 21.5445 -7.07124
2309 3 14.363 14.363 21.5445 -6.66407
2560 1 16.1583 16.1583 21.5445 -8.38446
3861 3 16.1583 17.9537 19.7491 -6.22916
38 3 3.59074 1.79537 23.3398 -6.46257