ITEM: TIMESTEP
0
ITEM: NUMBER OF ATOMS
4000
ITEM: BOX BOUNDS pp pp pp
0.0000000000000000e+00 3.6097780000000000e+01
0.0000000000000000e+00 3.6097780000000000e+01
0.0000000000000000e+00 3.6097780000000000e+01
ITEM: ATOMS id type x y z c_peratom
267 2 0 0 0 -7.05494
516 2 1.80489 1.80489 0 -7.06496
767 3 1.80489 0 1.80489 -6.63259
1016 3 0 1.80489 1.80489 -6.55268
1267 2 0 0 3.60978 -6.96981
1517 3 1.80489 1.80489 3.60978 -6.51928
1268 2 3.60978 0 0 -7.04662
1518 1 5.41467 1.80489 0 -8.31045
1767 3 5.41467 0 1.80489 -6.29678
2017 3 3.60978 1.80489 1.80489 -6.52476
2266 2 3.60978 0 3.60978 -6.86284
2517 1 5.41467 1.80489 3.60978 -8.25747
1 1 10.8293 1.80489 1.80489 -8.07474
268 2 10.8293 0 3.60978 -6.98921
2267 1 7.21956 0 0 -8.15874
2518 1 9.02445 1.80489 0 -8.14149
2766 3 9.02445 0 1.80489 -6.36888
3017 3 7.21956 1.80489 1.80489 -6.26572
3266 1 7.21956 0 3.60978 -8.25987
3267 3 10.8293 0 0 -6.31477
3517 1 9.02445 1.80489 3.60978 -8.03852
269 1 14.4391 0 0 -8.13457
517 1 12.6342 1.80489 3.60978 -7.94347
1017 1 14.4391 1.80489 1.80489 -8.03764
1269 1 14.4391 0 3.60978 -8.2738
3518 1 12.6342 1.80489 0 -8.07182
3767 3 12.6342 0 1.80489 -6.28657
518 2 16.244 1.80489 0 -6.96494
768 3 16.244 0 1.80489 -6.2552
1519 2 16.244 1.80489 3.60978 -6.999
1270 3 0 3.60978 0 -6.40804
1520 3 1.80489 5.41467 0 -6.50109
1768 1 1.80489 3.60978 1.80489 -8.45557
2018 3 0 5.41467 1.80489 -6.52976
2268 2 0 3.60978 3.60978 -6.96441
2519 3 1.80489 5.41467 3.60978 -6.47931
2269 2 3.60978 3.60978 0 -7.03486
2520 3 5.41467 5.41467 0 -6.6235
2767 2 5.41467 3.60978 1.80489 -6.99882
3018 2 3.60978 5.41467 1.80489 -6.97545
3268 1 3.60978 3.60978 3.60978 -8.30363
3519 3 5.41467 5.41467 3.60978 -6.51641
2 2 7.21956 5.41467 1.80489 -6.9816
271 2 10.8293 3.60978 0 -7.06629
270 3 7.21956 3.60978 3.60978 -6.3714
519 3 9.02445 5.41467 3.60978 -6.37374
1018 2 10.8293 5.41467 1.80489 -7.04128
1271 1 10.8293 3.60978 3.60978 -8.03164
3269 2 7.21956 3.60978 0 -7.02975
3520 1 9.02445 5.41467 0 -8.28566
3768 1 9.02445 3.60978 1.80489 -8.10854
520 1 12.6342 5.41467 0 -8.19966
769 2 12.6342 3.60978 1.80489 -7.1178
1272 1 14.4391 3.60978 0 -8.0535
1521 3 12.6342 5.41467 3.60978 -6.26841
2019 1 14.4391 5.41467 1.80489 -8.06182
2270 1 14.4391 3.60978 3.60978 -8.13312
1522 2 16.244 5.41467 0 -6.96423
1769 3 16.244 3.60978 1.80489 -6.35688
2521 3 16.244 5.41467 3.60978 -6.57935
274 2 0 10.8293 3.60978 -7.04013
2271 1 0 7.21956 0 -8.22437
2522 2 1.80489 9.02445 0 -7.04558
2768 2 1.80489 7.21956 1.80489 -7.01403
3019 3 0 9.02445 1.80489 -6.60829
3273 2 0 10.8293 0 -7.09596
3270 2 0 7.21956 3.60978 -7.06152
3521 2 1.80489 9.02445 3.60978 -7.12735
3770 2 1.80489 10.8293 1.80489 -7.08847
3 1 3.60978 9.02445 1.80489 -7.9953
275 1 3.60978 10.8293 0 -7.922
272 1 3.60978 7.21956 3.60978 -8.30532
521 2 5.41467 9.02445 3.60978 -7.13129
771 1 5.41467 10.8293 1.80489 -7.99727
1275 1 3.60978 10.8293 3.60978 -7.93296
3271 3 3.60978 7.21956 0 -6.56235
3522 2 5.41467 9.02445 0 -7.04696
3769 1 5.41467 7.21956 1.80489 -8.25541
273 3 7.21956 7.21956 0 -6.38132
522 1 9.02445 9.02445 0 -8.11401
770 3 9.02445 7.21956 1.80489 -6.51075
1019 1 7.21956 9.02445 1.80489 -8.09624
1276 1 7.21956 10.8293 0 -8.00384
1274 2 10.8293 7.21956 0 -6.97965
1273 2 7.21956 7.21956 3.60978 -6.99687
1523 2 9.02445 9.02445 3.60978 -7.01394
1771 1 9.02445 10.8293 1.80489 -7.98288
2020 2 10.8293 9.02445 1.80489 -7.07132
2275 1 10.8293 10.8293 0 -7.8789
2274 2 7.21956 10.8293 3.60978 -7.02154
2272 3 10.8293 7.21956 3.60978 -6.36825
3274 1 10.8293 10.8293 3.60978 -7.97759
276 1 14.4391 10.8293 3.60978 -8.18995
1524 1 12.6342 9.02445 0 -8.16572
1770 2 12.6342 7.21956 1.80489 -7.11185
2273 1 14.4391 7.21956 0 -8.05573
2523 1 12.6342 9.02445 3.60978 -8.00273
2770 2 12.6342 10.8293 1.80489 -7.11907
3020 2 14.4391 9.02445 1.80489 -7.07207
3275 3 14.4391 10.8293 0 -6.37055
3272 1 14.4391 7.21956 3.60978 -8.13365
2524 1 16.244 9.02445 0 -8.2659
2769 2 16.244 7.21956 1.80489 -7.12201
3523 2 16.244 9.02445 3.60978 -7.07008
3771 2 16.244 10.8293 1.80489 -7.06939
4 2 0 12.6342 1.80489 -7.02137
277 3 0 14.4391 0 -6.40872
523 1 1.80489 12.6342 3.60978 -8.04482
772 1 1.80489 14.4391 1.80489 -8.05217
1277 1 0 14.4391 3.60978 -8.00744
3524 1 1.80489 12.6342 0 -8.14533
524 2 5.41467 12.6342 0 -7.08482
1020 1 3.60978 12.6342 1.80489 -7.955
1278 3 3.60978 14.4391 0 -6.49724
1525 3 5.41467 12.6342 3.60978 -6.43131
1772 1 5.41467 14.4391 1.80489 -8.36616
2276 3 3.60978 14.4391 3.60978 -6.4491
278 2 10.8293 14.4391 3.60978 -7.00439
1526 2 9.02445 12.6342 0 -7.08875
2021 2 7.21956 12.6342 1.80489 -7.02376
2277 2 7.21956 14.4391 0 -7.09612
2525 3 9.02445 12.6342 3.60978 -6.44176
2771 1 9.02445 14.4391 1.80489 -8.28976
3021 1 10.8293 12.6342 1.80489 -7.88206
3277 1 10.8293 14.4391 0 -8.23319
3276 2 7.21956 14.4391 3.60978 -7.01467
5 2 14.4391 12.6342 1.80489 -6.99326
279 1 14.4391 14.4391 0 -8.1004
1279 1 14.4391 14.4391 3.60978 -8.18446
2526 1 12.6342 12.6342 0 -7.99219
3525 1 12.6342 12.6342 3.60978 -7.89986
3772 2 12.6342 14.4391 1.80489 -7.04555
525 3 16.244 12.6342 3.60978 -6.56751
773 3 16.244 14.4391 1.80489 -6.46242
3526 1 16.244 12.6342 0 -8.31585
526 3 1.80489 16.244 0 -6.49748
1021 1 0 16.244 1.80489 -8.15354
1527 1 1.80489 16.244 3.60978 -7.95767
1528 2 5.41467 16.244 0 -7.14983
2022 2 3.60978 16.244 1.80489 -7.02566
2527 3 5.41467 16.244 3.60978 -6.60271
6 3 10.8293 16.244 1.80489 -6.37456
2528 2 9.02445 16.244 0 -7.02998
3022 2 7.21956 16.244 1.80489 -7.07063
3527 3 9.02445 16.244 3.60978 -6.47595
527 1 12.6342 16.244 3.60978 -8.097
1022 1 14.4391 16.244 1.80489 -8.04747
3528 3 12.6342 16.244 0 -6.2708
528 2 16.244 16.244 0 -7.00395
1529 3 16.244 16.244 3.60978 -6.3422
1773 3 1.80489 0 5.41467 -6.49665
2023 1 0 1.80489 5.41467 -8.26553
2278 1 0 0 7.21956 -8.21791
2529 3 1.80489 1.80489 7.21956 -6.5623
2773 2 3.60978 0 7.21956 -7.00731
2772 2 5.41467 0 5.41467 -7.045
3024 1 5.41467 1.80489 7.21956 -8.22719
3023 3 3.60978 1.80489 5.41467 -6.5007
7 1 7.21956 1.80489 5.41467 -8.10737
1023 1 10.8293 1.80489 5.41467 -8.1227
3278 3 7.21956 0 7.21956 -6.51702
3529 1 9.02445 1.80489 7.21956 -8.33761
3774 3 10.8293 0 7.21956 -6.53122
3773 3 9.02445 0 5.41467 -6.43708
8 1 12.6342 1.80489 7.21956 -8.20387
280 2 14.4391 0 7.21956 -7.05904
774 2 12.6342 0 5.41467 -7.02906
2024 2 14.4391 1.80489 5.41467 -7.0365
529 3 16.244 1.80489 7.21956 -6.55453
1774 3 16.244 0 5.41467 -6.40411
775 2 0 3.60978 7.21956 -7.00395
1024 3 1.80489 5.41467 7.21956 -6.50625
2774 1 1.80489 3.60978 5.41467 -8.28867
3025 1 0 5.41467 5.41467 -8.12605
9 3 3.60978 5.41467 5.41467 -6.55136
1280 2 3.60978 3.60978 7.21956 -6.97551
1530 2 5.41467 5.41467 7.21956 -7.00632
3775 2 5.41467 3.60978 5.41467 -6.99283
776 3 9.02445 3.60978 5.41467 -6.21168
1025 1 7.21956 5.41467 5.41467 -8.35351
1775 2 7.21956 3.60978 7.21956 -7.00221
2026 1 10.8293 5.41467 5.41467 -8.13422
2025 3 9.02445 5.41467 7.21956 -6.35543
2279 3 10.8293 3.60978 7.21956 -6.35608
1776 1 12.6342 3.60978 5.41467 -8.00896
2530 1 12.6342 5.41467 7.21956 -8.20977
2776 3 14.4391 3.60978 7.21956 -6.53349
3026 3 14.4391 5.41467 5.41467 -6.4257
2775 2 16.244 3.60978 5.41467 -7.0329
3027 2 16.244 5.41467 7.21956 -7.05546
10 2 0 9.02445 5.41467 -7.15486
779 1 1.80489 10.8293 5.41467 -8.06812
1778 1 0 10.8293 7.21956 -8.01708
3279 1 0 7.21956 7.21956 -8.07265
3530 2 1.80489 9.02445 7.21956 -7.11771
3776 2 1.80489 7.21956 5.41467 -7.00718
11 2 5.41467 9.02445 7.21956 -6.94683
777 2 5.41467 7.21956 5.41467 -6.9821
1026 3 3.60978 9.02445 5.41467 -6.49391
1779 1 5.41467 10.8293 5.41467 -8.3535
2280 1 3.60978 10.8293 7.21956 -8.09425
3777 3 3.60978 7.21956 7.21956 -6.67661
281 1 7.21956 7.21956 7.21956 -8.20933
530 1 9.02445 9.02445 7.21956 -8.17954
778 1 10.8293 7.21956 7.21956 -7.87827
1777 1 9.02445 7.21956 5.41467 -8.06959
2027 3 7.21956 9.02445 5.41467 -6.46807
2779 3 7.21956 10.8293 7.21956 -6.41048
2778 2 9.02445 10.8293 5.41467 -6.94629
3028 1 10.8293 9.02445 5.41467 -7.9476
3280 3 10.8293 10.8293 7.21956 -6.21648
12 3 14.4391 9.02445 5.41467 -6.43794
1027 1 12.6342 9.02445 7.21956 -8.01617
1281 3 14.4391 7.21956 7.21956 -6.4931
2777 1 12.6342 7.21956 5.41467 -8.051
3780 2 14.4391 10.8293 7.21956 -7.01252
3779 1 12.6342 10.8293 5.41467 -8.12312
780 2 16.244 10.8293 5.41467 -7.022
1531 2 16.244 9.02445 7.21956 -7.04981
3778 2 16.244 7.21956 5.41467 -7.10143
282 1 0 14.4391 7.21956 -8.13746
1028 2 0 12.6342 5.41467 -7.02331
1780 3 1.80489 14.4391 5.41467 -6.39357
2028 2 1.80489 12.6342 7.21956 -7.13736
781 2 3.60978 14.4391 7.21956 -7.03079
2029 2 3.60978 12.6342 5.41467 -7.05444
2531 3 5.41467 12.6342 7.21956 -6.47179
2780 2 5.41467 14.4391 5.41467 -7.04966
13 2 10.8293 12.6342 5.41467 -6.95699
1282 2 7.21956 14.4391 7.21956 -7.00016
1781 3 10.8293 14.4391 7.21956 -6.25916
3030 1 9.02445 12.6342 7.21956 -8.19941
3029 3 7.21956 12.6342 5.41467 -6.49508
3781 1 9.02445 14.4391 5.41467 -8.31427
782 1 12.6342 14.4391 5.41467 -8.28872
1029 3 14.4391 12.6342 5.41467 -6.37579
2281 2 14.4391 14.4391 7.21956 -6.98249
3531 3 12.6342 12.6342 7.21956 -6.31804
14 1 16.244 12.6342 7.21956 -8.19247
1782 2 16.244 14.4391 5.41467 -7.00765
531 3 1.80489 16.244 7.21956 -6.35205
2030 1 0 16.244 5.41467 -7.98863
1030 3 5.41467 16.244 7.21956 -6.48796
3031 2 3.60978 16.244 5.41467 -7.01738
15 1 7.21956 16.244 5.41467 -8.2877
1031 2 10.8293 16.244 5.41467 -6.92696
1532 1 9.02445 16.244 7.21956 -8.19216
2032 1 14.4391 16.244 5.41467 -8.08936
2031 3 12.6342 16.244 7.21956 -6.34424
2532 1 16.244 16.244 7.21956 -8.05458
16 2 0 1.80489 12.6342 -7.1434
2781 2 1.80489 0 9.02445 -7.06744
3032 2 0 1.80489 9.02445 -7.04855
3281 1 0 0 10.8293 -8.287
3532 1 1.80489 1.80489 10.8293 -8.14555
3782 2 1.80489 0 12.6342 -7.05876
251 3 3.60978 0 10.8293 -6.45879
532 2 5.41467 1.80489 10.8293 -6.8733
783 1 5.41467 0 12.6342 -8.10124
1032 3 3.60978 1.80489 12.6342 -6.35867
3282 1 5.41467 0 9.02445 -8.3427
3533 3 3.60978 1.80489 9.02445 -6.45734
17 3 7.21956 1.80489 9.02445 -6.4346
533 2 10.8293 1.80489 9.02445 -6.9792
1283 3 7.21956 0 10.8293 -6.4348
1533 1 9.02445 1.80489 10.8293 -8.36593
1783 1 9.02445 0 12.6342 -8.23517
2033 2 7.21956 1.80489 12.6342 -7.03965
2282 3 10.8293 0 10.8293 -6.70475
3033 2 10.8293 1.80489 12.6342 -7.01936
3783 2 9.02445 0 9.02445 -7.02655
252 2 12.6342 0 9.02445 -7.1142
18 2 14.4391 1.80489 12.6342 -6.95937
1033 1 14.4391 1.80489 9.02445 -8.35841
2533 2 12.6342 1.80489 10.8293 -7.02615
2782 2 12.6342 0 12.6342 -7.02236
3283 3 14.4391 0 10.8293 -6.68241
784 2 16.244 0 9.02445 -7.02092
3534 1 16.244 1.80489 10.8293 -8.2988
3784 3 16.244 0 12.6342 -6.61744
253 1 0 3.60978 10.8293 -8.03324
534 3 1.80489 5.41467 10.8293 -6.35832
785 1 1.80489 3.60978 12.6342 -8.10942
1034 1 0 5.41467 12.6342 -7.91987
1284 2 1.80489 3.60978 9.02445 -6.99588
1534 2 0 5.41467 9.02445 -7.0577
1285 1 3.60978 3.60978 10.8293 -8.19014
1535 2 5.41467 5.41467 10.8293 -6.91259
1785 3 5.41467 3.60978 12.6342 -6.57829
1784 1 5.41467 3.60978 9.02445 -8.24056
2035 3 3.60978 5.41467 12.6342 -6.43022
2034 1 3.60978 5.41467 9.02445 -8.31202
19 2 10.8293 5.41467 12.6342 -7.10538
2284 2 7.21956 3.60978 10.8293 -6.99415
2283 3 9.02445 3.60978 9.02445 -6.56947
2535 2 9.02445 5.41467 10.8293 -7.05918
2534 3 7.21956 5.41467 9.02445 -6.45646
2783 1 9.02445 3.60978 12.6342 -8.27411
3035 2 10.8293 5.41467 9.02445 -7.08347
3034 3 7.21956 5.41467 12.6342 -6.54411
3284 3 10.8293 3.60978 10.8293 -6.63077
254 3 14.4391 3.60978 10.8293 -6.51305
1035 1 14.4391 5.41467 12.6342 -8.11267
2784 2 12.6342 3.60978 9.02445 -7.04282
3536 2 14.4391 5.41467 9.02445 -7.0057
3535 2 12.6342 5.41467 10.8293 -7.15568
3785 1 12.6342 3.60978 12.6342 -8.22518
535 1 16.244 5.41467 10.8293 -8.21103
786 2 16.244 3.60978 12.6342 -7.02608
3285 3 16.244 3.60978 9.02445 -6.45964
20 2 0 9.02445 9.02445 -7.0582
1286 3 0 7.21956 10.8293 -6.38259
1536 2 1.80489 9.02445 10.8293 -7.01923
1786 1 1.80489 7.21956 12.6342 -8.38416
2036 1 0 9.02445 12.6342 -8.17601
2287 1 0 10.8293 10.8293 -8.17223
2286 1 1.80489 10.8293 9.02445 -7.97362
2786 3 1.80489 10.8293 12.6342 -6.37813
3786 2 1.80489 7.21956 9.02445 -7.05152
255 3 5.41467 7.21956 9.02445 -6.46529
536 2 3.60978 9.02445 9.02445 -7.04741
2285 3 3.60978 7.21956 10.8293 -6.46121
2536 1 5.41467 9.02445 10.8293 -8.22352
2787 3 5.41467 10.8293 9.02445 -6.35079
2785 1 5.41467 7.21956 12.6342 -8.35259
3036 3 3.60978 9.02445 12.6342 -6.40667
3287 1 3.60978 10.8293 10.8293 -8.0834
3788 1 5.41467 10.8293 12.6342 -8.02985
256 2 10.8293 7.21956 10.8293 -7.1604
257 1 7.21956 10.8293 10.8293 -8.12044
21 1 7.21956 9.02445 12.6342 -7.96164
789 2 9.02445 10.8293 12.6342 -6.99964
787 1 9.02445 7.21956 9.02445 -8.07899
1037 3 10.8293 9.02445 12.6342 -6.69954
1036 3 7.21956 9.02445 9.02445 -6.31055
1289 2 10.8293 10.8293 10.8293 -7.02678
1537 1 10.8293 9.02445 9.02445 -8.17133
3288 3 9.02445 10.8293 9.02445 -6.32053
3286 1 7.21956 7.21956 10.8293 -8.19753
3537 2 9.02445 9.02445 10.8293 -7.00117
3787 2 9.02445 7.21956 12.6342 -7.02415
537 3 12.6342 9.02445 10.8293 -6.65362
788 2 12.6342 7.21956 12.6342 -7.117
1288 2 14.4391 7.21956 10.8293 -7.12494
1287 2 12.6342 7.21956 9.02445 -7.08469
1789 2 12.6342 10.8293 12.6342 -7.05762
2038 2 14.4391 9.02445 12.6342 -7.06135
2037 1 14.4391 9.02445 9.02445 -8.25568
2288 2 14.4391 10.8293 10.8293 -7.04754
3789 3 12.6342 10.8293 9.02445 -6.34248
258 1 16.244 10.8293 9.02445 -8.02876
1538 2 16.244 9.02445 10.8293 -7.04997
1788 1 16.244 7.21956 12.6342 -7.92296
1787 3 16.244 7.21956 9.02445 -6.59064
2788 3 16.244 10.8293 12.6342 -6.3994
790 2 1.80489 14.4391 9.02445 -6.95051
2538 3 1.80489 12.6342 10.8293 -6.25556
2537 1 0 12.6342 9.02445 -8.10579
3037 3 0 12.6342 12.6342 -6.3316
3289 3 0 14.4391 10.8293 -6.37906
3790 1 1.80489 14.4391 12.6342 -8.44191
259 3 3.60978 14.4391 10.8293 -6.31899
22 1 3.60978 12.6342 12.6342 -8.30621
791 3 5.41467 14.4391 12.6342 -6.44131
1290 3 5.41467 14.4391 9.02445 -6.43595
3038 1 3.60978 12.6342 9.02445 -8.31079
3538 2 5.41467 12.6342 10.8293 -6.97303
23 1 10.8293 12.6342 9.02445 -8.23101
538 2 9.02445 12.6342 10.8293 -7.04892
1038 1 7.21956 12.6342 12.6342 -8.26721
1291 2 7.21956 14.4391 10.8293 -7.04868
1791 2 9.02445 14.4391 12.6342 -7.15605
1790 1 9.02445 14.4391 9.02445 -8.08547
2039 3 10.8293 12.6342 12.6342 -6.57857
2290 1 10.8293 14.4391 10.8293 -8.30001
3539 1 7.21956 12.6342 9.02445 -8.21845
539 1 14.4391 12.6342 9.02445 -8.19588
1539 3 12.6342 12.6342 10.8293 -6.39295
2289 1 12.6342 14.4391 9.02445 -8.2261
2789 3 12.6342 14.4391 12.6342 -6.38198
3039 1 14.4391 12.6342 12.6342 -8.39274
3290 3 14.4391 14.4391 10.8293 -6.26637
2539 1 16.244 12.6342 10.8293 -8.09754
2790 3 16.244 14.4391 9.02445 -6.27218
3791 2 16.244 14.4391 12.6342 -7.03115
24 2 0 16.244 12.6342 -6.97211
1039 1 0 16.244 9.02445 -8.25976
3540 2 1.80489 16.244 10.8293 -6.98261
540 1 5.41467 16.244 10.8293 -8.29249
1040 1 3.60978 16.244 12.6342 -8.32863
1540 1 3.60978 16.244 9.02445 -8.22367
1541 2 9.02445 16.244 10.8293 -7.06648
2041 2 7.21956 16.244 12.6342 -7.09386
2040 3 7.21956 16.244 9.02445 -6.46909
2540 3 10.8293 16.244 9.02445 -6.46568
3040 2 10.8293 16.244 12.6342 -7.0252
25 1 14.4391 16.244 12.6342 -8.33898
2541 3 12.6342 16.244 10.8293 -6.42912
3041 1 14.4391 16.244 9.02445 -8.32023
3541 2 16.244 16.244 10.8293 -6.90954
260 2 0 0 14.4391 -7.15014
541 2 1.80489 1.80489 14.4391 -7.0772
792 3 1.80489 0 16.244 -6.61399
1041 2 0 1.80489 16.244 -7.03459
1292 1 3.60978 0 14.4391 -8.02946
1542 1 5.41467 1.80489 14.4391 -8.28813
1792 1 5.41467 0 16.244 -8.00243
2042 2 3.60978 1.80489 16.244 -7.03372
26 1 10.8293 1.80489 16.244 -8.1934
2291 1 7.21956 0 14.4391 -8.01102
2542 2 9.02445 1.80489 14.4391 -6.92477
2791 2 9.02445 0 16.244 -6.99084
3042 3 7.21956 1.80489 16.244 -6.42681
3291 3 10.8293 0 14.4391 -6.47228
261 3 14.4391 0 14.4391 -6.64885
1042 2 14.4391 1.80489 16.244 -6.99564
3542 1 12.6342 1.80489 14.4391 -8.25795
3792 2 12.6342 0 16.244 -7.00362
542 3 16.244 1.80489 14.4391 -6.66392
793 2 16.244 0 16.244 -7.07196
1293 1 0 3.60978 14.4391 -8.03261
1543 3 1.80489 5.41467 14.4391 -6.47306
1793 1 1.80489 3.60978 16.244 -8.34881
2043 2 0 5.41467 16.244 -7.05943
2292 2 3.60978 3.60978 14.4391 -7.0195
2543 2 5.41467 5.41467 14.4391 -7.05057
2792 2 5.41467 3.60978 16.244 -7.049
3043 2 3.60978 5.41467 16.244 -7.15081
262 1 10.8293 3.60978 14.4391 -8.13839
27 3 7.21956 5.41467 16.244 -6.59824
1043 3 10.8293 5.41467 16.244 -6.41982
3292 3 7.21956 3.60978 14.4391 -6.58894
3543 3 9.02445 5.41467 14.4391 -6.56816
3793 3 9.02445 3.60978 16.244 -6.40108
543 3 12.6342 5.41467 14.4391 -6.40712
794 3 12.6342 3.60978 16.244 -6.29263
1294 3 14.4391 3.60978 14.4391 -6.44711
2044 2 14.4391 5.41467 16.244 -7.06567
1544 1 16.244 5.41467 14.4391 -8.03865
1794 2 16.244 3.60978 16.244 -7.09407
2293 2 0 7.21956 14.4391 -7.10784
2544 3 1.80489 9.02445 14.4391 -6.49887
2793 2 1.80489 7.21956 16.244 -7.07537
3044 2 0 9.02445 16.244 -7.05905
3294 3 0 10.8293 14.4391 -6.45996
3795 3 1.80489 10.8293 16.244 -6.49638
264 2 3.60978 10.8293 14.4391 -6.93643
28 1 3.60978 9.02445 16.244 -8.46153
796 3 5.41467 10.8293 16.244 -6.39529
3293 3 3.60978 7.21956 14.4391 -6.53699
3544 2 5.41467 9.02445 14.4391 -6.90975
3794 2 5.41467 7.21956 16.244 -7.00842
263 3 7.21956 7.21956 14.4391 -6.55181
544 1 9.02445 9.02445 14.4391 -8.2755
795 2 9.02445 7.21956 16.244 -6.94083
1044 3 7.21956 9.02445 16.244 -6.38105
1296 3 7.21956 10.8293 14.4391 -6.38836
1295 2 10.8293 7.21956 14.4391 -7.0248
1796 1 9.02445 10.8293 16.244 -8.29827
2045 3 10.8293 9.02445 16.244 -6.35855
2295 1 10.8293 10.8293 14.4391 -8.40372
1545 2 12.6342 9.02445 14.4391 -6.96865
1795 1 12.6342 7.21956 16.244 -8.20058
2294 1 14.4391 7.21956 14.4391 -8.0228
2795 3 12.6342 10.8293 16.244 -6.48625
3045 3 14.4391 9.02445 16.244 -6.31637
3295 3 14.4391 10.8293 14.4391 -6.53081
2545 1 16.244 9.02445 14.4391 -8.10416
2794 1 16.244 7.21956 16.244 -7.90924
3796 3 16.244 10.8293 16.244 -6.29757
265 3 0 14.4391 14.4391 -6.4046
29 2 0 12.6342 16.244 -6.9682
797 1 1.80489 14.4391 16.244 -8.51982
3545 3 1.80489 12.6342 14.4391 -6.40877
545 2 5.41467 12.6342 14.4391 -6.94129
1045 1 3.60978 12.6342 16.244 -8.39807
1297 3 3.60978 14.4391 14.4391 -6.33421
1797 1 5.41467 14.4391 16.244 -8.41199
1546 3 9.02445 12.6342 14.4391 -6.54728
2046 3 7.21956 12.6342 16.244 -6.44778
2296 2 7.21956 14.4391 14.4391 -7.10499
2796 2 9.02445 14.4391 16.244 -6.99695
3046 3 10.8293 12.6342 16.244 -6.49545
3296 2 10.8293 14.4391 14.4391 -6.99438
266 1 14.4391 14.4391 14.4391 -8.183
30 2 14.4391 12.6342 16.244 -6.99052
2546 3 12.6342 12.6342 14.4391 -6.51566
3797 3 12.6342 14.4391 16.244 -6.45931
798 2 16.244 14.4391 16.244 -7.02007
3546 3 16.244 12.6342 14.4391 -6.36167
546 3 1.80489 16.244 14.4391 -6.47612
1046 3 0 16.244 16.244 -6.50157
1547 3 5.41467 16.244 14.4391 -6.48047
2047 2 3.60978 16.244 16.244 -6.94808
31 1 10.8293 16.244 16.244 -8.10454
2547 2 9.02445 16.244 14.4391 -7.15235
3047 2 7.21956 16.244 16.244 -7.02523
1047 2 14.4391 16.244 16.244 -7.04283
3547 1 12.6342 16.244 14.4391 -8.12507
547 1 16.244 16.244 14.4391 -8.13992
1298 3 0 0 18.0489 -6.58714
1548 3 1.80489 1.80489 18.0489 -6.49489
1798 3 1.80489 0 19.8538 -6.47675
2048 1 0 1.80489 19.8538 -8.38147
2297 1 0 0 21.6587 -8.02106
2548 1 1.80489 1.80489 21.6587 -8.16171
2298 3 3.60978 0 18.0489 -6.46835
2549 2 5.41467 1.80489 18.0489 -6.96975
2797 3 5.41467 0 19.8538 -6.56628
3048 1 3.60978 1.80489 19.8538 -8.48485
3297 3 3.60978 0 21.6587 -6.54233
3548 2 5.41467 1.80489 21.6587 -6.99391
501 2 9.02445 1.80489 21.6587 -7.08841
32 3 7.21956 1.80489 19.8538 -6.49439
284 3 10.8293 0 18.0489 -6.5134
283 2 7.21956 0 21.6587 -7.05619
1048 1 10.8293 1.80489 19.8538 -8.02328
1299 1 10.8293 0 21.6587 -8.06878
3298 1 7.21956 0 18.0489 -8.32103
3549 3 9.02445 1.80489 18.0489 -6.34717
3798 2 9.02445 0 19.8538 -7.05401
502 1 12.6342 1.80489 18.0489 -8.16804
799 2 12.6342 0 19.8538 -7.06753
1300 3 14.4391 0 18.0489 -6.55232
1549 2 12.6342 1.80489 21.6587 -7.02325
2049 3 14.4391 1.80489 19.8538 -6.53971
2299 2 14.4391 0 21.6587 -6.99868
1550 1 16.244 1.80489 18.0489 -8.13799
1799 2 16.244 0 19.8538 -7.02743
2550 2 16.244 1.80489 21.6587 -6.95516
2300 3 0 3.60978 18.0489 -6.45751
2551 3 1.80489 5.41467 18.0489 -6.60934
2798 3 1.80489 3.60978 19.8538 -6.50544
3049 1 0 5.41467 19.8538 -8.46933
3299 2 0 3.60978 21.6587 -6.93505
3550 3 1.80489 5.41467 21.6587 -6.61113
503 2 5.41467 5.41467 21.6587 -7.11112
33 2 3.60978 5.41467 19.8538 -7.04621
285 2 3.60978 3.60978 21.6587 -7.02695
3300 2 3.60978 3.60978 18.0489 -7.06534
3551 3 5.41467 5.41467 18.0489 -6.54985
3799 3 5.41467 3.60978 19.8538 -6.58156
504 2 9.02445 5.41467 18.0489 -6.96062
286 1 7.21956 3.60978 18.0489 -8.43659
800 1 9.02445 3.60978 19.8538 -8.08348
1049 3 7.21956 5.41467 19.8538 -6.358
1302 1 10.8293 3.60978 18.0489 -8.05623
1301 1 7.21956 3.60978 21.6587 -8.2908
1551 2 9.02445 5.41467 21.6587 -7.07596
2050 2 10.8293 5.41467 19.8538 -7.12047
2301 1 10.8293 3.60978 21.6587 -8.01921
1552 1 12.6342 5.41467 18.0489 -8.06146
1800 2 12.6342 3.60978 19.8538 -7.07092
2302 1 14.4391 3.60978 18.0489 -8.00763
2552 1 12.6342 5.41467 21.6587 -8.1172
3050 1 14.4391 5.41467 19.8538 -8.08681
3301 3 14.4391 3.60978 21.6587 -6.51602
2553 1 16.244 5.41467 18.0489 -7.98405
2799 2 16.244 3.60978 19.8538 -7.0255
3552 3 16.244 5.41467 21.6587 -6.56599
505 1 1.80489 9.02445 21.6587 -8.05859
34 2 0 9.02445 19.8538 -7.08291
290 1 0 10.8293 18.0489 -8.35917
287 2 0 7.21956 21.6587 -7.06971
802 3 1.80489 10.8293 19.8538 -6.45924
1305 2 0 10.8293 21.6587 -6.96732
3302 2 0 7.21956 18.0489 -7.11581
3553 3 1.80489 9.02445 18.0489 -6.55993
3800 1 1.80489 7.21956 19.8538 -8.19239
506 1 5.41467 9.02445 18.0489 -8.16542
288 2 3.60978 7.21956 18.0489 -6.99714
801 1 5.41467 7.21956 19.8538 -8.14348
1050 3 3.60978 9.02445 19.8538 -6.27574
1306 3 3.60978 10.8293 18.0489 -6.34405
1303 1 3.60978 7.21956 21.6587 -8.23576
1553 3 5.41467 9.02445 21.6587 -6.3428
1802 1 5.41467 10.8293 19.8538 -8.0934
2305 1 3.60978 10.8293 21.6587 -8.22629
291 2 10.8293 10.8293 21.6587 -7.08001
1304 1 7.21956 7.21956 18.0489 -8.20009
1554 1 9.02445 9.02445 18.0489 -8.21533
1801 2 9.02445 7.21956 19.8538 -7.06979
2051 1 7.21956 9.02445 19.8538 -8.04964
2306 3 7.21956 10.8293 18.0489 -6.22499
2304 3 10.8293 7.21956 18.0489 -6.47048
2303 1 7.21956 7.21956 21.6587 -8.15678
2554 2 9.02445 9.02445 21.6587 -7.0093
2801 3 9.02445 10.8293 19.8538 -6.36288
3051 2 10.8293 9.02445 19.8538 -7.05673
3306 1 10.8293 10.8293 18.0489 -8.13764
3305 3 7.21956 10.8293 21.6587 -6.39554
3303 3 10.8293 7.21956 21.6587 -6.51827
35 2 14.4391 9.02445 19.8538 -7.12205
292 2 14.4391 10.8293 18.0489 -6.98183
289 2 14.4391 7.21956 21.6587 -7.07331
1307 2 14.4391 10.8293 21.6587 -7.11476
2555 1 12.6342 9.02445 18.0489 -8.2211
2800 2 12.6342 7.21956 19.8538 -7.0652
3304 1 14.4391 7.21956 18.0489 -7.93089
3554 1 12.6342 9.02445 21.6587 -8.30367
3802 2 12.6342 10.8293 19.8538 -7.10421
507 2 16.244 9.02445 21.6587 -7.1033
803 1 16.244 10.8293 19.8538 -8.1757
3555 1 16.244 9.02445 18.0489 -8.16894
3801 2 16.244 7.21956 19.8538 -7.10067
508 3 1.80489 12.6342 18.0489 -6.49601
1051 2 0 12.6342 19.8538 -6.95417
1308 3 0 14.4391 18.0489 -6.60639
1555 3 1.80489 12.6342 21.6587 -6.42207
1803 3 1.80489 14.4391 19.8538 -6.55005
2307 1 0 14.4391 21.6587 -8.33082
1556 1 5.41467 12.6342 18.0489 -8.29332
2052 3 3.60978 12.6342 19.8538 -6.37927
2308 3 3.60978 14.4391 18.0489 -6.46357
2556 1 5.41467 12.6342 21.6587 -8.15578
2802 3 5.41467 14.4391 19.8538 -6.34808
3307 2 3.60978 14.4391 21.6587 -6.86072
36 1 10.8293 12.6342 19.8538 -8.16466
294 3 10.8293 14.4391 18.0489 -6.35245
293 3 7.21956 14.4391 21.6587 -6.20893
1309 1 10.8293 14.4391 21.6587 -7.93221
2557 3 9.02445 12.6342 18.0489 -6.33841
3052 1 7.21956 12.6342 19.8538 -8.27273
3308 3 7.21956 14.4391 18.0489 -6.4043
3556 2 9.02445 12.6342 21.6587 -6.99555
3803 1 9.02445 14.4391 19.8538 -8.17863
509 2 12.6342 12.6342 21.6587 -7.07366
804 1 12.6342 14.4391 19.8538 -8.20684
1052 3 14.4391 12.6342 19.8538 -6.53991
1310 3 14.4391 14.4391 18.0489 -6.49342
2309 3 14.4391 14.4391 21.6587 -6.61116
3557 2 12.6342 12.6342 18.0489 -6.96831
510 1 16.244 12.6342 18.0489 -8.23871
1557 2 16.244 12.6342 21.6587 -7.02817
1804 3 16.244 14.4391 19.8538 -6.61211
1558 2 1.80489 16.244 18.0489 -6.96931
2053 2 0 16.244 19.8538 -6.92856
2558 1 1.80489 16.244 21.6587 -8.41052
2559 3 5.41467 16.244 18.0489 -6.46435
3053 3 3.60978 16.244 19.8538 -6.41297
3558 1 5.41467 16.244 21.6587 -8.14279
511 1 9.02445 16.244 21.6587 -7.90963
37 2 7.21956 16.244 19.8538 -6.92242
1053 1 10.8293 16.244 19.8538 -7.93004
3559 3 9.02445 16.244 18.0489 -6.28956
512 1 12.6342 16.244 18.0489 -8.06737
1559 3 12.6342 16.244 21.6587 -6.38062
2054 3 14.4391 16.244 19.8538 -6.47206
1560 2 16.244 16.244 18.0489 -6.93858
2560 2 16.244 16.244 21.6587 -7.08324
47 2 0 1.80489 27.0733 -7.00668
2803 1 1.80489 0 23.4636 -7.98756
3054 1 0 1.80489 23.4636 -8.18034
3309 2 0 0 25.2684 -7.06343
3560 1 1.80489 1.80489 25.2684 -8.13254
3813 2 1.80489 0 27.0733 -7.00643
549 2 3.60978 1.80489 27.0733 -7.01479
39 1 5.41467 1.80489 25.2684 -8.26071
38 3 3.60978 1.80489 23.4636 -6.40776
299 1 5.41467 0 27.0733 -8.16149
3805 1 3.60978 0 25.2684 -8.01909
3804 3 5.41467 0 23.4636 -6.61064
513 2 9.02445 1.80489 25.2684 -7.05047
295 2 7.21956 0 25.2684 -7.05424
752 1 9.02445 0 27.0733 -8.31505
806 3 10.8293 0 25.2684 -6.41708
805 3 9.02445 0 23.4636 -6.62836
1064 3 7.21956 1.80489 27.0733 -6.42762
1054 3 7.21956 1.80489 23.4636 -6.61041
1565 1 10.8293 1.80489 27.0733 -8.08925
2055 2 10.8293 1.80489 23.4636 -7.00829
1055 2 12.6342 1.80489 25.2684 -6.96671
1315 1 12.6342 0 27.0733 -8.48163
1311 3 14.4391 0 25.2684 -6.52247
1805 1 12.6342 0 23.4636 -8.30188
2065 2 14.4391 1.80489 27.0733 -6.99557
3055 3 14.4391 1.80489 23.4636 -6.55284
1561 1 16.244 1.80489 25.2684 -8.41897
1815 2 16.244 0 27.0733 -7.01768
2804 3 16.244 0 23.4636 -6.51455
40 2 0 5.41467 23.4636 -7.03863
1806 2 0 3.60978 25.2684 -6.94358
2056 2 1.80489 5.41467 25.2684 -7.00983
2314 3 1.80489 3.60978 27.0733 -6.39064
2565 1 0 5.41467 27.0733 -8.2675
3806 3 1.80489 3.60978 23.4636 -6.50824
807 2 5.41467 3.60978 23.4636 -7.0861
1056 2 3.60978 5.41467 23.4636 -7.0859
2310 1 3.60978 3.60978 25.2684 -8.2196
2561 3 5.41467 5.41467 25.2684 -6.61235
2814 2 5.41467 3.60978 27.0733 -6.99535
3065 1 3.60978 5.41467 27.0733 -8.2118
50 2 10.8293 5.41467 27.0733 -7.10805
1807 1 9.02445 3.60978 23.4636 -8.12554
2057 2 7.21956 5.41467 23.4636 -7.14643
2805 2 7.21956 3.60978 25.2684 -7.02772
3057 2 10.8293 5.41467 23.4636 -7.06232
3056 2 9.02445 5.41467 25.2684 -7.0742
3314 1 9.02445 3.60978 27.0733 -8.3273
3310 1 10.8293 3.60978 25.2684 -8.00155
3565 3 7.21956 5.41467 27.0733 -6.61563
552 3 14.4391 5.41467 27.0733 -6.46219
41 1 14.4391 5.41467 23.4636 -8.23644
2806 3 12.6342 3.60978 23.4636 -6.4405
3561 1 12.6342 5.41467 25.2684 -8.06319
3816 1 12.6342 3.60978 27.0733 -8.09267
3808 3 14.4391 3.60978 25.2684 -6.43162
42 2 16.244 5.41467 25.2684 -6.87537
302 2 16.244 3.60978 27.0733 -7.05833
3807 3 16.244 3.60978 23.4636 -6.50695
514 3 1.80489 9.02445 25.2684 -6.47351
296 1 0 7.21956 25.2684 -8.32869
808 2 1.80489 7.21956 23.4636 -7.06595
755 3 1.80489 7.21956 27.0733 -6.4405
1067 2 0 9.02445 27.0733 -6.94805
1057 2 0 9.02445 23.4636 -7.09167
1810 1 1.80489 10.8293 23.4636 -8.15589
2808 1 0 10.8293 25.2684 -8.32736
3317 3 1.80489 10.8293 27.0733 -6.43523
809 1 3.60978 7.21956 25.2684 -8.35234
1058 3 5.41467 9.02445 25.2684 -6.62325
1318 2 5.41467 7.21956 27.0733 -7.03208
1568 2 3.60978 9.02445 27.0733 -6.98323
1808 2 5.41467 7.21956 23.4636 -7.00788
2058 2 3.60978 9.02445 23.4636 -7.0363
2809 2 5.41467 10.8293 23.4636 -6.98271
3311 3 3.60978 10.8293 25.2684 -6.54812
3819 2 5.41467 10.8293 27.0733 -7.10449
43 3 10.8293 9.02445 23.4636 -6.52197
305 3 9.02445 10.8293 27.0733 -6.32166
297 1 10.8293 10.8293 25.2684 -8.34211
1312 3 7.21956 7.21956 25.2684 -6.64784
1562 2 9.02445 9.02445 25.2684 -6.99349
1818 2 9.02445 7.21956 27.0733 -7.07609
1809 3 10.8293 7.21956 25.2684 -6.45292
2068 1 7.21956 9.02445 27.0733 -8.26851
2568 2 10.8293 9.02445 27.0733 -6.97254
2807 1 9.02445 7.21956 23.4636 -8.40559
3058 3 7.21956 9.02445 23.4636 -6.59224
3811 2 7.21956 10.8293 25.2684 -7.03409
3810 3 9.02445 10.8293 23.4636 -6.5483
812 2 14.4391 10.8293 25.2684 -6.98856
811 3 12.6342 10.8293 23.4636 -6.59012
758 3 12.6342 10.8293 27.0733 -6.35352
1059 1 14.4391 9.02445 23.4636 -8.19573
2059 2 12.6342 9.02445 25.2684 -6.97688
2317 1 12.6342 7.21956 27.0733 -8.01036
2311 1 14.4391 7.21956 25.2684 -8.06806
3068 1 14.4391 9.02445 27.0733 -8.24323
3809 1 12.6342 7.21956 23.4636 -8.00428
810 3 16.244 7.21956 23.4636 -6.58013
1321 2 16.244 10.8293 27.0733 -7.03825
1811 3 16.244 10.8293 23.4636 -6.72131
2562 2 16.244 9.02445 25.2684 -7.03353
2817 3 16.244 7.21956 27.0733 -6.60543
1313 3 0 14.4391 25.2684 -6.41243
1821 3 1.80489 14.4391 27.0733 -6.5166
2060 1 0 12.6342 23.4636 -8.26766
2810 3 1.80489 14.4391 23.4636 -6.36873
3059 2 1.80489 12.6342 25.2684 -6.88556
3568 3 0 12.6342 27.0733 -6.48892
53 1 3.60978 12.6342 27.0733 -8.15621
1812 1 3.60978 14.4391 25.2684 -8.03568
2320 1 5.41467 14.4391 27.0733 -7.96301
3060 3 3.60978 12.6342 23.4636 -6.35355
3562 2 5.41467 12.6342 25.2684 -7.05071
3812 1 5.41467 14.4391 23.4636 -7.9452
555 1 7.21956 12.6342 27.0733 -8.00174
45 1 9.02445 12.6342 25.2684 -8.03526
44 1 7.21956 12.6342 23.4636 -8.1485
813 2 9.02445 14.4391 23.4636 -7.11893
1070 1 10.8293 12.6342 27.0733 -8.06021
1060 2 10.8293 12.6342 23.4636 -7.02662
2312 1 7.21956 14.4391 25.2684 -7.83611
2820 2 9.02445 14.4391 27.0733 -7.07908
2811 1 10.8293 14.4391 25.2684 -7.88766
515 2 12.6342 12.6342 25.2684 -7.01309
1571 1 14.4391 12.6342 27.0733 -8.26451
1813 1 12.6342 14.4391 23.4636 -8.24046
2061 3 14.4391 12.6342 23.4636 -6.68608
3320 1 12.6342 14.4391 27.0733 -8.15152
3312 3 14.4391 14.4391 25.2684 -6.58673
1061 3 16.244 12.6342 25.2684 -6.61066
2812 2 16.244 14.4391 23.4636 -7.05244
3822 3 16.244 14.4391 27.0733 -6.47947
1563 1 1.80489 16.244 25.2684 -8.43932
2071 2 0 16.244 27.0733 -7.02515
3061 3 0 16.244 23.4636 -6.36043
46 2 3.60978 16.244 23.4636 -6.98731