ITEM: TIMESTEP
0
ITEM: NUMBER OF ATOMS
4000
ITEM: BOX BOUNDS pp pp pp
0.0000000000000000e+00 3.6167240000000000e+01
0.0000000000000000e+00 3.6167240000000000e+01
0.0000000000000000e+00 3.6167240000000000e+01
ITEM: ATOMS id type x y z c_peratom
267 3 0 0 0 -6.3125
516 3 1.80836 1.80836 0 -6.2263
767 1 1.80836 0 1.80836 -8.13347
1016 2 0 1.80836 1.80836 -7.02897
1267 1 0 0 3.61672 -8.2077
1268 1 3.61672 0 0 -7.94545
1270 1 0 3.61672 0 -8.25761
1517 2 1.80836 1.80836 3.61672 -7.06371
1768 1 1.80836 3.61672 1.80836 -8.07214
2017 1 3.61672 1.80836 1.80836 -8.08084
2266 2 3.61672 0 3.61672 -7.0522
2268 1 0 3.61672 3.61672 -8.23537
2269 1 3.61672 3.61672 0 -8.02913
3268 3 3.61672 3.61672 3.61672 -6.37963
1518 1 5.42509 1.80836 0 -8.01263
1767 1 5.42509 0 1.80836 -8.19439
2517 3 5.42509 1.80836 3.61672 -6.38742
2767 3 5.42509 3.61672 1.80836 -6.41888
270 1 7.23345 3.61672 3.61672 -8.29484
2267 3 7.23345 0 0 -6.36366
2518 1 9.04181 1.80836 0 -8.1949
2766 1 9.04181 0 1.80836 -8.19288
3017 2 7.23345 1.80836 1.80836 -6.94961
3266 3 7.23345 0 3.61672 -6.41782
3269 3 7.23345 3.61672 0 -6.42028
3517 2 9.04181 1.80836 3.61672 -7.03022
3768 2 9.04181 3.61672 1.80836 -7.01571
1 2 10.8502 1.80836 1.80836 -7.04202
268 2 10.8502 0 3.61672 -7.16318
271 3 10.8502 3.61672 0 -6.56439
517 1 12.6585 1.80836 3.61672 -8.09435
769 2 12.6585 3.61672 1.80836 -7.10213
1271 3 10.8502 3.61672 3.61672 -6.60634
3267 3 10.8502 0 0 -6.59702
3518 3 12.6585 1.80836 0 -6.59493
3767 2 12.6585 0 1.80836 -7.11741
269 1 14.4669 0 0 -8.13464
376 1 18.0836 0 0 -8.17571
518 1 16.2753 1.80836 0 -7.90061
768 2 16.2753 0 1.80836 -7.10902
1017 1 14.4669 1.80836 1.80836 -8.05705
1126 1 18.0836 1.80836 1.80836 -8.02772
1379 3 18.0836 3.61672 0 -6.33846
1376 1 18.0836 0 3.61672 -8.07099
1269 2 14.4669 0 3.61672 -7.10202
1272 2 14.4669 3.61672 0 -7.04055
1519 2 16.2753 1.80836 3.61672 -7.02101
1769 1 16.2753 3.61672 1.80836 -8.12648
2270 2 14.4669 3.61672 3.61672 -7.08237
2393 2 18.0836 3.61672 3.61672 -7.06148
1520 1 1.80836 5.42509 0 -7.98088
2018 3 0 5.42509 1.80836 -6.26312
2519 3 1.80836 5.42509 3.61672 -6.21318
3018 2 3.61672 5.42509 1.80836 -7.03904
2520 2 5.42509 5.42509 0 -7.04027
3519 2 5.42509 5.42509 3.61672 -7.01794
2 3 7.23345 5.42509 1.80836 -6.46582
519 3 9.04181 5.42509 3.61672 -6.46947
3520 3 9.04181 5.42509 0 -6.37324
520 3 12.6585 5.42509 0 -6.64457
1018 2 10.8502 5.42509 1.80836 -6.99401
1521 2 12.6585 5.42509 3.61672 -7.12488
1522 1 16.2753 5.42509 0 -8.16973
2002 2 18.0836 5.42509 1.80836 -7.07989
2019 3 14.4669 5.42509 1.80836 -6.67042
2521 3 16.2753 5.42509 3.61672 -6.60984
3 1 3.61672 9.04181 1.80836 -7.97991
272 1 3.61672 7.23345 3.61672 -8.06375
2271 1 0 7.23345 0 -8.25284
2522 3 1.80836 9.04181 0 -6.33286
2768 1 1.80836 7.23345 1.80836 -7.95476
3019 3 0 9.04181 1.80836 -6.35269
3271 1 3.61672 7.23345 0 -8.09004
3270 1 0 7.23345 3.61672 -8.1879
3521 1 1.80836 9.04181 3.61672 -7.9753
521 1 5.42509 9.04181 3.61672 -8.17547
3522 3 5.42509 9.04181 0 -6.34743
3769 2 5.42509 7.23345 1.80836 -7.05408
273 1 7.23345 7.23345 0 -8.18236
522 3 9.04181 9.04181 0 -6.42388
770 1 9.04181 7.23345 1.80836 -8.2175
1019 2 7.23345 9.04181 1.80836 -7.03514
1273 1 7.23345 7.23345 3.61672 -8.25884
1523 2 9.04181 9.04181 3.61672 -7.00774
1274 3 10.8502 7.23345 0 -6.49194
1524 2 12.6585 9.04181 0 -7.10956
1770 3 12.6585 7.23345 1.80836 -6.68999
2020 2 10.8502 9.04181 1.80836 -7.06366
2272 1 10.8502 7.23345 3.61672 -8.213
2523 2 12.6585 9.04181 3.61672 -7.03192
2273 2 14.4669 7.23345 0 -7.03035
2396 1 18.0836 7.23345 0 -8.19415
2524 3 16.2753 9.04181 0 -6.68346
2769 2 16.2753 7.23345 1.80836 -7.04135
3144 2 18.0836 9.04181 1.80836 -7.11913
3020 3 14.4669 9.04181 1.80836 -6.70435
3395 1 18.0836 7.23345 3.61672 -8.46714
3272 2 14.4669 7.23345 3.61672 -7.05837
3523 3 16.2753 9.04181 3.61672 -6.5791
4 1 0 12.6585 1.80836 -8.49494
274 2 0 10.8502 3.61672 -6.95722
275 1 3.61672 10.8502 0 -8.25048
523 3 1.80836 12.6585 3.61672 -6.52273
1020 3 3.61672 12.6585 1.80836 -6.58084
1275 1 3.61672 10.8502 3.61672 -8.14239
3273 3 0 10.8502 0 -6.47965
3524 2 1.80836 12.6585 0 -6.93665
3770 3 1.80836 10.8502 1.80836 -6.36024
524 2 5.42509 12.6585 0 -6.97286
771 2 5.42509 10.8502 1.80836 -7.08965
1525 2 5.42509 12.6585 3.61672 -7.02685
1276 2 7.23345 10.8502 0 -7.00631
1526 1 9.04181 12.6585 0 -7.99528
1771 1 9.04181 10.8502 1.80836 -8.23871
2021 3 7.23345 12.6585 1.80836 -6.53273
2274 3 7.23345 10.8502 3.61672 -6.54972
2525 3 9.04181 12.6585 3.61672 -6.46604
2275 2 10.8502 10.8502 0 -7.06751
2526 1 12.6585 12.6585 0 -8.20303
2770 3 12.6585 10.8502 1.80836 -6.52911
3021 2 10.8502 12.6585 1.80836 -6.98377
3274 1 10.8502 10.8502 3.61672 -8.25518
3525 1 12.6585 12.6585 3.61672 -8.26916
5 3 14.4669 12.6585 1.80836 -6.43404
129 2 18.0836 12.6585 1.80836 -7.08277
383 2 18.0836 10.8502 3.61672 -7.03558
276 1 14.4669 10.8502 3.61672 -8.21211
525 2 16.2753 12.6585 3.61672 -6.92531
3398 2 18.0836 10.8502 0 -7.11167
3275 2 14.4669 10.8502 0 -7.01905
3526 2 16.2753 12.6585 0 -7.02697
3771 2 16.2753 10.8502 1.80836 -7.10384
314 1 3.61672 18.0836 3.61672 -8.21596
277 1 0 14.4669 0 -8.20985
526 3 1.80836 16.2753 0 -6.48495
772 3 1.80836 14.4669 1.80836 -6.50079
1021 1 0 16.2753 1.80836 -8.27982
1278 2 3.61672 14.4669 0 -6.95112
1277 2 0 14.4669 3.61672 -6.92549
1527 3 1.80836 16.2753 3.61672 -6.40395
2022 3 3.61672 16.2753 1.80836 -6.56431
2328 3 0 18.0836 0 -6.55197
2276 3 3.61672 14.4669 3.61672 -6.55679
2828 3 1.80836 18.0836 1.80836 -6.54877
3329 2 3.61672 18.0836 0 -7.05479
3328 2 0 18.0836 3.61672 -6.97073
1528 3 5.42509 16.2753 0 -6.40768
1772 3 5.42509 14.4669 1.80836 -6.50835
2527 1 5.42509 16.2753 3.61672 -8.18864
3829 2 5.42509 18.0836 1.80836 -7.0782
315 1 7.23345 18.0836 0 -8.1516
814 3 9.04181 18.0836 1.80836 -6.40908
1330 2 7.23345 18.0836 3.61672 -7.02753
2277 1 7.23345 14.4669 0 -8.10989
2528 2 9.04181 16.2753 0 -7.11588
2771 1 9.04181 14.4669 1.80836 -8.11971
3022 1 7.23345 16.2753 1.80836 -8.04729
3276 2 7.23345 14.4669 3.61672 -6.96137
3527 3 9.04181 16.2753 3.61672 -6.55204
6 1 10.8502 16.2753 1.80836 -8.27993
278 3 10.8502 14.4669 3.61672 -6.39639
527 1 12.6585 16.2753 3.61672 -8.33989
1331 2 10.8502 18.0836 0 -7.07091
1830 3 12.6585 18.0836 1.80836 -6.45232
2329 2 10.8502 18.0836 3.61672 -6.91521
3277 2 10.8502 14.4669 0 -7.09001
3528 2 12.6585 16.2753 0 -7.00734
3772 3 12.6585 14.4669 1.80836 -6.37805
386 3 18.0836 14.4669 0 -6.41478
279 1 14.4669 14.4669 0 -7.99505
528 1 16.2753 16.2753 0 -7.95202
773 1 16.2753 14.4669 1.80836 -8.20197
1131 2 18.0836 16.2753 1.80836 -6.92567
1022 2 14.4669 16.2753 1.80836 -7.01466
1386 3 18.0836 14.4669 3.61672 -6.38508
1279 3 14.4669 14.4669 3.61672 -6.35646
1529 1 16.2753 16.2753 3.61672 -8.2499
2438 1 18.0836 18.0836 0 -7.95318
2330 1 14.4669 18.0836 0 -8.03755
2829 1 16.2753 18.0836 1.80836 -8.00151
3453 3 18.0836 18.0836 3.61672 -6.36208
3330 3 14.4669 18.0836 3.61672 -6.47453
775 1 0 3.61672 7.23345 -8.01229
1280 3 3.61672 3.61672 7.23345 -6.36633
1773 1 1.80836 0 5.42509 -8.11095
2023 3 0 1.80836 5.42509 -6.29296
2278 1 0 0 7.23345 -8.22679
2529 3 1.80836 1.80836 7.23345 -6.25378
2774 1 1.80836 3.61672 5.42509 -8.07012
2773 2 3.61672 0 7.23345 -7.08515
3023 1 3.61672 1.80836 5.42509 -8.2559
2772 2 5.42509 0 5.42509 -7.00596
3024 2 5.42509 1.80836 7.23345 -6.99006
3775 2 5.42509 3.61672 5.42509 -7.00463
7 1 7.23345 1.80836 5.42509 -8.21393
776 2 9.04181 3.61672 5.42509 -7.00778
1775 3 7.23345 3.61672 7.23345 -6.4561
3278 1 7.23345 0 7.23345 -8.02307
3529 3 9.04181 1.80836 7.23345 -6.35325
3773 1 9.04181 0 5.42509 -8.14499
8 2 12.6585 1.80836 7.23345 -7.09185
774 2 12.6585 0 5.42509 -7.13291
1023 1 10.8502 1.80836 5.42509 -8.21326
1776 2 12.6585 3.61672 5.42509 -7.1269
2279 2 10.8502 3.61672 7.23345 -7.02882
3774 3 10.8502 0 7.23345 -6.44147
280 2 14.4669 0 7.23345 -7.13779
529 1 16.2753 1.80836 7.23345 -8.14687
884 2 18.0836 3.61672 7.23345 -7.03916
1774 2 16.2753 0 5.42509 -7.11502
2024 1 14.4669 1.80836 5.42509 -8.09194
2007 1 18.0836 1.80836 5.42509 -8.11637
2403 3 18.0836 0 7.23345 -6.32859
2776 1 14.4669 3.61672 7.23345 -8.11818
2775 3 16.2753 3.61672 5.42509 -6.50251
9 1 3.61672 5.42509 5.42509 -8.25877
1024 2 1.80836 5.42509 7.23345 -6.99227
3025 1 0 5.42509 5.42509 -8.12172
1530 1 5.42509 5.42509 7.23345 -8.32867
1025 2 7.23345 5.42509 5.42509 -6.95142
2025 1 9.04181 5.42509 7.23345 -8.22885
2026 1 10.8502 5.42509 5.42509 -8.17041
2530 2 12.6585 5.42509 7.23345 -7.10252
3150 2 18.0836 5.42509 5.42509 -7.04803
3027 2 16.2753 5.42509 7.23345 -7.09687
3026 1 14.4669 5.42509 5.42509 -8.25235
10 1 0 9.04181 5.42509 -8.17744
1026 2 3.61672 9.04181 5.42509 -6.96507
3279 2 0 7.23345 7.23345 -7.01001
3530 1 1.80836 9.04181 7.23345 -8.14865
3777 3 3.61672 7.23345 7.23345 -6.39885
3776 3 1.80836 7.23345 5.42509 -6.30253
11 1 5.42509 9.04181 7.23345 -8.43445
777 3 5.42509 7.23345 5.42509 -6.33778
281 1 7.23345 7.23345 7.23345 -8.22904
530 3 9.04181 9.04181 7.23345 -6.51085
1777 3 9.04181 7.23345 5.42509 -6.36611
2027 3 7.23345 9.04181 5.42509 -6.41811
778 1 10.8502 7.23345 7.23345 -8.20793
1027 1 12.6585 9.04181 7.23345 -8.24981
2777 2 12.6585 7.23345 5.42509 -7.13681
3028 2 10.8502 9.04181 5.42509 -6.99278
12 1 14.4669 9.04181 5.42509 -8.13229
135 3 18.0836 9.04181 5.42509 -6.56175
1281 2 14.4669 7.23345 7.23345 -7.06053
1531 3 16.2753 9.04181 7.23345 -6.43689
3404 3 18.0836 7.23345 7.23345 -6.46254
3778 2 16.2753 7.23345 5.42509 -7.01548
779 1 1.80836 10.8502 5.42509 -8.1596
1028 2 0 12.6585 5.42509 -6.94031
1778 3 0 10.8502 7.23345 -6.44892
2029 2 3.61672 12.6585 5.42509 -7.00323
2028 3 1.80836 12.6585 7.23345 -6.62454
2280 3 3.61672 10.8502 7.23345 -6.49207
1779 2 5.42509 10.8502 5.42509 -6.9797
2531 1 5.42509 12.6585 7.23345 -8.23772
2779 3 7.23345 10.8502 7.23345 -6.54159
2778 3 9.04181 10.8502 5.42509 -6.53112
3030 2 9.04181 12.6585 7.23345 -7.00228
3029 1 7.23345 12.6585 5.42509 -8.30477
13 3 10.8502 12.6585 5.42509 -6.48237
3280 3 10.8502 10.8502 7.23345 -6.65798
3531 2 12.6585 12.6585 7.23345 -6.99579
3779 2 12.6585 10.8502 5.42509 -6.99598
14 1 16.2753 12.6585 7.23345 -8.27817
780 1 16.2753 10.8502 5.42509 -8.29089
1138 3 18.0836 12.6585 5.42509 -6.50251
1029 3 14.4669 12.6585 5.42509 -6.39825
1887 3 18.0836 10.8502 7.23345 -6.43295
3780 3 14.4669 10.8502 7.23345 -6.50864
326 1 0 18.0836 7.23345 -8.04222
282 3 0 14.4669 7.23345 -6.5011
531 3 1.80836 16.2753 7.23345 -6.43683
821 2 3.61672 18.0836 7.23345 -7.06848
781 2 3.61672 14.4669 7.23345 -7.02955
1780 3 1.80836 14.4669 5.42509 -6.52629
2030 1 0 16.2753 5.42509 -8.21013
3031 1 3.61672 16.2753 5.42509 -8.29069
3835 3 1.80836 18.0836 5.42509 -6.32466
820 2 5.42509 18.0836 5.42509 -7.14788
1030 2 5.42509 16.2753 7.23345 -7.03355
2780 2 5.42509 14.4669 5.42509 -7.03904
15 3 7.23345 16.2753 5.42509 -6.62485
1342 3 7.23345 18.0836 7.23345 -6.61807
1282 1 7.23345 14.4669 7.23345 -8.14664
1532 3 9.04181 16.2753 7.23345 -6.5194
1836 2 9.04181 18.0836 5.42509 -7.07554
3781 2 9.04181 14.4669 5.42509 -6.964
782 1 12.6585 14.4669 5.42509 -8.17325
1031 3 10.8502 16.2753 5.42509 -6.49876
1837 2 10.8502 18.0836 7.23345 -6.91856
1781 1 10.8502 14.4669 7.23345 -8.2351
2031 1 12.6585 16.2753 7.23345 -8.06638
2835 3 12.6585 18.0836 5.42509 -6.50443
451 1 18.0836 18.0836 7.23345 -8.00802
391 2 18.0836 14.4669 7.23345 -7.07791
1782 3 16.2753 14.4669 5.42509 -6.42411
2032 2 14.4669 16.2753 5.42509 -6.93332
2014 1 18.0836 16.2753 5.42509 -8.09945
2341 2 14.4669 18.0836 7.23345 -7.05757
2281 2 14.4669 14.4669 7.23345 -7.03955
2532 1 16.2753 16.2753 7.23345 -8.07009
3836 3 16.2753 18.0836 5.42509 -6.52627
251 1 3.61672 0 10.8502 -7.99331
253 1 0 3.61672 10.8502 -7.94198
16 1 0 1.80836 12.6585 -8.04726
785 3 1.80836 3.61672 12.6585 -6.24389
1032 1 3.61672 1.80836 12.6585 -8.1209
1285 1 3.61672 3.61672 10.8502 -8.00879
1284 1 1.80836 3.61672 9.04181 -8.0168
2781 2 1.80836 0 9.04181 -7.08504
3032 1 0 1.80836 9.04181 -7.95886
3281 1 0 0 10.8502 -8.0705
3533 1 3.61672 1.80836 9.04181 -8.16469
3532 3 1.80836 1.80836 10.8502 -6.13795
3782 3 1.80836 0 12.6585 -6.23597
532 1 5.42509 1.80836 10.8502 -8.09688
783 2 5.42509 0 12.6585 -7.11339
1785 3 5.42509 3.61672 12.6585 -6.46977
1784 3 5.42509 3.61672 9.04181 -6.36797
3282 2 5.42509 0 9.04181 -7.10058
17 1 7.23345 1.80836 9.04181 -8.19304
1283 2 7.23345 0 10.8502 -7.0052
1533 2 9.04181 1.80836 10.8502 -6.97338
1783 3 9.04181 0 12.6585 -6.55341
2033 3 7.23345 1.80836 12.6585 -6.61939
2284 2 7.23345 3.61672 10.8502 -6.9901
2283 3 9.04181 3.61672 9.04181 -6.47395
2783 1 9.04181 3.61672 12.6585 -8.13355
3783 1 9.04181 0 9.04181 -8.16114
252 2 12.6585 0 9.04181 -7.09924
533 1 10.8502 1.80836 9.04181 -8.16851
2282 3 10.8502 0 10.8502 -6.43039
2533 1 12.6585 1.80836 10.8502 -8.09927
2784 2 12.6585 3.61672 9.04181 -7.15177
2782 2 12.6585 0 12.6585 -7.10558
3033 2 10.8502 1.80836 12.6585 -7.01725
3284 1 10.8502 3.61672 10.8502 -8.20199
3785 3 12.6585 3.61672 12.6585 -6.40872
254 2 14.4669 3.61672 10.8502 -7.06561
394 3 18.0836 3.61672 10.8502 -6.51982
141 2 18.0836 1.80836 12.6585 -6.94982
18 1 14.4669 1.80836 12.6585 -8.10831
786 1 16.2753 3.61672 12.6585 -8.04227
784 3 16.2753 0 9.04181 -6.4576
1033 2 14.4669 1.80836 9.04181 -7.04832
3157 2 18.0836 1.80836 9.04181 -6.92574
3406 1 18.0836 0 10.8502 -8.17723
3285 2 16.2753 3.61672 9.04181 -7.14495
3283 1 14.4669 0 10.8502 -8.17938
3534 1 16.2753 1.80836 10.8502 -8.0781
3784 3 16.2753 0 12.6585 -6.37529
534 1 1.80836 5.42509 10.8502 -7.98817
1034 1 0 5.42509 12.6585 -8.20294
1534 3 0 5.42509 9.04181 -6.34887
2035 2 3.61672 5.42509 12.6585 -6.93889
2034 2 3.61672 5.42509 9.04181 -7.03931
1535 1 5.42509 5.42509 10.8502 -8.19678
2535 2 9.04181 5.42509 10.8502 -7.01307
2534 2 7.23345 5.42509 9.04181 -7.00303
3034 1 7.23345 5.42509 12.6585 -8.18733
19 2 10.8502 5.42509 12.6585 -6.96882
3035 3 10.8502 5.42509 9.04181 -6.50532
3535 3 12.6585 5.42509 10.8502 -6.54057
535 2 16.2753 5.42509 10.8502 -7.03864
1144 1 18.0836 5.42509 12.6585 -8.18989
1035 2 14.4669 5.42509 12.6585 -6.97267
1643 1 18.0836 5.42509 9.04181 -8.23254
3536 2 14.4669 5.42509 9.04181 -7.1015
20 1 0 9.04181 9.04181 -8.29404
536 2 3.61672 9.04181 9.04181 -7.03525
1286 3 0 7.23345 10.8502 -6.42322
1536 3 1.80836 9.04181 10.8502 -6.58444
1786 3 1.80836 7.23345 12.6585 -6.50889
2036 2 0 9.04181 12.6585 -6.9969
2285 1 3.61672 7.23345 10.8502 -8.24153
3036 3 3.61672 9.04181 12.6585 -6.63548
3786 1 1.80836 7.23345 9.04181 -8.13236
255 2 5.42509 7.23345 9.04181 -7.04472
2536 2 5.42509 9.04181 10.8502 -6.98549
2785 3 5.42509 7.23345 12.6585 -6.56006
21 3 7.23345 9.04181 12.6585 -6.48852
787 3 9.04181 7.23345 9.04181 -6.45237
1036 3 7.23345 9.04181 9.04181 -6.47664
3286 2 7.23345 7.23345 10.8502 -6.98784
3537 1 9.04181 9.04181 10.8502 -8.32563
3787 1 9.04181 7.23345 12.6585 -8.14863
256 3 10.8502 7.23345 10.8502 -6.50529
537 3 12.6585 9.04181 10.8502 -6.47448
788 3 12.6585 7.23345 12.6585 -6.45668
1037 1 10.8502 9.04181 12.6585 -8.25525
1287 3 12.6585 7.23345 9.04181 -6.52161
1537 2 10.8502 9.04181 9.04181 -6.86886
145 1 18.0836 9.04181 9.04181 -8.12083
1395 3 18.0836 7.23345 10.8502 -6.30786
1288 1 14.4669 7.23345 10.8502 -8.23558
1538 1 16.2753 9.04181 10.8502 -8.12066
1788 3 16.2753 7.23345 12.6585 -6.35594
1787 1 16.2753 7.23345 9.04181 -8.10261
2145 2 18.0836 9.04181 12.6585 -6.99943
2038 1 14.4669 9.04181 12.6585 -8.20457
2037 2 14.4669 9.04181 9.04181 -6.99199
22 2 3.61672 12.6585 12.6585 -7.03219
2287 3 0 10.8502 10.8502 -6.4994
2286 2 1.80836 10.8502 9.04181 -6.94599
2538 1 1.80836 12.6585 10.8502 -8.18571
2537 2 0 12.6585 9.04181 -6.89113
2786 2 1.80836 10.8502 12.6585 -7.061
3038 3 3.61672 12.6585 9.04181 -6.50552
3037 1 0 12.6585 12.6585 -8.46703
3287 2 3.61672 10.8502 10.8502 -7.0532
2787 3 5.42509 10.8502 9.04181 -6.5567
3538 3 5.42509 12.6585 10.8502 -6.54032
3788 3 5.42509 10.8502 12.6585 -6.62401
257 3 7.23345 10.8502 10.8502 -6.50696
538 3 9.04181 12.6585 10.8502 -6.44685
789 3 9.04181 10.8502 12.6585 -6.32041
1038 1 7.23345 12.6585 12.6585 -8.39692
3288 3 9.04181 10.8502 9.04181 -6.51835
3539 2 7.23345 12.6585 9.04181 -6.98206
23 3 10.8502 12.6585 9.04181 -6.54899
1289 1 10.8502 10.8502 10.8502 -8.2637
1539 3 12.6585 12.6585 10.8502 -6.51527
1789 2 12.6585 10.8502 12.6585 -7.03093
2039 1 10.8502 12.6585 12.6585 -8.07554
3789 2 12.6585 10.8502 9.04181 -7.08862
258 2 16.2753 10.8502 9.04181 -6.9628
539 3 14.4669 12.6585 9.04181 -6.58027
2256 2 18.0836 10.8502 10.8502 -7.09781
2288 2 14.4669 10.8502 10.8502 -7.03787
2662 2 18.0836 12.6585 9.04181 -7.0043
2539 1 16.2753 12.6585 10.8502 -8.00914
2788 3 16.2753 10.8502 12.6585 -6.33909
3162 1 18.0836 12.6585 12.6585 -8.10789
3039 1 14.4669 12.6585 12.6585 -8.07317
259 1 3.61672 14.4669 10.8502 -8.19463
24 2 0 16.2753 12.6585 -7.01515
829 1 1.80836 18.0836 9.04181 -8.22443
790 2 1.80836 14.4669 9.04181 -6.96385
1040 3 3.61672 16.2753 12.6585 -6.51968
1039 1 0 16.2753 9.04181 -8.2905
1251 1 0 18.0836 10.8502 -8.09628
1540 3 3.61672 16.2753 9.04181 -6.50798
1845 3 1.80836 18.0836 12.6585 -6.6825
2344 2 3.61672 18.0836 10.8502 -6.9484
3289 3 0 14.4669 10.8502 -6.54423
3540 3 1.80836 16.2753 10.8502 -6.49972
3790 2 1.80836 14.4669 12.6585 -7.0324
540 1 5.42509 16.2753 10.8502 -7.99469
791 1 5.42509 14.4669 12.6585 -8.19389
1252 2 5.42509 18.0836 9.04181 -7.06657
1290 1 5.42509 14.4669 9.04181 -8.10145
2844 1 5.42509 18.0836 12.6585 -8.20129
1291 2 7.23345 14.4669 10.8502 -7.0158
1541 2 9.04181 16.2753 10.8502 -7.07738
1846 3 9.04181 18.0836 9.04181 -6.42846
1791 3 9.04181 14.4669 12.6585 -6.42552
1790 2 9.04181 14.4669 9.04181 -7.04203
2041 2 7.23345 16.2753 12.6585 -7.00122
2040 1 7.23345 16.2753 9.04181 -8.17811
3344 2 7.23345 18.0836 10.8502 -7.08326
3845 1 9.04181 18.0836 12.6585 -7.9811
330 1 10.8502 18.0836 10.8502 -7.93805
830 3 12.6585 18.0836 12.6585 -6.21749
2345 1 12.6585 18.0836 9.04181 -7.95567
2290 1 10.8502 14.4669 10.8502 -8.22273
2289 2 12.6585 14.4669 9.04181 -7.07279
2541 2 12.6585 16.2753 10.8502 -7.07183
2540 1 10.8502 16.2753 9.04181 -7.99645
2789 2 12.6585 14.4669 12.6585 -7.07889
3040 1 10.8502 16.2753 12.6585 -8.10185
149 1 18.0836 16.2753 12.6585 -8.07756
25 1 14.4669 16.2753 12.6585 -8.05487
1149 1 18.0836 16.2753 9.04181 -8.08314
1253 1 14.4669 18.0836 10.8502 -7.98999
1454 2 18.0836 18.0836 10.8502 -7.09764
1847 1 16.2753 18.0836 12.6585 -8.03575
2845 3 16.2753 18.0836 9.04181 -6.45708
2790 1 16.2753 14.4669 9.04181 -7.99598
3041 1 14.4669 16.2753 9.04181 -8.00451
3414 2 18.0836 14.4669 10.8502 -7.06499
3290 2 14.4669 14.4669 10.8502 -7.06947
3541 3 16.2753 16.2753 10.8502 -6.28242
3791 1 16.2753 14.4669 12.6585 -7.96179
260 1 0 0 14.4669 -8.23116
541 1 1.80836 1.80836 14.4669 -7.92655
792 1 1.80836 0 16.2753 -8.07094
1041 2 0 1.80836 16.2753 -7.04115
1298 3 0 0 18.0836 -6.50041
1293 2 0 3.61672 14.4669 -7.04978
1292 2 3.61672 0 14.4669 -7.00783
1548 3 1.80836 1.80836 18.0836 -6.42236
1793 1 1.80836 3.61672 16.2753 -7.99705
2042 1 3.61672 1.80836 16.2753 -8.10997
2300 2 0 3.61672 18.0836 -7.12865
2298 2 3.61672 0 18.0836 -6.96742
2292 2 3.61672 3.61672 14.4669 -7.08543
3300 1 3.61672 3.61672 18.0836 -8.18614
1542 2 5.42509 1.80836 14.4669 -7.1168
1792 3 5.42509 0 16.2753 -6.54244
2549 2 5.42509 1.80836 18.0836 -7.02147
2792 2 5.42509 3.61672 16.2753 -7.09841
286 1 7.23345 3.61672 18.0836 -8.16841
2291 2 7.23345 0 14.4669 -7.08268
2542 3 9.04181 1.80836 14.4669 -6.60532
2791 2 9.04181 0 16.2753 -7.03539
3042 3 7.23345 1.80836 16.2753 -6.61412
3298 1 7.23345 0 18.0836 -8.35899
3292 2 7.23345 3.61672 14.4669 -7.00532
3549 3 9.04181 1.80836 18.0836 -6.41235
3793 2 9.04181 3.61672 16.2753 -6.9559
262 1 10.8502 3.61672 14.4669 -8.20862
284 1 10.8502 0 18.0836 -8.34298
26 1 10.8502 1.80836 16.2753 -8.22959
502 3 12.6585 1.80836 18.0836 -6.55575
794 2 12.6585 3.61672 16.2753 -7.07887
1302 2 10.8502 3.61672 18.0836 -6.99599
3291 2 10.8502 0 14.4669 -7.05285
3542 2 12.6585 1.80836 14.4669 -7.05723
3792 2 12.6585 0 16.2753 -7.0495
261 3 14.4669 0 14.4669 -6.48605
401 1 18.0836 0 14.4669 -8.1188
542 2 16.2753 1.80836 14.4669 -6.98849
793 1 16.2753 0 16.2753 -8.05729
1151 2 18.0836 1.80836 16.2753 -7.00709
1042 1 14.4669 1.80836 16.2753 -8.12693
1407 1 18.0836 0 18.0836 -7.94335
1402 3 18.0836 3.61672 14.4669 -6.39449
1300 1 14.4669 0 18.0836 -8.08013
1294 1 14.4669 3.61672 14.4669 -8.0058
1550 1 16.2753 1.80836 18.0836 -8.07742
1794 3 16.2753 3.61672 16.2753 -6.37703
2410 3 18.0836 3.61672 18.0836 -6.28875
2302 2 14.4669 3.61672 18.0836 -7.05581
1543 1 1.80836 5.42509 14.4669 -8.1394
2043 2 0 5.42509 16.2753 -7.04823
2551 2 1.80836 5.42509 18.0836 -7.04202
3043 2 3.61672 5.42509 16.2753 -7.09886
2543 3 5.42509 5.42509 14.4669 -6.59531
3551 2 5.42509 5.42509 18.0836 -7.0587
27 1 7.23345 5.42509 16.2753 -8.2402
504 1 9.04181 5.42509 18.0836 -8.11426
3543 3 9.04181 5.42509 14.4669 -6.47881
543 1 12.6585 5.42509 14.4669 -8.18706
1043 3 10.8502 5.42509 16.2753 -6.45979
1552 3 12.6585 5.42509 18.0836 -6.57139
1544 2 16.2753 5.42509 14.4669 -6.98226
2152 1 18.0836 5.42509 16.2753 -8.08842
2044 1 14.4669 5.42509 16.2753 -8.19808
2553 2 16.2753 5.42509 18.0836 -6.99281
288 2 3.61672 7.23345 18.0836 -7.07508
28 1 3.61672 9.04181 16.2753 -8.1292
2293 3 0 7.23345 14.4669 -6.51405
2544 3 1.80836 9.04181 14.4669 -6.59829
2793 1 1.80836 7.23345 16.2753 -8.13452
3044 2 0 9.04181 16.2753 -6.94488
3302 3 0 7.23345 18.0836 -6.46224
3293 2 3.61672 7.23345 14.4669 -7.02168
3553 1 1.80836 9.04181 18.0836 -8.19017
506 1 5.42509 9.04181 18.0836 -8.13948
3544 3 5.42509 9.04181 14.4669 -6.59879
3794 2 5.42509 7.23345 16.2753 -7.06099
263 3 7.23345 7.23345 14.4669 -6.47186
544 1 9.04181 9.04181 14.4669 -8.35425
795 2 9.04181 7.23345 16.2753 -7.02815
1044 3 7.23345 9.04181 16.2753 -6.56298
1304 2 7.23345 7.23345 18.0836 -6.97669
1554 2 9.04181 9.04181 18.0836 -6.95372
1295 2 10.8502 7.23345 14.4669 -6.9887
1545 3 12.6585 9.04181 14.4669 -6.4222
1795 3 12.6585 7.23345 16.2753 -6.39348
2045 2 10.8502 9.04181 16.2753 -6.94931
2304 1 10.8502 7.23345 18.0836 -8.26519
2555 1 12.6585 9.04181 18.0836 -8.28477
2262 1 18.0836 7.23345 14.4669 -7.94809
2294 2 14.4669 7.23345 14.4669 -6.93022
2545 1 16.2753 9.04181 14.4669 -8.10368
2794 1 16.2753 7.23345 16.2753 -7.92407
3169 3 18.0836 9.04181 16.2753 -6.29809
3045 1 14.4669 9.04181 16.2753 -8.15508
3427 2 18.0836 7.23345 18.0836 -7.06712
3304 3 14.4669 7.23345 18.0836 -6.38295
3555 1 16.2753 9.04181 18.0836 -8.05031
264 2 3.61672 10.8502 14.4669 -6.98054
290 3 0 10.8502 18.0836 -6.53955
29 2 0 12.6585 16.2753 -7.05737
508 2 1.80836 12.6585 18.0836 -7.03649
1045 3 3.61672 12.6585 16.2753 -6.40889
1306 1 3.61672 10.8502 18.0836 -8.10142
3294 2 0 10.8502 14.4669 -7.02189
3545 3 1.80836 12.6585 14.4669 -6.60722
3795 1 1.80836 10.8502 16.2753 -8.24176
545 3 5.42509 12.6585 14.4669 -6.55195
796 3 5.42509 10.8502 16.2753 -6.52719
1556 3 5.42509 12.6585 18.0836 -6.46313
1296 3 7.23345 10.8502 14.4669 -6.46174
1546 1 9.04181 12.6585 14.4669 -8.33256
1796 3 9.04181 10.8502 16.2753 -6.58791
2046 2 7.23345 12.6585 16.2753 -6.96206
2306 2 7.23345 10.8502 18.0836 -7.017
2557 2 9.04181 12.6585 18.0836 -7.05946
2295 2 10.8502 10.8502 14.4669 -6.95625
2546 1 12.6585 12.6585 14.4669 -8.06295
2795 3 12.6585 10.8502 16.2753 -6.38066
3046 3 10.8502 12.6585 16.2753 -6.40954
3306 3 10.8502 10.8502 18.0836 -6.5023
3557 1 12.6585 12.6585 18.0836 -8.295
415 1 18.0836 10.8502 18.0836 -8.10585
292 3 14.4669 10.8502 18.0836 -6.35252
154 1 18.0836 12.6585 16.2753 -8.18817
30 2 14.4669 12.6585 16.2753 -7.02046
510 2 16.2753 12.6585 18.0836 -7.02842
3419 2 18.0836 10.8502 14.4669 -6.95924
3295 1 14.4669 10.8502 14.4669 -8.16047
3546 3 16.2753 12.6585 14.4669 -6.34956
3796 3 16.2753 10.8502 16.2753 -6.32175
265 2 0 14.4669 14.4669 -7.05593
346 2 3.61672 18.0836 18.0836 -6.96637
546 2 1.80836 16.2753 14.4669 -7.09537
797 1 1.80836 14.4669 16.2753 -8.20544
1046 3 0 16.2753 16.2753 -6.6692
1308 1 0 14.4669 18.0836 -8.28962
1297 2 3.61672 14.4669 14.4669 -6.95771
1558 3 1.80836 16.2753 18.0836 -6.52888
2047 1 3.61672 16.2753 16.2753 -8.27708
2353 2 0 18.0836 14.4669 -7.11436
2308 1 3.61672 14.4669 18.0836 -8.32252
2853 3 1.80836 18.0836 16.2753 -6.66184
3359 2 0 18.0836 18.0836 -6.98499
3353 3 3.61672 18.0836 14.4669 -6.50335
1547 3 5.42509 16.2753 14.4669 -6.41275
1797 1 5.42509 14.4669 16.2753 -8.2117
2559 3 5.42509 16.2753 18.0836 -6.3852
3854 3 5.42509 18.0836 16.2753 -6.38883
339 2 7.23345 18.0836 14.4669 -7.04251
839 1 9.04181 18.0836 16.2753 -8.03722
1346 1 7.23345 18.0836 18.0836 -7.97528
2296 2 7.23345 14.4669 14.4669 -6.98238
2547 3 9.04181 16.2753 14.4669 -6.36514
2796 3 9.04181 14.4669 16.2753 -6.4432
3047 1 7.23345 16.2753 16.2753 -8.3161
3308 3 7.23345 14.4669 18.0836 -6.48864
3559 3 9.04181 16.2753 18.0836 -6.34734
294 1 10.8502 14.4669 18.0836 -8.18212
31 1 10.8502 16.2753 16.2753 -8.11625
512 1 12.6585 16.2753 18.0836 -8.10262
1261 3 10.8502 18.0836 14.4669 -6.2463
1855 3 12.6585 18.0836 16.2753 -6.38124
2361 3 10.8502 18.0836 18.0836 -6.33936
3296 2 10.8502 14.4669 14.4669 -6.98438
3547 1 12.6585 16.2753 14.4669 -8.18247
3797 1 12.6585 14.4669 16.2753 -7.96629
266 2 14.4669 14.4669 14.4669 -7.0662
406 1 18.0836 14.4669 14.4669 -8.11244
547 2 16.2753 16.2753 14.4669 -7.07402
798 2 16.2753 14.4669 16.2753 -7.06272
1156 3 18.0836 16.2753 16.2753 -6.51863
1047 3 14.4669 16.2753 16.2753 -6.43016
1417 2 18.0836 14.4669 18.0836 -6.99758
1310 1 14.4669 14.4669 18.0836 -8.13675
1560 1 16.2753 16.2753 18.0836 -8.44494
2463 2 18.0836 18.0836 14.4669 -7.04598
2354 3 14.4669 18.0836 14.4669 -6.3813
2854 3 16.2753 18.0836 16.2753 -6.55923
3469 3 18.0836 18.0836 18.0836 -6.4557
3361 2 14.4669 18.0836 18.0836 -6.83532
285 3 3.61672 3.61672 21.7003 -6.53462
1798 1 1.80836 0 19.892 -8.41151
2048 2 0 1.80836 19.892 -6.96029
2297 3 0 0 21.7003 -6.40612
2548 2 1.80836 1.80836 21.7003 -6.91743
2798 1 1.80836 3.61672 19.892 -8.23222
3048 2 3.61672 1.80836 19.892 -6.99277
3299 3 0 3.61672 21.7003 -6.3916
3297 3 3.61672 0 21.7003 -6.38367
2797 2 5.42509 0 19.892 -7.01697
3548 1 5.42509 1.80836 21.7003 -8.39464
3799 3 5.42509 3.61672 19.892 -6.49752
501 2 9.04181 1.80836 21.7003 -6.99349
32 1 7.23345 1.80836 19.892 -8.09445
283 2 7.23345 0 21.7003 -6.97642
800 1 9.04181 3.61672 19.892 -8.22946
1301 3 7.23345 3.61672 21.7003 -6.54758
3798 3 9.04181 0 19.892 -6.33825
799 2 12.6585 0 19.892 -6.93761
1048 2 10.8502 1.80836 19.892 -7.02109
1299 1 10.8502 0 21.7003 -8.23321
1549 3 12.6585 1.80836 21.7003 -6.63745
1800 2 12.6585 3.61672 19.892 -7.1569
2301 3 10.8502 3.61672 21.7003 -6.71221
1799 1 16.2753 0 19.892 -7.90598
2157 1 18.0836 1.80836 19.892 -7.94997
2049 3 14.4669 1.80836 19.892 -6.52538
2407 3 18.0836 0 21.7003 -6.39613
2299 3 14.4669 0 21.7003 -6.45734
2550 1 16.2753 1.80836 21.7003 -8.30348
2799 2 16.2753 3.61672 19.892 -7.04486
3424 2 18.0836 3.61672 21.7003 -7.13056
3301 2 14.4669 3.61672 21.7003 -7.11816
33 3 3.61672 5.42509 19.892 -6.52782
3049 1 0 5.42509 19.892 -8.12756
3550 2 1.80836 5.42509 21.7003 -6.972
503 3 5.42509 5.42509 21.7003 -6.60474
1049 3 7.23345 5.42509 19.892 -6.56483
1551 2 9.04181 5.42509 21.7003 -7.05149
2050 2 10.8502 5.42509 19.892 -7.03202
2552 2 12.6585 5.42509 21.7003 -7.04801
3174 1 18.0836 5.42509 19.892 -8.17903
3050 3 14.4669 5.42509 19.892 -6.69208
3552 2 16.2753 5.42509 21.7003 -7.07965
505 2 1.80836 9.04181 21.7003 -7.05428
34 2 0 9.04181 19.892 -7.017
287 1 0 7.23345 21.7003 -8.10026
1050 2 3.61672 9.04181 19.892 -7.05603
1303 1 3.61672 7.23345 21.7003 -8.41422
3800 3 1.80836 7.23345 19.892 -6.52529
801 3 5.42509 7.23345 19.892 -6.59058
1553 2 5.42509 9.04181 21.7003 -7.09464
1801 3 9.04181 7.23345 19.892 -6.51892
2051 1 7.23345 9.04181 19.892 -8.22668
2303 2 7.23345 7.23345 21.7003 -7.05499
2554 3 9.04181 9.04181 21.7003 -6.39063
2800 3 12.6585 7.23345 19.892 -6.521
3051 1 10.8502 9.04181 19.892 -8.33519
3303 3 10.8502 7.23345 21.7003 -6.53052
3554 3 12.6585 9.04181 21.7003 -6.35208
507 1 16.2753 9.04181 21.7003 -8.06118
159 1 18.0836 9.04181 19.892 -7.94613
35 2 14.4669 9.04181 19.892 -6.94197
412 2 18.0836 7.23345 21.7003 -7.00042
289 2 14.4669 7.23345 21.7003 -6.9886
3801 1 16.2753 7.23345 19.892 -8.09724
802 2 1.80836 10.8502 19.892 -7.05808
1051 1 0 12.6585 19.892 -8.26067
1305 1 0 10.8502 21.7003 -8.09041
1555 2 1.80836 12.6585 21.7003 -7.01784
2052 2 3.61672 12.6585 19.892 -7.08745
2305 3 3.61672 10.8502 21.7003 -6.55838
1802 1 5.42509 10.8502 19.892 -8.05627
2556 2 5.42509 12.6585 21.7003 -7.1075
2801 3 9.04181 10.8502 19.892 -6.48163
3052 2 7.23345 12.6585 19.892 -6.99582
3305 1 7.23345 10.8502 21.7003 -8.05414
3556 3 9.04181 12.6585 21.7003 -6.37583
509 1 12.6585 12.6585 21.7003 -8.18333
36 2 10.8502 12.6585 19.892 -6.99938
291 1 10.8502 10.8502 21.7003 -8.08993
3802 3 12.6585 10.8502 19.892 -6.34713
803 1 16.2753 10.8502 19.892 -7.97067
1161 2 18.0836 12.6585 19.892 -7.06189
1052 2 14.4669 12.6585 19.892 -7.10151
1414 2 18.0836 10.8502 21.7003 -7.05047
1307 1 14.4669 10.8502 21.7003 -8.0494
1557 1 16.2753 12.6585 21.7003 -8.08912
345 1 0 18.0836 21.7003 -8.14494
1345 2 3.61672 18.0836 21.7003 -7.08497
1803 3 1.80836 14.4669 19.892 -6.55792
2053 3 0 16.2753 19.892 -6.52848
2307 3 0 14.4669 21.7003 -6.49324
2558 3 1.80836 16.2753 21.7003 -6.56209
3053 2 3.61672 16.2753 19.892 -7.02279
3307 2 3.61672 14.4669 21.7003 -7.08029
3860 3 1.80836 18.0836 19.892 -6.56407
845 2 5.42509 18.0836 19.892 -7.10519
2802 3 5.42509 14.4669 19.892 -6.51618
3558 3 5.42509 16.2753 21.7003 -6.52998
511 1 9.04181 16.2753 21.7003 -8.10309
37 1 7.23345 16.2753 19.892 -8.27444
293 1 7.23345 14.4669 21.7003 -8.11047
1861 2 9.04181 18.0836 19.892 -6.98461
2360 3 7.23345 18.0836 21.7003 -6.3968
3803 2 9.04181 14.4669 19.892 -6.9952
804 2 12.6585 14.4669 19.892 -7.00887
1053 3 10.8502 16.2753 19.892 -6.41528
1309 3 10.8502 14.4669 21.7003 -6.50245
1559 2 12.6585 16.2753 21.7003 -6.99302
2860 1 12.6585 18.0836 19.892 -8.27753
3360 2 10.8502 18.0836 21.7003 -7.01629
470 2 18.0836 18.0836 21.7003 -6.96513
347 1 14.4669 18.0836 21.7003 -8.34188
1804 2 16.2753 14.4669 19.892 -7.03101
2162 3 18.0836 16.2753 19.892 -6.51718
2054 3 14.4669 16.2753 19.892 -6.4236
2417 3 18.0836 14.4669 21.7003 -6.54262