ITEM: TIMESTEP
0
ITEM: NUMBER OF ATOMS
4000
ITEM: BOX BOUNDS pp pp pp
0.0000000000000000e+00 3.5477780000000003e+01
0.0000000000000000e+00 3.5477780000000003e+01
0.0000000000000000e+00 3.5477780000000003e+01
ITEM: ATOMS id type x y z c_peratom
267 3 0 0 0 -6.35082
517 2 1.77389 1.77389 0 -6.94569
766 1 1.77389 0 1.77389 -8.46462
1016 2 0 1.77389 1.77389 -6.91921
1269 1 0 0 3.54778 -8.44049
1517 2 1.77389 1.77389 3.54778 -7.02123
1267 3 3.54778 0 0 -6.31536
1518 1 5.32167 1.77389 0 -8.3442
1767 2 5.32167 0 1.77389 -6.8591
2017 3 3.54778 1.77389 1.77389 -6.4288
2267 2 3.54778 0 3.54778 -7.02605
2517 2 5.32167 1.77389 3.54778 -6.98725
1 2 10.6433 1.77389 1.77389 -6.94472
270 3 10.6433 0 3.54778 -6.22798
2269 3 7.09556 0 0 -6.07814
2518 1 8.86945 1.77389 0 -8.43716
2768 1 8.86945 0 1.77389 -8.28901
3017 1 7.09556 1.77389 1.77389 -8.02833
3269 3 10.6433 0 0 -6.34808
3268 1 7.09556 0 3.54778 -8.12668
3517 1 8.86945 1.77389 3.54778 -8.22217
271 3 14.1911 0 0 -6.56613
518 3 12.4172 1.77389 3.54778 -6.3619
1017 3 14.1911 1.77389 1.77389 -6.42096
1272 1 14.1911 0 3.54778 -8.46667
3518 2 12.4172 1.77389 0 -6.92671
3769 2 12.4172 0 1.77389 -7.01098
519 3 15.965 1.77389 0 -6.53476
768 2 15.965 0 1.77389 -6.9992
1519 1 15.965 1.77389 3.54778 -8.53847
1268 1 0 3.54778 0 -8.21136
1520 1 1.77389 5.32167 0 -8.56113
1766 1 1.77389 3.54778 1.77389 -8.551
2018 3 0 5.32167 1.77389 -6.29793
2268 3 0 3.54778 3.54778 -6.48358
2519 2 1.77389 5.32167 3.54778 -6.93179
2266 1 3.54778 3.54778 0 -8.35475
2520 2 5.32167 5.32167 0 -6.92868
2767 2 5.32167 3.54778 1.77389 -6.98489
3018 3 3.54778 5.32167 1.77389 -6.26994
3266 2 3.54778 3.54778 3.54778 -6.91199
3519 3 5.32167 5.32167 3.54778 -6.0735
2 1 7.09556 5.32167 1.77389 -8.00589
269 1 10.6433 3.54778 0 -8.44595
268 1 7.09556 3.54778 3.54778 -8.05559
520 1 8.86945 5.32167 3.54778 -8.30709
1018 3 10.6433 5.32167 1.77389 -6.14269
1270 3 10.6433 3.54778 3.54778 -6.24121
3267 1 7.09556 3.54778 0 -8.31513
3520 2 8.86945 5.32167 0 -6.92619
3768 2 8.86945 3.54778 1.77389 -6.98612
521 3 12.4172 5.32167 0 -6.10601
767 2 12.4172 3.54778 1.77389 -6.89153
1271 1 14.1911 3.54778 0 -8.57625
1521 1 12.4172 5.32167 3.54778 -8.42335
2019 1 14.1911 5.32167 1.77389 -8.29134
2270 1 14.1911 3.54778 3.54778 -8.36097
1522 2 15.965 5.32167 0 -7.03919
1768 2 15.965 3.54778 1.77389 -6.99897
2521 2 15.965 5.32167 3.54778 -7.02399
275 1 0 10.6433 3.54778 -8.27267
2271 2 0 7.09556 0 -6.94539
2522 2 1.77389 8.86945 0 -6.99349
2769 2 1.77389 7.09556 1.77389 -6.94138
3019 2 0 8.86945 1.77389 -6.96793
3273 1 0 10.6433 0 -8.55268
3271 3 0 7.09556 3.54778 -6.37666
3521 1 1.77389 8.86945 3.54778 -8.46354
3771 3 1.77389 10.6433 1.77389 -6.40538
3 1 3.54778 8.86945 1.77389 -8.47715
274 2 3.54778 10.6433 0 -6.96479
272 1 3.54778 7.09556 3.54778 -8.27665
522 1 5.32167 8.86945 3.54778 -8.35247
770 3 5.32167 10.6433 1.77389 -6.27439
1275 2 3.54778 10.6433 3.54778 -6.86153
3270 3 3.54778 7.09556 0 -6.40914
3522 3 5.32167 8.86945 0 -6.36824
3770 1 5.32167 7.09556 1.77389 -8.24357
273 1 7.09556 7.09556 0 -8.05573
523 1 8.86945 8.86945 0 -8.21983
769 1 8.86945 7.09556 1.77389 -7.94492
1019 1 7.09556 8.86945 1.77389 -8.28559
1276 2 7.09556 10.6433 0 -6.87454
1274 1 10.6433 7.09556 0 -8.28374
1273 1 7.09556 7.09556 3.54778 -8.16638
1523 2 8.86945 8.86945 3.54778 -6.9433
1770 3 8.86945 10.6433 1.77389 -6.35114
2020 1 10.6433 8.86945 1.77389 -8.35084
2275 2 10.6433 10.6433 0 -6.97971
2274 2 7.09556 10.6433 3.54778 -6.90541
2272 1 10.6433 7.09556 3.54778 -8.374
3274 3 10.6433 10.6433 3.54778 -6.62016
276 3 14.1911 10.6433 3.54778 -6.66386
1524 1 12.4172 8.86945 0 -8.47636
1769 3 12.4172 7.09556 1.77389 -6.12278
2273 1 14.1911 7.09556 0 -8.45167
2523 3 12.4172 8.86945 3.54778 -6.53682
2771 2 12.4172 10.6433 1.77389 -6.99766
3020 3 14.1911 8.86945 1.77389 -6.58705
3275 2 14.1911 10.6433 0 -7.04721
3272 3 14.1911 7.09556 3.54778 -6.57755
2524 2 15.965 8.86945 0 -7.02687
2770 2 15.965 7.09556 1.77389 -7.05501
3523 2 15.965 8.86945 3.54778 -7.05915
3772 3 15.965 10.6433 1.77389 -6.63486
4 3 0 12.4172 1.77389 -6.25701
277 2 0 14.1911 0 -6.89515
524 2 1.77389 12.4172 3.54778 -6.89727
771 2 1.77389 14.1911 1.77389 -6.928
1278 1 0 14.1911 3.54778 -8.26714
3524 3 1.77389 12.4172 0 -6.55011
525 1 5.32167 12.4172 0 -8.40912
1020 3 3.54778 12.4172 1.77389 -6.54598
1277 3 3.54778 14.1911 0 -6.40748
1525 3 5.32167 12.4172 3.54778 -6.43235
1771 1 5.32167 14.1911 1.77389 -8.50448
2276 3 3.54778 14.1911 3.54778 -6.44316
278 1 10.6433 14.1911 3.54778 -8.57618
1526 3 8.86945 12.4172 0 -6.45802
2021 1 7.09556 12.4172 1.77389 -8.6375
2277 1 7.09556 14.1911 0 -8.18742
2525 3 8.86945 12.4172 3.54778 -6.55481
2772 2 8.86945 14.1911 1.77389 -6.88315
3021 2 10.6433 12.4172 1.77389 -6.98746
3277 3 10.6433 14.1911 0 -6.6119
3276 3 7.09556 14.1911 3.54778 -6.41421
5 2 14.1911 12.4172 1.77389 -7.04164
279 3 14.1911 14.1911 0 -6.60383
1279 1 14.1911 14.1911 3.54778 -8.49751
2526 1 12.4172 12.4172 0 -8.79697
3525 3 12.4172 12.4172 3.54778 -6.50753
3773 2 12.4172 14.1911 1.77389 -7.04115
526 2 15.965 12.4172 3.54778 -6.94895
772 3 15.965 14.1911 1.77389 -6.51308
3526 2 15.965 12.4172 0 -7.03006
527 1 1.77389 15.965 0 -8.54172
1021 1 0 15.965 1.77389 -8.50413
1527 3 1.77389 15.965 3.54778 -6.31229
1528 2 5.32167 15.965 0 -6.92116
2022 2 3.54778 15.965 1.77389 -6.92518
2527 2 5.32167 15.965 3.54778 -6.87621
6 2 10.6433 15.965 1.77389 -7.01305
2528 3 8.86945 15.965 0 -6.375
3022 1 7.09556 15.965 1.77389 -8.29973
3527 1 8.86945 15.965 3.54778 -8.2474
528 3 12.4172 15.965 3.54778 -6.36858
1022 2 14.1911 15.965 1.77389 -6.96991
3528 2 12.4172 15.965 0 -7.04064
529 1 15.965 15.965 0 -8.79954
1529 2 15.965 15.965 3.54778 -6.92178
1772 2 1.77389 0 5.32167 -7.01942
2023 3 0 1.77389 5.32167 -6.48753
2278 2 0 0 7.09556 -7.00635
2529 3 1.77389 1.77389 7.09556 -6.41512
2775 3 5.32167 0 5.32167 -6.20171
2774 2 3.54778 0 7.09556 -6.91734
3024 1 5.32167 1.77389 7.09556 -8.17227
3023 3 3.54778 1.77389 5.32167 -6.48737
7 1 7.09556 1.77389 5.32167 -8.05412
1023 1 10.6433 1.77389 5.32167 -8.24179
3278 1 7.09556 0 7.09556 -8.27009
3529 1 8.86945 1.77389 7.09556 -8.4181
3776 1 10.6433 0 7.09556 -8.39246
3775 2 8.86945 0 5.32167 -6.96443
8 2 12.4172 1.77389 7.09556 -7.01562
280 2 14.1911 0 7.09556 -7.01579
775 1 12.4172 0 5.32167 -8.26069
2024 2 14.1911 1.77389 5.32167 -7.01641
530 2 15.965 1.77389 7.09556 -7.1098
1775 3 15.965 0 5.32167 -6.55322
773 1 0 3.54778 7.09556 -8.53878
1024 2 1.77389 5.32167 7.09556 -6.95281
2773 3 1.77389 3.54778 5.32167 -6.47574
3025 2 0 5.32167 5.32167 -6.90265
9 1 3.54778 5.32167 5.32167 -8.51447
1280 1 3.54778 3.54778 7.09556 -8.37699
1530 3 5.32167 5.32167 7.09556 -6.22439
3774 1 5.32167 3.54778 5.32167 -8.12736
774 3 8.86945 3.54778 5.32167 -6.03979
1025 1 7.09556 5.32167 5.32167 -8.11615
1773 2 7.09556 3.54778 7.09556 -6.86974
2026 1 8.86945 5.32167 7.09556 -8.70456
2025 3 10.6433 5.32167 5.32167 -6.24663
2279 2 10.6433 3.54778 7.09556 -6.89099
1774 1 12.4172 3.54778 5.32167 -8.52864
2530 3 12.4172 5.32167 7.09556 -6.43958
2776 2 14.1911 3.54778 7.09556 -6.99208
3026 3 14.1911 5.32167 5.32167 -6.43352
2777 2 15.965 3.54778 5.32167 -7.04698
3027 2 15.965 5.32167 7.09556 -6.97855
10 1 0 8.86945 5.32167 -8.29373
778 3 1.77389 10.6433 5.32167 -6.24322
1777 3 0 10.6433 7.09556 -6.1756
3279 2 0 7.09556 7.09556 -6.95669
3530 1 1.77389 8.86945 7.09556 -8.57427
3777 3 1.77389 7.09556 5.32167 -6.32134
11 2 5.32167 8.86945 7.09556 -6.9398
776 2 5.32167 7.09556 5.32167 -6.91565
1026 2 3.54778 8.86945 5.32167 -6.85789
1778 3 5.32167 10.6433 5.32167 -6.43468
2280 3 3.54778 10.6433 7.09556 -6.37831
3778 3 3.54778 7.09556 7.09556 -6.36909
281 1 7.09556 7.09556 7.09556 -8.50871
531 3 8.86945 8.86945 7.09556 -6.41135
777 3 10.6433 7.09556 7.09556 -6.50996
1776 2 8.86945 7.09556 5.32167 -6.91636
2027 3 7.09556 8.86945 5.32167 -6.37559
2780 2 8.86945 10.6433 5.32167 -6.93086
2779 1 7.09556 10.6433 7.09556 -8.64111
3028 3 10.6433 8.86945 5.32167 -6.57851
3280 3 10.6433 10.6433 7.09556 -6.52048
12 2 14.1911 8.86945 5.32167 -6.95637
1027 3 12.4172 8.86945 7.09556 -6.51177
1281 1 14.1911 7.09556 7.09556 -8.77751
2778 2 12.4172 7.09556 5.32167 -6.83125
3781 3 14.1911 10.6433 7.09556 -6.45115
3780 3 12.4172 10.6433 5.32167 -6.57084
779 3 15.965 10.6433 5.32167 -6.46084
1531 3 15.965 8.86945 7.09556 -6.53247
3779 3 15.965 7.09556 5.32167 -6.66573
282 3 0 14.1911 7.09556 -6.19066
1028 1 0 12.4172 5.32167 -8.3655
1779 3 1.77389 14.1911 5.32167 -6.24384
2029 2 1.77389 12.4172 7.09556 -6.85242
780 2 3.54778 14.1911 7.09556 -6.90547
2028 1 3.54778 12.4172 5.32167 -8.94061
2531 3 5.32167 12.4172 7.09556 -6.47636
2781 3 5.32167 14.1911 5.32167 -6.54507
13 3 10.6433 12.4172 5.32167 -6.53343
1282 2 7.09556 14.1911 7.09556 -7.03415
1780 3 10.6433 14.1911 7.09556 -6.23709
3030 1 8.86945 12.4172 7.09556 -8.64659
3029 3 7.09556 12.4172 5.32167 -6.57414
3782 2 8.86945 14.1911 5.32167 -6.9353
781 3 12.4172 14.1911 5.32167 -6.22324
1029 1 14.1911 12.4172 5.32167 -8.62482
2281 2 14.1911 14.1911 7.09556 -6.92881
3531 2 12.4172 12.4172 7.09556 -6.86078
14 1 15.965 12.4172 7.09556 -8.32136
1781 1 15.965 14.1911 5.32167 -8.23576
532 2 1.77389 15.965 7.09556 -6.95421
2030 1 0 15.965 5.32167 -8.43442
1030 2 5.32167 15.965 7.09556 -7.03048
3031 1 3.54778 15.965 5.32167 -8.71317
15 2 7.09556 15.965 5.32167 -7.00704
1031 1 10.6433 15.965 5.32167 -8.29135
1532 1 8.86945 15.965 7.09556 -8.3384
2032 1 12.4172 15.965 7.09556 -8.28733
2031 1 14.1911 15.965 5.32167 -8.27459
2532 3 15.965 15.965 7.09556 -6.0998
16 1 0 1.77389 12.4172 -8.69903
2782 3 1.77389 0 8.86945 -6.40519
3032 1 0 1.77389 8.86945 -8.60513
3281 3 0 0 10.6433 -6.50912
3533 2 1.77389 1.77389 10.6433 -6.92829
3783 2 1.77389 0 12.4172 -6.88757
251 1 3.54778 0 10.6433 -8.31028
533 3 5.32167 1.77389 10.6433 -6.36689
783 1 5.32167 0 12.4172 -8.37654
1032 3 3.54778 1.77389 12.4172 -6.33101
3282 1 5.32167 0 8.86945 -8.22203
3532 1 3.54778 1.77389 8.86945 -8.40966
17 2 7.09556 1.77389 8.86945 -6.98096
534 3 10.6433 1.77389 8.86945 -6.37217
1285 2 7.09556 0 10.6433 -6.91963
1533 2 8.86945 1.77389 10.6433 -7.05122
1784 3 8.86945 0 12.4172 -6.43857
2033 2 7.09556 1.77389 12.4172 -7.02616
2284 1 10.6433 0 10.6433 -8.50335
3033 2 10.6433 1.77389 12.4172 -6.95002
3784 3 8.86945 0 8.86945 -6.26738
253 2 12.4172 0 8.86945 -6.96999
18 1 14.1911 1.77389 12.4172 -8.0668
1033 2 14.1911 1.77389 8.86945 -7.06808
2533 1 12.4172 1.77389 10.6433 -8.26531
2785 2 12.4172 0 12.4172 -6.98733
3284 1 14.1911 0 10.6433 -8.08408
784 2 15.965 0 8.86945 -7.03412
3534 1 15.965 1.77389 10.6433 -8.09773
3786 1 15.965 0 12.4172 -8.098
252 3 0 3.54778 10.6433 -6.345
535 2 1.77389 5.32167 10.6433 -6.91852
782 3 1.77389 3.54778 12.4172 -6.46182
1034 1 0 5.32167 12.4172 -8.70694
1283 2 1.77389 3.54778 8.86945 -6.94267
1534 1 0 5.32167 8.86945 -8.45929
1284 2 3.54778 3.54778 10.6433 -6.93916
1535 1 5.32167 5.32167 10.6433 -8.63381
1783 1 5.32167 3.54778 12.4172 -8.41051
1782 3 5.32167 3.54778 8.86945 -6.3344
2035 2 3.54778 5.32167 12.4172 -7.00613
2034 1 3.54778 5.32167 8.86945 -8.43048
19 3 10.6433 5.32167 12.4172 -6.72249
2283 3 8.86945 3.54778 8.86945 -6.54536
2282 2 7.09556 3.54778 10.6433 -7.09434
2535 2 8.86945 5.32167 10.6433 -7.04943
2534 3 7.09556 5.32167 8.86945 -6.44742
2783 2 8.86945 3.54778 12.4172 -7.09062
3035 3 10.6433 5.32167 8.86945 -6.54429
3034 2 7.09556 5.32167 12.4172 -6.98141
3283 2 10.6433 3.54778 10.6433 -7.02606
254 2 14.1911 3.54778 10.6433 -6.94232
1035 3 14.1911 5.32167 12.4172 -6.53773
2784 1 12.4172 3.54778 8.86945 -8.67907
3536 3 12.4172 5.32167 10.6433 -6.53936
3535 3 14.1911 5.32167 8.86945 -6.30995
3785 3 12.4172 3.54778 12.4172 -6.53055
536 3 15.965 5.32167 10.6433 -6.38372
785 1 15.965 3.54778 12.4172 -8.41792
3285 1 15.965 3.54778 8.86945 -8.6704
20 2 0 8.86945 8.86945 -6.9228
1286 3 0 7.09556 10.6433 -6.21297
1536 1 1.77389 8.86945 10.6433 -8.44131
1785 3 1.77389 7.09556 12.4172 -6.44453
2036 1 0 8.86945 12.4172 -8.52702
2287 2 0 10.6433 10.6433 -6.987
2286 1 1.77389 10.6433 8.86945 -8.29059
2787 2 1.77389 10.6433 12.4172 -6.96534
3787 1 1.77389 7.09556 8.86945 -8.32228
255 2 5.32167 7.09556 8.86945 -6.85919
537 3 3.54778 8.86945 8.86945 -6.27069
2285 3 3.54778 7.09556 10.6433 -6.2808
2536 1 5.32167 8.86945 10.6433 -8.59842
2788 2 5.32167 10.6433 8.86945 -6.8956
2786 3 5.32167 7.09556 12.4172 -6.35018
3036 3 3.54778 8.86945 12.4172 -6.31908
3287 1 3.54778 10.6433 10.6433 -8.14542
3789 3 5.32167 10.6433 12.4172 -6.09022
256 2 10.6433 7.09556 10.6433 -6.97524
257 3 7.09556 10.6433 10.6433 -6.17298
21 1 7.09556 8.86945 12.4172 -8.38465
788 1 8.86945 10.6433 12.4172 -8.49192
786 3 8.86945 7.09556 8.86945 -6.39071
1037 2 10.6433 8.86945 12.4172 -7.03169
1036 1 7.09556 8.86945 8.86945 -8.53625
1289 2 10.6433 10.6433 10.6433 -6.91822
1537 1 10.6433 8.86945 8.86945 -8.9812
3288 3 8.86945 10.6433 8.86945 -6.29995
3286 3 7.09556 7.09556 10.6433 -6.32028
3537 3 8.86945 8.86945 10.6433 -6.2937
3788 1 8.86945 7.09556 12.4172 -8.68986
538 2 12.4172 8.86945 10.6433 -6.95999
787 3 12.4172 7.09556 12.4172 -6.72525
1288 1 14.1911 7.09556 10.6433 -8.78225
1287 3 12.4172 7.09556 8.86945 -6.47505
1788 2 12.4172 10.6433 12.4172 -7.04232
2038 3 14.1911 8.86945 12.4172 -6.58697
2037 2 14.1911 8.86945 8.86945 -6.88278
2288 1 14.1911 10.6433 10.6433 -8.46771
3790 3 12.4172 10.6433 8.86945 -6.42152
258 3 15.965 10.6433 8.86945 -6.29301
1538 1 15.965 8.86945 10.6433 -8.58059
1787 2 15.965 7.09556 12.4172 -6.99158
1786 1 15.965 7.09556 8.86945 -8.51528
2789 3 15.965 10.6433 12.4172 -6.56109
789 1 1.77389 14.1911 8.86945 -8.30908
2538 1 1.77389 12.4172 10.6433 -8.16958
2537 2 0 12.4172 8.86945 -6.87278
3038 1 0 12.4172 12.4172 -8.31665
3289 3 0 14.1911 10.6433 -6.12345
3791 2 1.77389 14.1911 12.4172 -6.91427
259 2 3.54778 14.1911 10.6433 -7.00695
22 1 3.54778 12.4172 12.4172 -8.34183
790 1 5.32167 14.1911 12.4172 -8.32342
1290 3 5.32167 14.1911 8.86945 -6.53305
3037 1 3.54778 12.4172 8.86945 -8.45212
3539 2 5.32167 12.4172 10.6433 -6.89949
23 3 10.6433 12.4172 8.86945 -6.40136
539 1 8.86945 12.4172 10.6433 -8.40649
1038 1 7.09556 12.4172 12.4172 -8.42134
1291 3 7.09556 14.1911 10.6433 -6.33101
1790 2 8.86945 14.1911 12.4172 -6.9075
1789 1 8.86945 14.1911 8.86945 -8.27054
2039 3 10.6433 12.4172 12.4172 -6.34922
2289 1 10.6433 14.1911 10.6433 -8.25785
3538 2 7.09556 12.4172 8.86945 -6.93145
540 1 14.1911 12.4172 8.86945 -8.53271
1539 3 12.4172 12.4172 10.6433 -6.31665
2290 2 12.4172 14.1911 8.86945 -6.88735
2790 1 12.4172 14.1911 12.4172 -8.38769
3039 1 14.1911 12.4172 12.4172 -8.3991
3290 3 14.1911 14.1911 10.6433 -6.14288
2539 2 15.965 12.4172 10.6433 -6.8978
2791 1 15.965 14.1911 8.86945 -8.19069
3792 1 15.965 14.1911 12.4172 -8.47612
24 3 0 15.965 12.4172 -6.20631
1039 2 0 15.965 8.86945 -6.93082
3540 1 1.77389 15.965 10.6433 -8.50203
541 2 5.32167 15.965 10.6433 -6.94349
1040 1 3.54778 15.965 12.4172 -8.38713
1540 1 3.54778 15.965 8.86945 -8.41029
1541 2 8.86945 15.965 10.6433 -6.91729
2041 1 7.09556 15.965 12.4172 -8.59939
2040 2 7.09556 15.965 8.86945 -7.01264
2540 1 10.6433 15.965 8.86945 -8.19133
3040 2 10.6433 15.965 12.4172 -7.0109
25 3 14.1911 15.965 12.4172 -6.31114
2541 1 12.4172 15.965 10.6433 -8.4259
3041 1 14.1911 15.965 8.86945 -8.31302
3541 2 15.965 15.965 10.6433 -6.89616
260 1 0 0 14.1911 -8.43494
542 2 1.77389 1.77389 14.1911 -6.91292
791 2 1.77389 0 15.965 -6.96475
1041 1 0 1.77389 15.965 -8.39527
1292 3 3.54778 0 14.1911 -6.32649
1542 1 5.32167 1.77389 14.1911 -8.36675
1792 3 5.32167 0 15.965 -6.14745
2042 3 3.54778 1.77389 15.965 -6.25664
26 1 10.6433 1.77389 15.965 -8.36531
2292 2 7.09556 0 14.1911 -6.92819
2542 1 8.86945 1.77389 14.1911 -8.53935
2793 3 8.86945 0 15.965 -6.25875
3042 1 7.09556 1.77389 15.965 -8.37077
3292 2 10.6433 0 14.1911 -6.97538
262 3 14.1911 0 14.1911 -6.21116
1042 3 14.1911 1.77389 15.965 -6.27507
3542 1 12.4172 1.77389 14.1911 -8.49971
3794 1 12.4172 0 15.965 -8.68881
543 1 15.965 1.77389 14.1911 -8.18802
793 3 15.965 0 15.965 -6.33798
1293 3 0 3.54778 14.1911 -6.25757
1543 2 1.77389 5.32167 14.1911 -6.9763
1791 1 1.77389 3.54778 15.965 -8.32445
2043 1 0 5.32167 15.965 -8.45703
2291 1 3.54778 3.54778 14.1911 -8.34806
2543 2 5.32167 5.32167 14.1911 -6.96917
2792 1 5.32167 3.54778 15.965 -8.22016
3043 2 3.54778 5.32167 15.965 -6.98833
261 3 10.6433 3.54778 14.1911 -6.49964
27 3 7.09556 5.32167 15.965 -6.39996
1043 2 10.6433 5.32167 15.965 -7.04172
3291 3 7.09556 3.54778 14.1911 -6.3121
3543 2 8.86945 5.32167 14.1911 -7.02313
3793 1 8.86945 3.54778 15.965 -8.43212
544 2 12.4172 5.32167 14.1911 -7.12989
792 2 12.4172 3.54778 15.965 -6.95683
1294 2 14.1911 3.54778 14.1911 -6.96816
2044 3 14.1911 5.32167 15.965 -6.63702
1544 2 15.965 5.32167 14.1911 -6.94584
1793 1 15.965 3.54778 15.965 -8.43833
2293 3 0 7.09556 14.1911 -6.28714
2544 2 1.77389 8.86945 14.1911 -6.898
2794 1 1.77389 7.09556 15.965 -8.44614
3044 3 0 8.86945 15.965 -6.56327
3294 3 0 10.6433 14.1911 -6.41175
3796 2 1.77389 10.6433 15.965 -6.96087
264 3 3.54778 10.6433 14.1911 -6.17066
28 1 3.54778 8.86945 15.965 -8.19215
795 1 5.32167 10.6433 15.965 -8.11578
3293 2 3.54778 7.09556 14.1911 -6.97552
3544 1 5.32167 8.86945 14.1911 -8.54154
3795 3 5.32167 7.09556 15.965 -6.34716
263 3 7.09556 7.09556 14.1911 -6.47925
545 3 8.86945 8.86945 14.1911 -6.43663
794 2 8.86945 7.09556 15.965 -7.02757
1044 3 7.09556 8.86945 15.965 -6.23962
1296 1 7.09556 10.6433 14.1911 -8.39892
1295 2 10.6433 7.09556 14.1911 -7.14659
1795 3 8.86945 10.6433 15.965 -6.32331
2045 2 10.6433 8.86945 15.965 -7.05461
2295 3 10.6433 10.6433 14.1911 -6.64372
1545 2 12.4172 8.86945 14.1911 -7.19921
1794 3 12.4172 7.09556 15.965 -6.77303
2294 2 14.1911 7.09556 14.1911 -7.12193
2796 2 12.4172 10.6433 15.965 -7.02526
3045 3 14.1911 8.86945 15.965 -6.60885
3295 2 14.1911 10.6433 14.1911 -7.04836
2545 2 15.965 8.86945 14.1911 -7.07019
2795 3 15.965 7.09556 15.965 -6.66946
3797 1 15.965 10.6433 15.965 -8.59869
265 1 0 14.1911 14.1911 -8.34509
29 1 0 12.4172 15.965 -8.53789
796 2 1.77389 14.1911 15.965 -6.97858
3545 1 1.77389 12.4172 14.1911 -8.27646
546 3 5.32167 12.4172 14.1911 -6.16536
1045 1 3.54778 12.4172 15.965 -8.31956
1297 3 3.54778 14.1911 14.1911 -6.16264
1796 2 5.32167 14.1911 15.965 -6.96755
1546 3 8.86945 12.4172 14.1911 -6.34852
2046 3 7.09556 12.4172 15.965 -6.29955
2296 2 7.09556 14.1911 14.1911 -7.00422
2797 2 8.86945 14.1911 15.965 -6.9514
3046 3 10.6433 12.4172 15.965 -6.32357
3296 1 10.6433 14.1911 14.1911 -8.56798
266 2 14.1911 14.1911 14.1911 -6.87117
30 3 14.1911 12.4172 15.965 -6.43819
2546 2 12.4172 12.4172 14.1911 -6.992
3798 3 12.4172 14.1911 15.965 -6.33579
797 3 15.965 14.1911 15.965 -6.44132
3546 3 15.965 12.4172 14.1911 -6.41315
547 1 1.77389 15.965 14.1911 -8.3601
1046 3 0 15.965 15.965 -6.38444
1547 2 5.32167 15.965 14.1911 -6.96888
2047 1 3.54778 15.965 15.965 -8.52071
31 2 10.6433 15.965 15.965 -6.9455
2547 1 8.86945 15.965 14.1911 -8.37871
3047 2 7.09556 15.965 15.965 -7.0348
1047 1 14.1911 15.965 15.965 -8.59229
3547 2 12.4172 15.965 14.1911 -6.94575
548 3 15.965 15.965 14.1911 -6.28248
1298 2 0 0 17.7389 -6.94359
1548 1 1.77389 1.77389 17.7389 -8.52981
1797 3 1.77389 0 19.5128 -6.30987
2048 3 0 1.77389 19.5128 -6.48985
2299 2 0 0 21.2867 -7.0183
2548 1 1.77389 1.77389 21.2867 -8.54211
2297 2 3.54778 0 17.7389 -6.85233
2549 1 5.32167 1.77389 17.7389 -8.53867
2799 3 5.32167 0 19.5128 -6.1483
3048 1 3.54778 1.77389 19.5128 -8.39355
3298 3 3.54778 0 21.2867 -6.081
3548 1 5.32167 1.77389 21.2867 -8.44857
501 3 8.86945 1.77389 21.2867 -6.51691
32 2 7.09556 1.77389 19.5128 -6.91822
286 3 10.6433 0 17.7389 -6.45388
285 2 7.09556 0 21.2867 -6.96629
1048 3 10.6433 1.77389 19.5128 -6.55073
1301 2 10.6433 0 21.2867 -7.08502
3300 3 7.09556 0 17.7389 -6.22248
3549 3 8.86945 1.77389 17.7389 -6.42342
3800 2 8.86945 0 19.5128 -6.99802
502 3 12.4172 1.77389 17.7389 -6.46636
799 2 12.4172 0 19.5128 -7.00829
1302 3 14.1911 0 17.7389 -6.35864
1549 3 12.4172 1.77389 21.2867 -6.44899
2049 3 14.1911 1.77389 19.5128 -6.44759
2302 3 14.1911 0 21.2867 -6.37475
1550 1 15.965 1.77389 17.7389 -8.45584
1799 1 15.965 0 19.5128 -8.42256
2550 2 15.965 1.77389 21.2867 -6.8665
2298 3 0 3.54778 17.7389 -6.36903
2551 2 1.77389 5.32167 17.7389 -6.98623
2798 2 1.77389 3.54778 19.5128 -6.95809
3049 3 0 5.32167 19.5128 -6.36217
3299 2 0 3.54778 21.2867 -6.88803
3550 1 1.77389 5.32167 21.2867 -8.38994
503 1 5.32167 5.32167 21.2867 -8.6033
33 2 3.54778 5.32167 19.5128 -7.0486
283 2 3.54778 3.54778 21.2867 -6.86586
3297 2 3.54778 3.54778 17.7389 -6.9808
3551 1 5.32167 5.32167 17.7389 -8.39139
3799 3 5.32167 3.54778 19.5128 -6.2891
504 2 8.86945 5.32167 17.7389 -6.95821
284 2 7.09556 3.54778 17.7389 -6.96565
798 3 8.86945 3.54778 19.5128 -6.48889
1049 2 7.09556 5.32167 19.5128 -7.02408
1300 1 10.6433 3.54778 17.7389 -8.51444
1299 3 7.09556 3.54778 21.2867 -6.41683
1551 2 8.86945 5.32167 21.2867 -6.99805
2050 1 10.6433 5.32167 19.5128 -8.33907
2300 1 10.6433 3.54778 21.2867 -8.42878
1552 3 12.4172 5.32167 17.7389 -6.45718
1798 2 12.4172 3.54778 19.5128 -6.86174
2301 2 14.1911 3.54778 17.7389 -6.90938
2552 2 12.4172 5.32167 21.2867 -6.91649
3050 3 14.1911 5.32167 19.5128 -6.28463
3301 1 14.1911 3.54778 21.2867 -8.42904
2553 3 15.965 5.32167 17.7389 -6.46964
2800 3 15.965 3.54778 19.5128 -6.27039
3552 1 15.965 5.32167 21.2867 -8.1007
505 1 1.77389 8.86945 21.2867 -8.14605
34 1 0 8.86945 19.5128 -8.37845
290 2 0 10.6433 17.7389 -6.96089
288 1 0 7.09556 21.2867 -8.15057
801 2 1.77389 10.6433 19.5128 -7.01936
1306 3 0 10.6433 21.2867 -6.09879
3302 3 0 7.09556 17.7389 -6.31677
3553 2 1.77389 8.86945 17.7389 -7.00031
3801 2 1.77389 7.09556 19.5128 -6.9684
506 2 5.32167 8.86945 17.7389 -6.89244
287 1 3.54778 7.09556 17.7389 -8.25506
800 1 5.32167 7.09556 19.5128 -8.04722
1050 2 3.54778 8.86945 19.5128 -6.93801
1305 1 3.54778 10.6433 17.7389 -8.36664
1303 1 3.54778 7.09556 21.2867 -8.24154
1553 3 5.32167 8.86945 21.2867 -6.35035
1801 3 5.32167 10.6433 19.5128 -6.31593
2305 1 3.54778 10.6433 21.2867 -8.71923
291 1 10.6433 10.6433 21.2867 -8.08915
1304 1 7.09556 7.09556 17.7389 -8.37848
1554 2 8.86945 8.86945 17.7389 -7.02196
1800 1 8.86945 7.09556 19.5128 -8.29354
2051 1 7.09556 8.86945 19.5128 -8.25375
2306 1 7.09556 10.6433 17.7389 -8.3253
2304 3 10.6433 7.09556 17.7389 -6.45439
2303 2 7.09556 7.09556 21.2867 -7.02248
2554 2 8.86945 8.86945 21.2867 -6.98162
2802 1 8.86945 10.6433 19.5128 -8.08824
3051 1 10.6433 8.86945 19.5128 -8.16545
3306 1 10.6433 10.6433 17.7389 -8.33595
3305 2 7.09556 10.6433 21.2867 -6.92882
3303 3 10.6433 7.09556 21.2867 -6.35848
35 1 14.1911 8.86945 19.5128 -8.15794
292 2 14.1911 10.6433 17.7389 -6.9745
289 1 14.1911 7.09556 21.2867 -8.02855
1307 3 14.1911 10.6433 21.2867 -6.15771
2555 3 12.4172 8.86945 17.7389 -6.38543
2801 1 12.4172 7.09556 19.5128 -8.44266
3304 3 14.1911 7.09556 17.7389 -6.37659
3554 1 12.4172 8.86945 21.2867 -8.39493
3803 2 12.4172 10.6433 19.5128 -6.91453
507 1 15.965 8.86945 21.2867 -8.27185
802 1 15.965 10.6433 19.5128 -8.2284
3555 1 15.965 8.86945 17.7389 -8.43213
3802 1 15.965 7.09556 19.5128 -8.40746
508 3 1.77389 12.4172 17.7389 -6.32983
1051 1 0 12.4172 19.5128 -8.55944
1308 2 0 14.1911 17.7389 -6.90895
1555 2 1.77389 12.4172 21.2867 -6.94365
1802 2 1.77389 14.1911 19.5128 -6.92946
2308 1 0 14.1911 21.2867 -8.37794
1556 1 5.32167 12.4172 17.7389 -8.16286
2052 2 3.54778 12.4172 19.5128 -6.99198
2307 1 3.54778 14.1911 17.7389 -8.43437
2556 2 5.32167 12.4172 21.2867 -6.96717
2803 1 5.32167 14.1911 19.5128 -8.43694
3307 2 3.54778 14.1911 21.2867 -6.99781
36 2 10.6433 12.4172 19.5128 -6.94071
294 1 10.6433 14.1911 17.7389 -8.38061
293 1 7.09556 14.1911 21.2867 -8.62053
1309 3 10.6433 14.1911 21.2867 -6.3201
2557 1 8.86945 12.4172 17.7389 -8.36978
3052 2 7.09556 12.4172 19.5128 -6.96389
3308 2 7.09556 14.1911 17.7389 -6.97164
3556 3 8.86945 12.4172 21.2867 -6.22199
3804 3 8.86945 14.1911 19.5128 -6.46048
509 1 12.4172 12.4172 21.2867 -8.30512
803 1 12.4172 14.1911 19.5128 -8.12586
1052 1 14.1911 12.4172 19.5128 -8.08635
1310 3 14.1911 14.1911 17.7389 -6.16586
2309 1 14.1911 14.1911 21.2867 -8.07266
3557 1 12.4172 12.4172 17.7389 -8.39246
510 1 15.965 12.4172 17.7389 -8.42935
1557 3 15.965 12.4172 21.2867 -6.24774
1803 1 15.965 14.1911 19.5128 -8.3973
1558 3 1.77389 15.965 17.7389 -6.3578
2053 3 0 15.965 19.5128 -6.38387
2558 3 1.77389 15.965 21.2867 -6.52052
2559 3 5.32167 15.965 17.7389 -6.45947
3053 3 3.54778 15.965 19.5128 -6.35912
3558 3 5.32167 15.965 21.2867 -6.38493
511 2 8.86945 15.965 21.2867 -7.00682
37 2 7.09556 15.965 19.5128 -6.9685
1053 2 10.6433 15.965 19.5128 -6.96162
3559 3 8.86945 15.965 17.7389 -6.58887
512 1 12.4172 15.965 17.7389 -8.51946
1559 1 12.4172 15.965 21.2867 -8.52571
2054 3 14.1911 15.965 19.5128 -6.35589
1560 2 15.965 15.965 17.7389 -6.96794
2560 2 15.965 15.965 21.2867 -7.01887
39 1 0 1.77389 26.6083 -8.27015
2804 1 1.77389 0 23.0606 -8.58632
3054 3 0 1.77389 23.0606 -6.30951
3309 3 0 0 24.8344 -6.05853
3560 1 1.77389 1.77389 24.8344 -8.25633
3806 1 1.77389 0 26.6083 -8.28159
513 3 5.32167 1.77389 24.8344 -6.19336
38 1 3.54778 1.77389 23.0606 -8.2196
295 3 3.54778 0 24.8344 -6.01944
806 1 5.32167 0 26.6083 -8.58482
1054 3 3.54778 1.77389 26.6083 -6.11353
3807 1 5.32167 0 23.0606 -8.25941
807 3 8.86945 0 23.0606 -6.45886
1055 1 7.09556 1.77389 23.0606 -8.59129
1312 2 7.09556 0 24.8344 -6.95977
1561 2 8.86945 1.77389 24.8344 -6.92552
1806 1 8.86945 0 26.6083 -8.48125
2056 2 10.6433 1.77389 23.0606 -6.987
2055 3 7.09556 1.77389 26.6083 -6.31459
2311 2 10.6433 0 24.8344 -7.07778
3055 1 10.6433 1.77389 26.6083 -8.38929
40 2 14.1911 1.77389 26.6083 -6.94669
1807 2 12.4172 0 23.0606 -7.03203
2561 2 12.4172 1.77389 24.8344 -7.03624
2807 2 12.4172 0 26.6083 -7.10841
3056 1 14.1911 1.77389 23.0606 -8.36064
3311 2 14.1911 0 24.8344 -7.01145
2808 1 15.965 0 23.0606 -8.38829
3561 3 15.965 1.77389 24.8344 -6.12854
3810 1 15.965 0 26.6083 -8.51972
514 3 1.77389 5.32167 24.8344 -6.21451
41 1 0 5.32167 23.0606 -8.31143
296 3 0 3.54778 24.8344 -6.17697
804 1 1.77389 3.54778 26.6083 -8.35806
1057 2 0 5.32167 26.6083 -6.88905
3805 3 1.77389 3.54778 23.0606 -6.16989
805 3 5.32167 3.54778 23.0606 -6.33501
1056 3 3.54778 5.32167 23.0606 -6.26589
1311 1 3.54778 3.54778 24.8344 -8.42448
1562 2 5.32167 5.32167 24.8344 -6.93206
1804 1 5.32167 3.54778 26.6083 -8.60221
2057 3 3.54778 5.32167 26.6083 -6.29451
42 3 10.6433 5.32167 26.6083 -6.29401
1805 1 8.86945 3.54778 23.0606 -8.57189
2058 2 7.09556 5.32167 23.0606 -7.02523
2310 3 7.09556 3.54778 24.8344 -6.34685
2562 3 8.86945 5.32167 24.8344 -6.43777
2805 1 8.86945 3.54778 26.6083 -8.67878
3058 2 10.6433 5.32167 23.0606 -6.96331
3057 2 7.09556 5.32167 26.6083 -6.95902
3310 3 10.6433 3.54778 24.8344 -6.22781
43 1 14.1911 5.32167 23.0606 -7.92506
297 1 14.1911 3.54778 24.8344 -8.32198
1058 3 14.1911 5.32167 26.6083 -6.43646
2806 1 12.4172 3.54778 23.0606 -8.25224
3562 1 12.4172 5.32167 24.8344 -8.40088
3808 1 12.4172 3.54778 26.6083 -8.54632
515 2 15.965 5.32167 24.8344 -6.97952
808 3 15.965 3.54778 26.6083 -6.44206
3809 2 15.965 3.54778 23.0606 -6.95113
809 1 1.77389 7.09556 23.0606 -8.16397
1059 1 0 8.86945 23.0606 -8.2681
1313 1 0 7.09556 24.8344 -8.29986
1563 1 1.77389 8.86945 24.8344 -8.55077
1811 3 1.77389 10.6433 23.0606 -6.17271
1808 3 1.77389 7.09556 26.6083 -6.26097
2060 1 0 8.86945 26.6083 -8.39257
2313 3 0 10.6433 24.8344 -6.19927
2811 3 1.77389 10.6433 26.6083 -6.26986
1809 2 5.32167 7.09556 23.0606 -6.96725
2059 2 3.54778 8.86945 23.0606 -6.90559
2312 3 3.54778 7.09556 24.8344 -6.38962
2563 1 5.32167 8.86945 24.8344 -8.65294
2812 3 5.32167 10.6433 23.0606 -6.37485
2809 3 5.32167 7.09556 26.6083 -6.45378
3059 3 3.54778 8.86945 26.6083 -6.32462
3313 2 3.54778 10.6433 24.8344 -6.84781
3813 1 5.32167 10.6433 26.6083 -8.29556
45 3 10.6433 8.86945 23.0606 -6.2679
44 3 7.09556 8.86945 26.6083 -6.23384
299 3 7.09556 10.6433 24.8344 -6.03734
298 3 10.6433 7.09556 24.8344 -6.37501
812 1 8.86945 10.6433 26.6083 -8.34187
1060 3 10.6433 8.86945 26.6083 -6.24579
1315 1 10.6433 10.6433 24.8344 -8.28511
2810 2 8.86945 7.09556 23.0606 -7.00584
3060 1 7.09556 8.86945 23.0606 -8.43519
3312 2 7.09556 7.09556 24.8344 -7.00015
3563 1 8.86945 8.86945 24.8344 -8.31222
3814 1 8.86945 10.6433 23.0606 -8.19782
3811 1 8.86945 7.09556 26.6083 -8.6612
516 3 12.4172 8.86945 24.8344 -6.31826
813 3 12.4172 10.6433 23.0606 -6.28263
810 3 12.4172 7.09556 26.6083 -6.44836
1061 3 14.1911 8.86945 23.0606 -6.30969
1314 1 14.1911 7.09556 24.8344 -8.41383
1812 1 12.4172 10.6433 26.6083 -8.3311
2061 1 14.1911 8.86945 26.6083 -8.39456
2314 2 14.1911 10.6433 24.8344 -6.96864
3812 2 12.4172 7.09556 23.0606 -6.88256
811 1 15.965 7.09556 23.0606 -8.02278
1564 2 15.965 8.86945 24.8344 -6.99807
1813 3 15.965 10.6433 23.0606 -6.52902
1810 2 15.965 7.09556 26.6083 -7.01773
2813 3 15.965 10.6433 26.6083 -6.64066
2062 1 0 12.4172 23.0606 -8.3633
2564 1 1.77389 12.4172 24.8344 -8.68979
2814 2 1.77389 14.1911 23.0606 -7.00074
3062 2 0 12.4172 26.6083 -6.98669
3314 3 0 14.1911 24.8344 -6.52072
3815 2 1.77389 14.1911 26.6083 -7.09273
46 1 3.54778 12.4172 26.6083 -8.32116
300 3 3.54778 14.1911 24.8344 -6.51067
751 3 5.32167 14.1911 26.6083 -6.15889
3061 3 3.54778 12.4172 23.0606 -6.4662
3564 1 5.32167 12.4172 24.8344 -8.52706
3816 3 5.32167 14.1911 23.0606 -6.47782
549 1 8.86945 12.4172 24.8344 -8.19426
47 2 7.09556 12.4172 23.0606 -6.9208
752 1 8.86945 14.1911 23.0606 -8.40655
1063 1 10.6433 12.4172 23.0606 -8.23816
1062 1 7.09556 12.4172 26.6083 -8.29455
1316 1 7.09556 14.1911 24.8344 -8.29483
1814 3 8.86945 14.1911 26.6083 -6.3077
2063 3 10.6433 12.4172 26.6083 -6.2738
2315 3 10.6433 14.1911 24.8344 -6.36442
1565 2 12.4172 12.4172 24.8344 -6.91559
1815 2 12.4172 14.1911 23.0606 -6.88341
2064 3 14.1911 12.4172 23.0606 -6.42271
2815 1 12.4172 14.1911 26.6083 -8.87059
3063 2 14.1911 12.4172 26.6083 -6.96972
3315 3 14.1911 14.1911 24.8344 -6.36618
2565 2 15.965 12.4172 24.8344 -7.00901
2816 1 15.965 14.1911 23.0606 -8.55252
3817 1 15.965 14.1911 26.6083 -8.68642
49 2 0 15.965 26.6083 -7.11448
3064 3 0 15.965 23.0606 -6.60222
3565 2 1.77389 15.965 24.8344 -7.09428