ITEM: TIMESTEP
0
ITEM: NUMBER OF ATOMS
4000
ITEM: BOX BOUNDS pp pp pp
0.0000000000000000e+00 3.6322460000000000e+01
0.0000000000000000e+00 3.6322460000000000e+01
0.0000000000000000e+00 3.6322460000000000e+01
ITEM: ATOMS id type x y z c_peratom
267 1 0 0 0 -8.12447
516 1 1.81612 1.81612 0 -8.14088
767 2 1.81612 0 1.81612 -6.9784
1016 3 0 1.81612 1.81612 -6.40333
1267 1 0 0 3.63225 -8.12938
1517 3 1.81612 1.81612 3.63225 -6.52744
1268 3 3.63225 0 0 -6.52329
1518 1 5.44837 1.81612 0 -8.0884
1767 3 5.44837 0 1.81612 -6.46431
2017 3 3.63225 1.81612 1.81612 -6.47535
2266 3 3.63225 0 3.63225 -6.60839
2267 1 7.26449 0 0 -8.08348
2517 3 5.44837 1.81612 3.63225 -6.51519
3017 1 7.26449 1.81612 1.81612 -8.15056
3266 3 7.26449 0 3.63225 -6.51786
1 3 10.8967 1.81612 1.81612 -6.52119
268 2 10.8967 0 3.63225 -6.93704
2518 2 9.08061 1.81612 0 -7.07391
2766 1 9.08061 0 1.81612 -8.20755
3267 1 10.8967 0 0 -8.07339
3517 2 9.08061 1.81612 3.63225 -7.01949
517 3 12.7129 1.81612 3.63225 -6.47033
3518 2 12.7129 1.81612 0 -7.03435
3767 1 12.7129 0 1.81612 -8.12257
376 3 18.1612 0 0 -6.54848
269 2 14.529 0 0 -7.04976
518 2 16.3451 1.81612 0 -7.11409
768 3 16.3451 0 1.81612 -6.49486
1017 3 14.529 1.81612 1.81612 -6.6079
1126 3 18.1612 1.81612 1.81612 -6.6288
1377 2 18.1612 0 3.63225 -6.98704
1269 2 14.529 0 3.63225 -6.97753
1519 3 16.3451 1.81612 3.63225 -6.52748
1270 3 0 3.63225 0 -6.33979
1520 2 1.81612 5.44837 0 -7.05249
1768 1 1.81612 3.63225 1.81612 -8.22031
2018 2 0 5.44837 1.81612 -6.96892
2268 3 0 3.63225 3.63225 -6.48455
2271 3 0 7.26449 0 -6.48307
2519 1 1.81612 5.44837 3.63225 -8.05323
2768 3 1.81612 7.26449 1.81612 -6.50248
3270 1 0 7.26449 3.63225 -7.90967
2 1 7.26449 5.44837 1.81612 -8.19539
270 3 7.26449 3.63225 3.63225 -6.58282
272 1 3.63225 7.26449 3.63225 -8.07654
273 1 7.26449 7.26449 0 -7.98266
1273 3 7.26449 7.26449 3.63225 -6.56016
2269 1 3.63225 3.63225 0 -7.9672
2520 1 5.44837 5.44837 0 -8.10528
2767 2 5.44837 3.63225 1.81612 -7.02318
3018 3 3.63225 5.44837 1.81612 -6.41649
3271 2 3.63225 7.26449 0 -6.99671
3269 2 7.26449 3.63225 0 -7.04776
3268 3 3.63225 3.63225 3.63225 -6.57807
3519 2 5.44837 5.44837 3.63225 -6.97629
3769 3 5.44837 7.26449 1.81612 -6.39201
271 3 10.8967 3.63225 0 -6.51248
519 2 9.08061 5.44837 3.63225 -7.08929
770 2 9.08061 7.26449 1.81612 -7.10171
1018 1 10.8967 5.44837 1.81612 -8.13873
1274 1 10.8967 7.26449 0 -7.99346
1271 1 10.8967 3.63225 3.63225 -8.02347
2272 3 10.8967 7.26449 3.63225 -6.45879
3520 2 9.08061 5.44837 0 -7.05706
3768 2 9.08061 3.63225 1.81612 -7.06787
520 1 12.7129 5.44837 0 -7.99561
769 2 12.7129 3.63225 1.81612 -7.0064
1521 3 12.7129 5.44837 3.63225 -6.30855
1770 3 12.7129 7.26449 1.81612 -6.30541
1379 3 18.1612 3.63225 0 -6.57112
1272 2 14.529 3.63225 0 -7.17907
1522 2 16.3451 5.44837 0 -7.13244
1769 2 16.3451 3.63225 1.81612 -7.03499
2002 3 18.1612 5.44837 1.81612 -6.37044
2019 2 14.529 5.44837 1.81612 -7.03772
2396 1 18.1612 7.26449 0 -7.98731
2394 3 18.1612 3.63225 3.63225 -6.4723
2273 2 14.529 7.26449 0 -6.97531
2270 1 14.529 3.63225 3.63225 -8.20337
2521 3 16.3451 5.44837 3.63225 -6.34951
2769 1 16.3451 7.26449 1.81612 -8.03505
3396 1 18.1612 7.26449 3.63225 -7.95898
3272 1 14.529 7.26449 3.63225 -7.95653
274 2 0 10.8967 3.63225 -7.02027
2522 3 1.81612 9.08061 0 -6.57013
3019 1 0 9.08061 1.81612 -8.17773
3273 3 0 10.8967 0 -6.4864
3521 2 1.81612 9.08061 3.63225 -7.05316
3770 2 1.81612 10.8967 1.81612 -7.12793
3 2 3.63225 9.08061 1.81612 -7.08311
275 1 3.63225 10.8967 0 -8.14148
521 1 5.44837 9.08061 3.63225 -8.20581
771 2 5.44837 10.8967 1.81612 -7.10386
1019 3 7.26449 9.08061 1.81612 -6.47356
1276 1 7.26449 10.8967 0 -8.09094
1275 2 3.63225 10.8967 3.63225 -7.06665
2274 2 7.26449 10.8967 3.63225 -7.04898
3522 1 5.44837 9.08061 0 -8.06362
522 1 9.08061 9.08061 0 -8.03521
1523 3 9.08061 9.08061 3.63225 -6.62045
1771 2 9.08061 10.8967 1.81612 -7.04315
2020 2 10.8967 9.08061 1.81612 -6.98342
2275 2 10.8967 10.8967 0 -6.92496
3274 1 10.8967 10.8967 3.63225 -8.0984
1524 3 12.7129 9.08061 0 -6.3678
2523 1 12.7129 9.08061 3.63225 -7.88312
2770 1 12.7129 10.8967 1.81612 -8.07462
384 3 18.1612 10.8967 3.63225 -6.32022
276 3 14.529 10.8967 3.63225 -6.23326
2524 3 16.3451 9.08061 0 -6.36113
3144 1 18.1612 9.08061 1.81612 -7.89956
3020 1 14.529 9.08061 1.81612 -8.14569
3398 1 18.1612 10.8967 0 -8.09169
3275 3 14.529 10.8967 0 -6.41059
3523 1 16.3451 9.08061 3.63225 -7.97052
3771 3 16.3451 10.8967 1.81612 -6.31813
4 2 0 12.7129 1.81612 -7.06626
523 1 1.81612 12.7129 3.63225 -8.0406
3524 1 1.81612 12.7129 0 -8.05962
524 3 5.44837 12.7129 0 -6.51529
1020 2 3.63225 12.7129 1.81612 -7.09867
1525 3 5.44837 12.7129 3.63225 -6.67812
2021 2 7.26449 12.7129 1.81612 -7.13575
1526 3 9.08061 12.7129 0 -6.49314
2525 2 9.08061 12.7129 3.63225 -7.10099
3021 3 10.8967 12.7129 1.81612 -6.41299
2526 1 12.7129 12.7129 0 -8.15065
3525 1 12.7129 12.7129 3.63225 -8.05841
5 2 14.529 12.7129 1.81612 -6.93713
129 2 18.1612 12.7129 1.81612 -7.00651
525 1 16.3451 12.7129 3.63225 -8.23725
3526 3 16.3451 12.7129 0 -6.58286
277 2 0 14.529 0 -7.03394
526 3 1.81612 16.3451 0 -6.42378
772 1 1.81612 14.529 1.81612 -8.05723
1021 1 0 16.3451 1.81612 -8.13872
1277 1 0 14.529 3.63225 -8.06023
1527 2 1.81612 16.3451 3.63225 -6.96599
2328 2 0 18.1612 0 -7.06506
2828 2 1.81612 18.1612 1.81612 -7.04119
3329 3 0 18.1612 3.63225 -6.47514
317 3 7.26449 18.1612 0 -6.62963
316 1 3.63225 18.1612 3.63225 -8.20613
1332 2 7.26449 18.1612 3.63225 -6.99921
1278 1 3.63225 14.529 0 -8.15993
1528 3 5.44837 16.3451 0 -6.48609
1772 2 5.44837 14.529 1.81612 -7.00943
2022 3 3.63225 16.3451 1.81612 -6.46346
2277 2 7.26449 14.529 0 -6.94526
2276 3 3.63225 14.529 3.63225 -6.51564
2527 3 5.44837 16.3451 3.63225 -6.62228
3022 3 7.26449 16.3451 1.81612 -6.65904
3330 1 3.63225 18.1612 0 -8.14557
3276 2 7.26449 14.529 3.63225 -7.09194
3830 2 5.44837 18.1612 1.81612 -6.97923
6 1 10.8967 16.3451 1.81612 -7.98151
278 3 10.8967 14.529 3.63225 -6.404
815 2 9.08061 18.1612 1.81612 -7.02478
1333 3 10.8967 18.1612 0 -6.55062
2331 1 10.8967 18.1612 3.63225 -8.06999
2528 2 9.08061 16.3451 0 -7.03999
2771 1 9.08061 14.529 1.81612 -8.29424
3277 1 10.8967 14.529 0 -8.03094
3527 3 9.08061 16.3451 3.63225 -6.55418
527 1 12.7129 16.3451 3.63225 -8.13334
1831 3 12.7129 18.1612 1.81612 -6.38836
3528 1 12.7129 16.3451 0 -8.14927
3772 2 12.7129 14.529 1.81612 -6.90533
386 3 18.1612 14.529 0 -6.56106
279 3 14.529 14.529 0 -6.54891
528 3 16.3451 16.3451 0 -6.65705
773 2 16.3451 14.529 1.81612 -6.98205
1131 3 18.1612 16.3451 1.81612 -6.3864
1022 3 14.529 16.3451 1.81612 -6.41637
1387 1 18.1612 14.529 3.63225 -8.15685
1279 3 14.529 14.529 3.63225 -6.3502
1529 1 16.3451 16.3451 3.63225 -8.11792
2438 2 18.1612 18.1612 0 -6.91425
2332 3 14.529 18.1612 0 -6.52195
2830 3 16.3451 18.1612 1.81612 -6.455
3455 1 18.1612 18.1612 3.63225 -8.24119
3333 2 14.529 18.1612 3.63225 -6.90261
1773 3 1.81612 0 5.44837 -6.57505
2023 3 0 1.81612 5.44837 -6.60024
2278 2 0 0 7.26449 -7.04654
2529 2 1.81612 1.81612 7.26449 -7.21669
2781 2 1.81612 0 9.08061 -7.06847
3032 2 0 1.81612 9.08061 -7.1049
7 3 7.26449 1.81612 5.44837 -6.53004
17 2 7.26449 1.81612 9.08061 -7.09723
2773 1 3.63225 0 7.26449 -8.0856
2772 1 5.44837 0 5.44837 -8.28448
3024 2 5.44837 1.81612 7.26449 -7.08698
3023 2 3.63225 1.81612 5.44837 -7.04154
3282 1 5.44837 0 9.08061 -7.94633
3278 2 7.26449 0 7.26449 -7.05567
3533 1 3.63225 1.81612 9.08061 -7.95889
533 2 10.8967 1.81612 9.08061 -7.10305
1023 2 10.8967 1.81612 5.44837 -7.04528
3529 2 9.08061 1.81612 7.26449 -7.06381
3783 1 9.08061 0 9.08061 -8.13779
3774 3 10.8967 0 7.26449 -6.54229
3773 3 9.08061 0 5.44837 -6.6657
8 1 12.7129 1.81612 7.26449 -8.30797
252 2 12.7129 0 9.08061 -7.03962
774 3 12.7129 0 5.44837 -6.46769
280 3 14.529 0 7.26449 -6.43942
529 2 16.3451 1.81612 7.26449 -6.95187
784 3 16.3451 0 9.08061 -6.42296
1033 3 14.529 1.81612 9.08061 -6.31769
1774 3 16.3451 0 5.44837 -6.43497
2007 1 18.1612 1.81612 5.44837 -8.16492
2024 2 14.529 1.81612 5.44837 -7.00731
2403 1 18.1612 0 7.26449 -8.16232
3157 3 18.1612 1.81612 9.08061 -6.4691
775 2 0 3.63225 7.26449 -7.05407
1024 3 1.81612 5.44837 7.26449 -6.56318
1284 2 1.81612 3.63225 9.08061 -7.08749
1534 1 0 5.44837 9.08061 -8.20906
2774 2 1.81612 3.63225 5.44837 -7.05761
3025 1 0 5.44837 5.44837 -8.09828
3279 2 0 7.26449 7.26449 -6.95882
3786 3 1.81612 7.26449 9.08061 -6.4509
3776 1 1.81612 7.26449 5.44837 -7.86286
9 2 3.63225 5.44837 5.44837 -7.09243
255 1 5.44837 7.26449 9.08061 -8.07294
281 1 7.26449 7.26449 7.26449 -8.01406
777 1 5.44837 7.26449 5.44837 -8.08249
1025 2 7.26449 5.44837 5.44837 -7.03531
1280 2 3.63225 3.63225 7.26449 -7.12576
1530 3 5.44837 5.44837 7.26449 -6.47442
1784 1 5.44837 3.63225 9.08061 -8.06329
1775 1 7.26449 3.63225 7.26449 -8.08024
2034 2 3.63225 5.44837 9.08061 -7.08892
2534 3 7.26449 5.44837 9.08061 -6.28901
3777 2 3.63225 7.26449 7.26449 -7.02917
3775 3 5.44837 3.63225 5.44837 -6.64316
787 1 9.08061 7.26449 9.08061 -7.95132
778 2 10.8967 7.26449 7.26449 -7.10586
776 1 9.08061 3.63225 5.44837 -8.1135
1777 2 9.08061 7.26449 5.44837 -7.03865
2026 1 10.8967 5.44837 5.44837 -8.09994
2025 2 9.08061 5.44837 7.26449 -7.08213
2283 1 9.08061 3.63225 9.08061 -8.07184
2279 3 10.8967 3.63225 7.26449 -6.48106
3035 2 10.8967 5.44837 9.08061 -7.11574
1287 2 12.7129 7.26449 9.08061 -7.0111
1776 1 12.7129 3.63225 5.44837 -7.91637
2530 2 12.7129 5.44837 7.26449 -7.13918
2784 3 12.7129 3.63225 9.08061 -6.41512
2777 1 12.7129 7.26449 5.44837 -8.01178
884 1 18.1612 3.63225 7.26449 -8.14006
1281 1 14.529 7.26449 7.26449 -8.10323
1643 1 18.1612 5.44837 9.08061 -8.17318
1787 1 16.3451 7.26449 9.08061 -8.15627
2776 1 14.529 3.63225 7.26449 -8.15483
2775 1 16.3451 3.63225 5.44837 -8.07578
3150 2 18.1612 5.44837 5.44837 -6.96029
3027 3 16.3451 5.44837 7.26449 -6.27825
3026 1 14.529 5.44837 5.44837 -7.9774
3404 3 18.1612 7.26449 7.26449 -6.37817
3285 3 16.3451 3.63225 9.08061 -6.30096
3536 3 14.529 5.44837 9.08061 -6.36814
3778 2 16.3451 7.26449 5.44837 -6.95927
10 1 0 9.08061 5.44837 -8.00614
20 3 0 9.08061 9.08061 -6.41348
779 3 1.81612 10.8967 5.44837 -6.39461
1778 2 0 10.8967 7.26449 -6.97309
2286 1 1.81612 10.8967 9.08061 -8.11871
3530 1 1.81612 9.08061 7.26449 -8.06858
11 2 5.44837 9.08061 7.26449 -7.03314
536 2 3.63225 9.08061 9.08061 -7.0588
1036 2 7.26449 9.08061 9.08061 -7.03876
1026 2 3.63225 9.08061 5.44837 -7.08308
1779 3 5.44837 10.8967 5.44837 -6.53007
2027 3 7.26449 9.08061 5.44837 -6.50339
2280 1 3.63225 10.8967 7.26449 -8.1407
2787 3 5.44837 10.8967 9.08061 -6.49899
2779 1 7.26449 10.8967 7.26449 -8.21141
530 1 9.08061 9.08061 7.26449 -8.08013
1537 1 10.8967 9.08061 9.08061 -8.22415
2778 2 9.08061 10.8967 5.44837 -7.02858
3028 2 10.8967 9.08061 5.44837 -6.99435
3288 3 9.08061 10.8967 9.08061 -6.46733
3280 3 10.8967 10.8967 7.26449 -6.43262
1027 3 12.7129 9.08061 7.26449 -6.36799
3789 1 12.7129 10.8967 9.08061 -8.16004
3779 1 12.7129 10.8967 5.44837 -7.99702
12 1 14.529 9.08061 5.44837 -8.0695
145 1 18.1612 9.08061 9.08061 -8.21976
135 1 18.1612 9.08061 5.44837 -8.23145
258 1 16.3451 10.8967 9.08061 -8.29173
780 2 16.3451 10.8967 5.44837 -6.90098
1531 3 16.3451 9.08061 7.26449 -6.34019
1887 3 18.1612 10.8967 7.26449 -6.37171
2037 2 14.529 9.08061 9.08061 -6.85381
3780 3 14.529 10.8967 7.26449 -6.32236
1028 1 0 12.7129 5.44837 -8.00129
2028 1 1.81612 12.7129 7.26449 -8.0685
2537 3 0 12.7129 9.08061 -6.38621
2029 1 3.63225 12.7129 5.44837 -8.09945
2531 2 5.44837 12.7129 7.26449 -6.93997
3038 2 3.63225 12.7129 9.08061 -6.94494
3029 3 7.26449 12.7129 5.44837 -6.70225
3539 1 7.26449 12.7129 9.08061 -8.26736
13 3 10.8967 12.7129 5.44837 -6.4898
23 2 10.8967 12.7129 9.08061 -6.94833
3030 2 9.08061 12.7129 7.26449 -7.03611
3531 1 12.7129 12.7129 7.26449 -8.12041
14 1 16.3451 12.7129 7.26449 -8.17274
539 2 14.529 12.7129 9.08061 -7.0267
1138 3 18.1612 12.7129 5.44837 -6.369
1029 1 14.529 12.7129 5.44837 -7.95753
2662 3 18.1612 12.7129 9.08061 -6.47543
326 2 0 18.1612 7.26449 -7.00195
282 2 0 14.529 7.26449 -6.8891
531 3 1.81612 16.3451 7.26449 -6.44377
829 3 1.81612 18.1612 9.08061 -6.37029
790 3 1.81612 14.529 9.08061 -6.33889
1039 1 0 16.3451 9.08061 -8.12402
1780 3 1.81612 14.529 5.44837 -6.40531
2030 3 0 16.3451 5.44837 -6.47767
3835 2 1.81612 18.1612 5.44837 -6.99583
15 2 7.26449 16.3451 5.44837 -7.10685
822 3 3.63225 18.1612 7.26449 -6.42209
821 1 5.44837 18.1612 5.44837 -8.17725
781 1 3.63225 14.529 7.26449 -8.22537
1030 2 5.44837 16.3451 7.26449 -6.98311
1252 1 5.44837 18.1612 9.08061 -7.86405
1342 1 7.26449 18.1612 7.26449 -8.16376
1290 3 5.44837 14.529 9.08061 -6.4676
1282 2 7.26449 14.529 7.26449 -7.0372
1540 1 3.63225 16.3451 9.08061 -8.05837
2040 2 7.26449 16.3451 9.08061 -7.01203
2780 3 5.44837 14.529 5.44837 -6.59672
3031 3 3.63225 16.3451 5.44837 -6.48578
1031 3 10.8967 16.3451 5.44837 -6.40125
1532 1 9.08061 16.3451 7.26449 -8.25438
1846 3 9.08061 18.1612 9.08061 -6.32174
1838 1 10.8967 18.1612 7.26449 -8.23136
1837 3 9.08061 18.1612 5.44837 -6.37656
1790 3 9.08061 14.529 9.08061 -6.59484
1781 2 10.8967 14.529 7.26449 -7.0337
2540 3 10.8967 16.3451 9.08061 -6.38001
3781 2 9.08061 14.529 5.44837 -7.11262
782 1 12.7129 14.529 5.44837 -8.1226
2031 2 12.7129 16.3451 7.26449 -6.9598
2346 1 12.7129 18.1612 9.08061 -8.03638
2289 3 12.7129 14.529 9.08061 -6.44644
2837 1 12.7129 18.1612 5.44837 -8.07255
451 2 18.1612 18.1612 7.26449 -7.00178
391 2 18.1612 14.529 7.26449 -6.96848
1149 2 18.1612 16.3451 9.08061 -7.05453
1782 1 16.3451 14.529 5.44837 -8.07473
2014 3 18.1612 16.3451 5.44837 -6.32934
2032 2 14.529 16.3451 5.44837 -7.10596
2341 1 14.529 18.1612 7.26449 -8.10116
2281 2 14.529 14.529 7.26449 -7.12563
2532 3 16.3451 16.3451 7.26449 -6.44566
2846 1 16.3451 18.1612 9.08061 -8.03309
2790 2 16.3451 14.529 9.08061 -7.06641
3041 3 14.529 16.3451 9.08061 -6.40891
3838 1 16.3451 18.1612 5.44837 -8.01664
16 2 0 1.81612 12.7129 -6.91878
3281 1 0 0 10.8967 -8.14597
3532 3 1.81612 1.81612 10.8967 -6.4327
3782 3 1.81612 0 12.7129 -6.41345
251 1 3.63225 0 10.8967 -7.93285
532 1 5.44837 1.81612 10.8967 -7.99717
783 1 5.44837 0 12.7129 -8.00668
1032 3 3.63225 1.81612 12.7129 -6.28865
1283 2 7.26449 0 10.8967 -7.0779
2033 3 7.26449 1.81612 12.7129 -6.37513
1533 2 9.08061 1.81612 10.8967 -7.04389
1783 2 9.08061 0 12.7129 -7.0282
2282 1 10.8967 0 10.8967 -8.08396
3033 2 10.8967 1.81612 12.7129 -7.11594
2533 1 12.7129 1.81612 10.8967 -8.0734
2782 2 12.7129 0 12.7129 -7.06131
18 3 14.529 1.81612 12.7129 -6.41763
141 1 18.1612 1.81612 12.7129 -8.24867
3406 2 18.1612 0 10.8967 -7.00888
3283 1 14.529 0 10.8967 -7.98264
3534 1 16.3451 1.81612 10.8967 -8.18766
3784 3 16.3451 0 12.7129 -6.42476
253 3 0 3.63225 10.8967 -6.44421
534 1 1.81612 5.44837 10.8967 -8.09821
785 3 1.81612 3.63225 12.7129 -6.38122
1034 3 0 5.44837 12.7129 -6.32421
1286 1 0 7.26449 10.8967 -8.17028
1786 3 1.81612 7.26449 12.7129 -6.44919
1285 1 3.63225 3.63225 10.8967 -8.05201
1535 2 5.44837 5.44837 10.8967 -6.92755
1785 1 5.44837 3.63225 12.7129 -8.21892
2035 3 3.63225 5.44837 12.7129 -6.39341
2285 1 3.63225 7.26449 10.8967 -8.12675
2284 3 7.26449 3.63225 10.8967 -6.34683
2785 1 5.44837 7.26449 12.7129 -8.11786
3034 3 7.26449 5.44837 12.7129 -6.40546
3286 1 7.26449 7.26449 10.8967 -7.95478
256 2 10.8967 7.26449 10.8967 -7.0573
19 2 10.8967 5.44837 12.7129 -7.07334
2535 1 9.08061 5.44837 10.8967 -8.11078
2783 3 9.08061 3.63225 12.7129 -6.4637
3284 1 10.8967 3.63225 10.8967 -8.09283
3787 3 9.08061 7.26449 12.7129 -6.57382
788 3 12.7129 7.26449 12.7129 -6.68269
3535 3 12.7129 5.44837 10.8967 -6.59975
3785 2 12.7129 3.63225 12.7129 -7.08456
254 1 14.529 3.63225 10.8967 -8.15216
394 3 18.1612 3.63225 10.8967 -6.44746
535 1 16.3451 5.44837 10.8967 -8.11426
786 2 16.3451 3.63225 12.7129 -6.99513
1144 1 18.1612 5.44837 12.7129 -8.13392
1035 2 14.529 5.44837 12.7129 -6.98332
1395 3 18.1612 7.26449 10.8967 -6.32874
1288 3 14.529 7.26449 10.8967 -6.52231
1788 3 16.3451 7.26449 12.7129 -6.35212
1536 3 1.81612 9.08061 10.8967 -6.4613
2036 2 0 9.08061 12.7129 -7.05872
2287 2 0 10.8967 10.8967 -6.91718
2786 1 1.81612 10.8967 12.7129 -8.22536
257 1 7.26449 10.8967 10.8967 -8.22933
21 1 7.26449 9.08061 12.7129 -8.15675
2536 2 5.44837 9.08061 10.8967 -7.13919
3036 2 3.63225 9.08061 12.7129 -6.98708
3287 3 3.63225 10.8967 10.8967 -6.54785
3788 2 5.44837 10.8967 12.7129 -7.01466
789 3 9.08061 10.8967 12.7129 -6.50643
1037 2 10.8967 9.08061 12.7129 -7.02147
1289 3 10.8967 10.8967 10.8967 -6.46386
3537 2 9.08061 9.08061 10.8967 -7.00582
537 3 12.7129 9.08061 10.8967 -6.58057
1789 3 12.7129 10.8967 12.7129 -6.50579
1538 3 16.3451 9.08061 10.8967 -6.37854
2145 3 18.1612 9.08061 12.7129 -6.2941
2038 3 14.529 9.08061 12.7129 -6.47815
2256 2 18.1612 10.8967 10.8967 -7.00839
2288 3 14.529 10.8967 10.8967 -6.42676
2788 1 16.3451 10.8967 12.7129 -8.26055
2538 2 1.81612 12.7129 10.8967 -6.96959
3037 3 0 12.7129 12.7129 -6.28682
22 1 3.63225 12.7129 12.7129 -8.07166
1038 3 7.26449 12.7129 12.7129 -6.48011
3538 3 5.44837 12.7129 10.8967 -6.40755
538 3 9.08061 12.7129 10.8967 -6.48222
2039 1 10.8967 12.7129 12.7129 -8.26929
1539 1 12.7129 12.7129 10.8967 -8.133
2539 2 16.3451 12.7129 10.8967 -7.0204
3163 1 18.1612 12.7129 12.7129 -8.05988
3039 3 14.529 12.7129 12.7129 -6.3641
24 1 0 16.3451 12.7129 -7.91019
1251 1 0 18.1612 10.8967 -8.13273
1845 1 1.81612 18.1612 12.7129 -8.0192
3289 1 0 14.529 10.8967 -8.08548
3540 1 1.81612 16.3451 10.8967 -7.93747
3790 3 1.81612 14.529 12.7129 -6.30576
259 1 3.63225 14.529 10.8967 -8.1794
540 1 5.44837 16.3451 10.8967 -8.15757
791 3 5.44837 14.529 12.7129 -6.33283
1040 3 3.63225 16.3451 12.7129 -6.34406
1291 2 7.26449 14.529 10.8967 -6.90017
2041 3 7.26449 16.3451 12.7129 -6.33839
2345 2 3.63225 18.1612 10.8967 -6.93905
2845 3 5.44837 18.1612 12.7129 -6.36573
3346 1 7.26449 18.1612 10.8967 -8.10219
332 1 10.8967 18.1612 10.8967 -8.07475
1541 3 9.08061 16.3451 10.8967 -6.42114
1791 2 9.08061 14.529 12.7129 -6.92774
2290 3 10.8967 14.529 10.8967 -6.40582
3040 1 10.8967 16.3451 12.7129 -8.02634
3847 1 9.08061 18.1612 12.7129 -7.98379
832 3 12.7129 18.1612 12.7129 -6.47271
2541 1 12.7129 16.3451 10.8967 -8.04461
2789 1 12.7129 14.529 12.7129 -7.90687
149 1 18.1612 16.3451 12.7129 -8.23221
25 2 14.529 16.3451 12.7129 -7.0166
1255 2 14.529 18.1612 10.8967 -6.93573
1454 1 18.1612 18.1612 10.8967 -8.09668
1848 3 16.3451 18.1612 12.7129 -6.54462
3414 2 18.1612 14.529 10.8967 -7.07362
3290 1 14.529 14.529 10.8967 -8.24383
3541 3 16.3451 16.3451 10.8967 -6.48095
3791 3 16.3451 14.529 12.7129 -6.39958
260 3 0 0 14.529 -6.47786
541 1 1.81612 1.81612 14.529 -8.47624
792 3 1.81612 0 16.3451 -6.42714
1041 2 0 1.81612 16.3451 -6.98091
1298 1 0 0 18.1612 -8.07282
1548 3 1.81612 1.81612 18.1612 -6.44142
1292 3 3.63225 0 14.529 -6.42293
1542 1 5.44837 1.81612 14.529 -8.19969
1792 1 5.44837 0 16.3451 -8.1047
2042 3 3.63225 1.81612 16.3451 -6.37263
2298 1 3.63225 0 18.1612 -8.02561
2291 1 7.26449 0 14.529 -8.0222
2549 1 5.44837 1.81612 18.1612 -8.08115
3042 3 7.26449 1.81612 16.3451 -6.32332
3298 3 7.26449 0 18.1612 -6.23602
284 2 10.8967 0 18.1612 -6.97377
26 2 10.8967 1.81612 16.3451 -7.03176
2542 1 9.08061 1.81612 14.529 -8.21398
2791 1 9.08061 0 16.3451 -8.19931
3291 2 10.8967 0 14.529 -7.0642
3549 3 9.08061 1.81612 18.1612 -6.39839
502 2 12.7129 1.81612 18.1612 -7.05726
3542 3 12.7129 1.81612 14.529 -6.55557
3792 1 12.7129 0 16.3451 -8.33788
401 2 18.1612 0 14.529 -7.03715
261 3 14.529 0 14.529 -6.4866
542 1 16.3451 1.81612 14.529 -8.15086
793 2 16.3451 0 16.3451 -6.94478
1151 1 18.1612 1.81612 16.3451 -8.15402
1042 1 14.529 1.81612 16.3451 -8.15759
1407 3 18.1612 0 18.1612 -6.57417
1300 3 14.529 0 18.1612 -6.53514
1550 3 16.3451 1.81612 18.1612 -6.52916
1293 2 0 3.63225 14.529 -6.97649
1543 1 1.81612 5.44837 14.529 -8.49091
1793 2 1.81612 3.63225 16.3451 -6.98891
2043 3 0 5.44837 16.3451 -6.41352
2300 3 0 3.63225 18.1612 -6.41639
2293 3 0 7.26449 14.529 -6.39557
2551 1 1.81612 5.44837 18.1612 -8.36456
2793 3 1.81612 7.26449 16.3451 -6.54089
3302 3 0 7.26449 18.1612 -6.40075
263 2 7.26449 7.26449 14.529 -7.02529
288 3 3.63225 7.26449 18.1612 -6.62329
286 1 7.26449 3.63225 18.1612 -8.08877
27 2 7.26449 5.44837 16.3451 -7.13601
1304 2 7.26449 7.26449 18.1612 -7.08794
2292 3 3.63225 3.63225 14.529 -6.45216
2543 2 5.44837 5.44837 14.529 -6.98149
2792 2 5.44837 3.63225 16.3451 -6.99874
3043 2 3.63225 5.44837 16.3451 -7.04645
3300 3 3.63225 3.63225 18.1612 -6.46907
3293 3 3.63225 7.26449 14.529 -6.60138
3292 3 7.26449 3.63225 14.529 -6.45019
3551 2 5.44837 5.44837 18.1612 -7.0632
3794 3 5.44837 7.26449 16.3451 -6.76638
262 3 10.8967 3.63225 14.529 -6.61436
504 2 9.08061 5.44837 18.1612 -7.00876
795 1 9.08061 7.26449 16.3451 -8.23039
1043 2 10.8967 5.44837 16.3451 -7.01691
1302 3 10.8967 3.63225 18.1612 -6.52893
1295 2 10.8967 7.26449 14.529 -7.0651
2304 3 10.8967 7.26449 18.1612 -6.52558
3543 1 9.08061 5.44837 14.529 -8.31621
3793 2 9.08061 3.63225 16.3451 -6.97278
543 2 12.7129 5.44837 14.529 -7.01848
794 1 12.7129 3.63225 16.3451 -8.22247
1552 1 12.7129 5.44837 18.1612 -8.31465
1795 3 12.7129 7.26449 16.3451 -6.56067
1402 3 18.1612 3.63225 14.529 -6.35715
1294 3 14.529 3.63225 14.529 -6.4706
1544 1 16.3451 5.44837 14.529 -8.18873
1794 3 16.3451 3.63225 16.3451 -6.37479
2152 1 18.1612 5.44837 16.3451 -8.11011
2044 3 14.529 5.44837 16.3451 -6.41785
2262 1 18.1612 7.26449 14.529 -8.01538
2410 1 18.1612 3.63225 18.1612 -8.05997
2302 2 14.529 3.63225 18.1612 -7.01238
2294 1 14.529 7.26449 14.529 -8.26226
2553 2 16.3451 5.44837 18.1612 -6.96892
2794 3 16.3451 7.26449 16.3451 -6.30879
3427 1 18.1612 7.26449 18.1612 -8.093
3304 1 14.529 7.26449 18.1612 -8.25311
290 1 0 10.8967 18.1612 -8.04279
2544 3 1.81612 9.08061 14.529 -6.48907
3044 2 0 9.08061 16.3451 -6.99345
3294 1 0 10.8967 14.529 -7.91852
3553 2 1.81612 9.08061 18.1612 -6.99326
3795 1 1.81612 10.8967 16.3451 -8.16055
264 3 3.63225 10.8967 14.529 -6.53187
28 3 3.63225 9.08061 16.3451 -6.6049
506 2 5.44837 9.08061 18.1612 -7.10126
796 2 5.44837 10.8967 16.3451 -7.02205
1044 2 7.26449 9.08061 16.3451 -7.10488
1306 3 3.63225 10.8967 18.1612 -6.53502
1296 2 7.26449 10.8967 14.529 -7.00758
2306 3 7.26449 10.8967 18.1612 -6.61361
3544 2 5.44837 9.08061 14.529 -7.10976
544 3 9.08061 9.08061 14.529 -6.65073
1554 3 9.08061 9.08061 18.1612 -6.59415
1796 2 9.08061 10.8967 16.3451 -6.97121
2045 3 10.8967 9.08061 16.3451 -6.64873
2295 3 10.8967 10.8967 14.529 -6.62608
3306 3 10.8967 10.8967 18.1612 -6.60453
1545 2 12.7129 9.08061 14.529 -6.97745
2555 2 12.7129 9.08061 18.1612 -6.95344
2795 2 12.7129 10.8967 16.3451 -7.06032
415 1 18.1612 10.8967 18.1612 -7.98829
292 2 14.529 10.8967 18.1612 -7.02312
2545 1 16.3451 9.08061 14.529 -8.24305
3169 2 18.1612 9.08061 16.3451 -7.01477
3045 3 14.529 9.08061 16.3451 -6.48008
3419 3 18.1612 10.8967 14.529 -6.35522
3295 3 14.529 10.8967 14.529 -6.54558
3555 1 16.3451 9.08061 18.1612 -8.08693
3796 3 16.3451 10.8967 16.3451 -6.45944
29 1 0 12.7129 16.3451 -7.91176
508 1 1.81612 12.7129 18.1612 -8.0493
3545 2 1.81612 12.7129 14.529 -6.97661
545 1 5.44837 12.7129 14.529 -8.11299
1045 3 3.63225 12.7129 16.3451 -6.39916
1556 3 5.44837 12.7129 18.1612 -6.48688
2046 1 7.26449 12.7129 16.3451 -8.33152
1546 3 9.08061 12.7129 14.529 -6.48575
2557 3 9.08061 12.7129 18.1612 -6.60933
3046 3 10.8967 12.7129 16.3451 -6.58141
2546 3 12.7129 12.7129 14.529 -6.49086
3557 3 12.7129 12.7129 18.1612 -6.59717
154 2 18.1612 12.7129 16.3451 -6.96863
30 2 14.529 12.7129 16.3451 -7.01267
510 3 16.3451 12.7129 18.1612 -6.38244
3546 3 16.3451 12.7129 14.529 -6.42253
265 2 0 14.529 14.529 -7.04068
546 3 1.81612 16.3451 14.529 -6.41209
797 2 1.81612 14.529 16.3451 -7.01321
1046 2 0 16.3451 16.3451 -6.99022
1308 1 0 14.529 18.1612 -8.19911
1558 3 1.81612 16.3451 18.1612 -6.42557
2353 1 0 18.1612 14.529 -8.28585
2853 3 1.81612 18.1612 16.3451 -6.44371
3359 2 0 18.1612 18.1612 -6.94158
347 1 3.63225 18.1612 18.1612 -8.07147
340 1 7.26449 18.1612 14.529 -8.099
1348 2 7.26449 18.1612 18.1612 -6.99524
1297 1 3.63225 14.529 14.529 -8.36522
1547 3 5.44837 16.3451 14.529 -6.34514
1797 3 5.44837 14.529 16.3451 -6.34621
2047 3 3.63225 16.3451 16.3451 -6.37413
2308 1 3.63225 14.529 18.1612 -8.20993
2296 1 7.26449 14.529 14.529 -8.39879
2559 1 5.44837 16.3451 18.1612 -8.10718
3047 2 7.26449 16.3451 16.3451 -7.04013
3354 2 3.63225 18.1612 14.529 -6.86305
3308 2 7.26449 14.529 18.1612 -6.98935
3855 1 5.44837 18.1612 16.3451 -8.08314
294 3 10.8967 14.529 18.1612 -6.58797
31 2 10.8967 16.3451 16.3451 -7.02327
840 1 9.08061 18.1612 16.3451 -8.02816
1262 3 10.8967 18.1612 14.529 -6.43134
2363 2 10.8967 18.1612 18.1612 -7.10872
2547 3 9.08061 16.3451 14.529 -6.36196
2796 3 9.08061 14.529 16.3451 -6.46794
3296 1 10.8967 14.529 14.529 -8.16655
3559 1 9.08061 16.3451 18.1612 -8.13129
512 2 12.7129 16.3451 18.1612 -7.03615
1856 2 12.7129 18.1612 16.3451 -7.12089
3547 1 12.7129 16.3451 14.529 -8.11538
3797 2 12.7129 14.529 16.3451 -6.99741
406 1 18.1612 14.529 14.529 -8.22129
266 1 14.529 14.529 14.529 -8.32196
547 3 16.3451 16.3451 14.529 -6.46824
798 3 16.3451 14.529 16.3451 -6.33178
1156 3 18.1612 16.3451 16.3451 -6.45354
1047 3 14.529 16.3451 16.3451 -6.48527
1417 1 18.1612 14.529 18.1612 -8.20388
1310 1 14.529 14.529 18.1612 -8.1532
1560 1 16.3451 16.3451 18.1612 -8.15764
2463 3 18.1612 18.1612 14.529 -6.5658
2355 2 14.529 18.1612 14.529 -7.04357
2855 3 16.3451 18.1612 16.3451 -6.57846
3469 3 18.1612 18.1612 18.1612 -6.62821
3363 2 14.529 18.1612 18.1612 -6.97719
1798 2 1.81612 0 19.9774 -7.08853
2048 1 0 1.81612 19.9774 -8.07699
2297 2 0 0 21.7935 -7.08514
2548 2 1.81612 1.81612 21.7935 -7.01666
32 3 7.26449 1.81612 19.9774 -6.26647
283 1 7.26449 0 21.7935 -8.21569
2797 3 5.44837 0 19.9774 -6.25728
3048 1 3.63225 1.81612 19.9774 -8.01186
3297 1 3.63225 0 21.7935 -8.12035
3548 1 5.44837 1.81612 21.7935 -7.90231
501 3 9.08061 1.81612 21.7935 -6.41734
1048 3 10.8967 1.81612 19.9774 -6.44678
1299 2 10.8967 0 21.7935 -6.92607
3798 1 9.08061 0 19.9774 -8.30891
799 1 12.7129 0 19.9774 -8.30037
1549 3 12.7129 1.81612 21.7935 -6.51892
1799 2 16.3451 0 19.9774 -6.96166
2157 2 18.1612 1.81612 19.9774 -6.98521
2049 2 14.529 1.81612 19.9774 -7.02245
2408 3 18.1612 0 21.7935 -6.51312
2299 3 14.529 0 21.7935 -6.56195
2550 3 16.3451 1.81612 21.7935 -6.53703
287 1 0 7.26449 21.7935 -7.89787
2798 3 1.81612 3.63225 19.9774 -6.40345
3049 3 0 5.44837 19.9774 -6.28893
3299 1 0 3.63225 21.7935 -8.06382
3550 3 1.81612 5.44837 21.7935 -6.38792
3800 1 1.81612 7.26449 19.9774 -8.13691
503 1 5.44837 5.44837 21.7935 -8.07867
33 2 3.63225 5.44837 19.9774 -6.97775
285 2 3.63225 3.63225 21.7935 -7.06143
801 1 5.44837 7.26449 19.9774 -8.16249
1049 1 7.26449 5.44837 19.9774 -8.06973
1303 2 3.63225 7.26449 21.7935 -7.00433
1301 2 7.26449 3.63225 21.7935 -7.02485
2303 3 7.26449 7.26449 21.7935 -6.46778
3799 1 5.44837 3.63225 19.9774 -7.94973
800 1 9.08061 3.63225 19.9774 -8.22037
1551 3 9.08061 5.44837 21.7935 -6.47516
1801 3 9.08061 7.26449 19.9774 -6.51382
2050 3 10.8967 5.44837 19.9774 -6.51469
2301 1 10.8967 3.63225 21.7935 -8.26809
3303 2 10.8967 7.26449 21.7935 -6.93936
1800 2 12.7129 3.63225 19.9774 -6.93329
2552 3 12.7129 5.44837 21.7935 -6.53338
2800 3 12.7129 7.26449 19.9774 -6.45672
413 2 18.1612 7.26449 21.7935 -7.15865
289 3 14.529 7.26449 21.7935 -6.55204
2799 3 16.3451 3.63225 19.9774 -6.53806
3174 2 18.1612 5.44837 19.9774 -7.13084
3050 3 14.529 5.44837 19.9774 -6.52837
3425 1 18.1612 3.63225 21.7935 -8.04458
3301 1 14.529 3.63225 21.7935 -8.20321
3552 2 16.3451 5.44837 21.7935 -7.06818
3801 2 16.3451 7.26449 19.9774 -7.10576
505 2 1.81612 9.08061 21.7935 -7.03441
34 1 0 9.08061 19.9774 -8.02754
802 2 1.81612 10.8967 19.9774 -6.9706
1305 3 0 10.8967 21.7935 -6.51879
1050 2 3.63225 9.08061 19.9774 -7.0682
1553 3 5.44837 9.08061 21.7935 -6.54993
1802 1 5.44837 10.8967 19.9774 -8.18465
2051 2 7.26449 9.08061 19.9774 -6.94521
2305 1 3.63225 10.8967 21.7935 -8.10504
3305 1 7.26449 10.8967 21.7935 -8.23264
291 1 10.8967 10.8967 21.7935 -8.03461
2554 3 9.08061 9.08061 21.7935 -6.47362
2801 3 9.08061 10.8967 19.9774 -6.51976
3051 1 10.8967 9.08061 19.9774 -8.27464
3554 1 12.7129 9.08061 21.7935 -8.10801
3802 1 12.7129 10.8967 19.9774 -8.12354
507 1 16.3451 9.08061 21.7935 -8.19684
159 3 18.1612 9.08061 19.9774 -6.46876
35 2 14.529 9.08061 19.9774 -7.04114
803 1 16.3451 10.8967 19.9774 -7.95872
1415 2 18.1612 10.8967 21.7935 -7.00889
1307 2 14.529 10.8967 21.7935 -7.11283
1051 3 0 12.7129 19.9774 -6.53684
1555 3 1.81612 12.7129 21.7935 -6.59847
2052 2 3.63225 12.7129 19.9774 -7.03151
2556 1 5.44837 12.7129 21.7935 -7.90733
3052 2 7.26449 12.7129 19.9774 -6.97565
36 2 10.8967 12.7129 19.9774 -6.95696
3556 3 9.08061 12.7129 21.7935 -6.5662
509 2 12.7129 12.7129 21.7935 -7.14156
1161 1 18.1612 12.7129 19.9774 -8.04316
1052 1 14.529 12.7129 19.9774 -8.04479
1557 3 16.3451 12.7129 21.7935 -6.37226
346 1 0 18.1612 21.7935 -8.1298
1803 3 1.81612 14.529 19.9774 -6.51069
2053 2 0 16.3451 19.9774 -6.98305
2307 3 0 14.529 21.7935 -6.6402
2558 2 1.81612 16.3451 21.7935 -7.0927
3860 1 1.81612 18.1612 19.9774 -8.15837
37 2 7.26449 16.3451 19.9774 -6.95324
293 3 7.26449 14.529 21.7935 -6.42659
846 3 5.44837 18.1612 19.9774 -6.43173
1347 3 3.63225 18.1612 21.7935 -6.4766
2362 3 7.26449 18.1612 21.7935 -6.38839
2802 1 5.44837 14.529 19.9774 -8.04944
3053 3 3.63225 16.3451 19.9774 -6.38829
3307 2 3.63225 14.529 21.7935 -7.11765
3558 1 5.44837 16.3451 21.7935 -8.17678
511 1 9.08061 16.3451 21.7935 -8.00465
1053 1 10.8967 16.3451 19.9774 -8.07651
1309 2 10.8967 14.529 21.7935 -7.09688
1862 1 9.08061 18.1612 19.9774 -7.99413
3362 1 10.8967 18.1612 21.7935 -7.99539
3803 3 9.08061 14.529 19.9774 -6.52917
804 2 12.7129 14.529 19.9774 -7.05588
1559 1 12.7129 16.3451 21.7935 -8.00599
2861 3 12.7129 18.1612 19.9774 -6.43138
472 2 18.1612 18.1612 21.7935 -7.05342
350 3 14.529 18.1612 21.7935 -6.48202
1804 1 16.3451 14.529 19.9774 -8.01917
2162 3 18.1612 16.3451 19.9774 -6.54486
2054 1 14.529 16.3451 19.9774 -8.09704
2418 2 18.1612 14.529 21.7935 -6.95028
2309 3 14.529 14.529 21.7935 -6.32108
2560 2 16.3451 16.3451 21.7935 -6.97448
3862 3 16.3451 18.1612 19.9774 -6.62863