ITEM: TIMESTEP
0
ITEM: NUMBER OF ATOMS
4000
ITEM: BOX BOUNDS pp pp pp
0.0000000000000000e+00 3.5525530000000003e+01
0.0000000000000000e+00 3.5525530000000003e+01
0.0000000000000000e+00 3.5525530000000003e+01
ITEM: ATOMS id type x y z c_peratom
267 1 0 0 0 -8.4997
517 3 1.77628 1.77628 0 -6.37089
768 1 1.77628 0 1.77628 -8.46269
1016 2 0 1.77628 1.77628 -6.96504
1270 3 0 3.55255 0 -6.47969
1268 2 3.55255 0 0 -6.90911
1267 1 0 0 3.55255 -8.41851
1517 2 1.77628 1.77628 3.55255 -7.00221
1767 2 1.77628 3.55255 1.77628 -6.95738
2017 3 3.55255 1.77628 1.77628 -6.43106
2269 3 3.55255 3.55255 0 -6.36522
2268 3 0 3.55255 3.55255 -6.5149
2266 1 3.55255 0 3.55255 -8.61363
3268 3 3.55255 3.55255 3.55255 -6.39719
1518 3 5.32883 1.77628 0 -6.54609
1766 2 5.32883 0 1.77628 -6.9138
2518 3 5.32883 1.77628 3.55255 -6.33552
2768 1 5.32883 3.55255 1.77628 -8.621
270 1 7.10511 3.55255 3.55255 -8.11708
2267 1 7.10511 0 0 -8.65364
2519 1 8.88138 1.77628 0 -8.32895
2767 1 8.88138 0 1.77628 -8.43362
3017 2 7.10511 1.77628 1.77628 -6.95455
3269 2 7.10511 3.55255 0 -6.98778
3266 2 7.10511 0 3.55255 -6.958
3517 1 8.88138 1.77628 3.55255 -8.17415
3769 2 8.88138 3.55255 1.77628 -6.9629
1 1 10.6577 1.77628 1.77628 -8.47184
271 1 10.6577 3.55255 0 -8.31818
269 1 14.2102 0 0 -8.31855
268 2 10.6577 0 3.55255 -6.99905
518 2 12.4339 1.77628 3.55255 -7.03573
770 3 12.4339 3.55255 1.77628 -6.31984
1017 2 14.2102 1.77628 1.77628 -6.9825
1272 1 14.2102 3.55255 0 -8.48946
1271 3 10.6577 3.55255 3.55255 -6.40641
1269 3 14.2102 0 3.55255 -6.67094
2270 3 14.2102 3.55255 3.55255 -6.60499
3267 3 10.6577 0 0 -6.29289
3518 3 12.4339 1.77628 0 -6.21942
3768 3 12.4339 0 1.77628 -6.45985
519 1 15.9865 1.77628 0 -8.07572
769 2 15.9865 0 1.77628 -6.98675
1519 2 15.9865 1.77628 3.55255 -7.00988
1768 2 15.9865 3.55255 1.77628 -6.95136
1520 2 1.77628 5.32883 0 -6.9358
2018 1 0 5.32883 1.77628 -8.6513
2520 2 1.77628 5.32883 3.55255 -7.0258
3018 1 3.55255 5.32883 1.77628 -8.74881
2521 3 5.32883 5.32883 0 -6.20576
3519 3 5.32883 5.32883 3.55255 -6.27509
2 1 7.10511 5.32883 1.77628 -8.64511
520 3 8.88138 5.32883 3.55255 -6.30753
3520 2 8.88138 5.32883 0 -7.02194
521 3 12.4339 5.32883 0 -6.24674
1018 1 10.6577 5.32883 1.77628 -8.37977
1521 1 12.4339 5.32883 3.55255 -8.74261
2019 3 14.2102 5.32883 1.77628 -6.39405
1522 2 15.9865 5.32883 0 -6.94365
2522 1 15.9865 5.32883 3.55255 -8.67133
3 2 3.55255 8.88138 1.77628 -7.06267
272 2 3.55255 7.10511 3.55255 -7.04783
2271 2 0 7.10511 0 -7.02865
2523 2 1.77628 8.88138 0 -7.05589
2769 2 1.77628 7.10511 1.77628 -7.06442
3019 2 0 8.88138 1.77628 -7.00002
3271 3 3.55255 7.10511 0 -6.40651
3270 3 0 7.10511 3.55255 -6.51232
3521 1 1.77628 8.88138 3.55255 -8.68905
522 3 5.32883 8.88138 3.55255 -6.59943
3522 2 5.32883 8.88138 0 -6.95446
3770 3 5.32883 7.10511 1.77628 -6.44474
273 2 7.10511 7.10511 0 -6.95896
523 2 8.88138 8.88138 0 -6.9947
771 2 8.88138 7.10511 1.77628 -6.94782
1019 1 7.10511 8.88138 1.77628 -8.77205
1273 3 7.10511 7.10511 3.55255 -6.33739
1523 3 8.88138 8.88138 3.55255 -6.45266
1274 1 10.6577 7.10511 0 -8.26207
1524 1 12.4339 8.88138 0 -8.57671
1769 2 12.4339 7.10511 1.77628 -6.96949
2020 3 10.6577 8.88138 1.77628 -6.64644
2273 1 14.2102 7.10511 0 -8.6051
2272 2 10.6577 7.10511 3.55255 -6.96969
2524 2 12.4339 8.88138 3.55255 -7.13162
3020 3 14.2102 8.88138 1.77628 -6.59348
3272 2 14.2102 7.10511 3.55255 -6.96176
2525 2 15.9865 8.88138 0 -6.98504
2770 3 15.9865 7.10511 1.77628 -6.38154
3523 2 15.9865 8.88138 3.55255 -6.96159
4 3 0 12.4339 1.77628 -6.48432
277 2 0 14.2102 0 -6.94351
275 3 3.55255 10.6577 0 -6.58127
274 3 0 10.6577 3.55255 -6.61098
524 2 1.77628 12.4339 3.55255 -7.06079
773 1 1.77628 14.2102 1.77628 -8.4377
1020 2 3.55255 12.4339 1.77628 -7.06339
1278 2 3.55255 14.2102 0 -7.01286
1277 2 0 14.2102 3.55255 -6.96055
1275 2 3.55255 10.6577 3.55255 -7.0793
2276 1 3.55255 14.2102 3.55255 -8.48748
3273 1 0 10.6577 0 -8.44025
3524 2 1.77628 12.4339 0 -6.96874
3771 2 1.77628 10.6577 1.77628 -7.05565
525 3 5.32883 12.4339 0 -6.56664
772 1 5.32883 10.6577 1.77628 -8.63159
1525 2 5.32883 12.4339 3.55255 -7.07325
1771 2 5.32883 14.2102 1.77628 -6.95643
1276 3 7.10511 10.6577 0 -6.42794
1526 3 8.88138 12.4339 0 -6.40366
1770 2 8.88138 10.6577 1.77628 -6.84773
2021 1 7.10511 12.4339 1.77628 -8.69043
2277 2 7.10511 14.2102 0 -7.0051
2274 3 7.10511 10.6577 3.55255 -6.42945
2526 3 8.88138 12.4339 3.55255 -6.22541
2772 1 8.88138 14.2102 1.77628 -8.32317
3276 3 7.10511 14.2102 3.55255 -6.3611
5 1 14.2102 12.4339 1.77628 -8.30003
279 2 14.2102 14.2102 0 -6.99766
278 1 10.6577 14.2102 3.55255 -8.15588
276 3 14.2102 10.6577 3.55255 -6.47789
1279 1 14.2102 14.2102 3.55255 -8.30283
2275 3 10.6577 10.6577 0 -6.58958
2527 2 12.4339 12.4339 0 -7.02514
2771 2 12.4339 10.6577 1.77628 -7.0142
3021 1 10.6577 12.4339 1.77628 -8.54401
3277 3 10.6577 14.2102 0 -6.33266
3275 2 14.2102 10.6577 0 -7.01204
3274 3 10.6577 10.6577 3.55255 -6.50324
3525 2 12.4339 12.4339 3.55255 -6.96404
3773 1 12.4339 14.2102 1.77628 -8.24878
526 1 15.9865 12.4339 3.55255 -8.18985
774 2 15.9865 14.2102 1.77628 -7.03095
3526 1 15.9865 12.4339 0 -8.597
3772 3 15.9865 10.6577 1.77628 -6.35808
527 1 1.77628 15.9865 0 -8.37256
1021 2 0 15.9865 1.77628 -7.00472
1527 1 1.77628 15.9865 3.55255 -8.47059
2022 3 3.55255 15.9865 1.77628 -6.40993
1528 3 5.32883 15.9865 0 -6.45935
2528 3 5.32883 15.9865 3.55255 -6.4173
2529 1 8.88138 15.9865 0 -8.21867
3022 1 7.10511 15.9865 1.77628 -8.49049
3527 2 8.88138 15.9865 3.55255 -6.83693
6 3 10.6577 15.9865 1.77628 -6.18469
528 1 12.4339 15.9865 3.55255 -8.45509
1022 2 14.2102 15.9865 1.77628 -6.96636
3528 3 12.4339 15.9865 0 -6.47812
529 1 15.9865 15.9865 0 -8.68304
1529 2 15.9865 15.9865 3.55255 -6.91322
776 2 0 3.55255 7.10511 -7.06967
1284 3 1.77628 3.55255 8.88138 -6.72589
1280 2 3.55255 3.55255 7.10511 -7.044
1772 1 1.77628 0 5.32883 -8.48205
2023 2 0 1.77628 5.32883 -6.92084
2278 2 0 0 7.10511 -6.9877
2530 3 1.77628 1.77628 7.10511 -6.6033
2782 3 1.77628 0 8.88138 -6.52439
2775 1 1.77628 3.55255 5.32883 -8.76505
2774 3 3.55255 0 7.10511 -6.5901
3032 3 0 1.77628 8.88138 -6.53043
3023 2 3.55255 1.77628 5.32883 -6.95495
3533 2 3.55255 1.77628 8.88138 -7.01992
1783 3 5.32883 3.55255 8.88138 -6.51188
2773 2 5.32883 0 5.32883 -6.94368
3024 2 5.32883 1.77628 7.10511 -6.98168
3282 3 5.32883 0 8.88138 -6.592
3776 1 5.32883 3.55255 5.32883 -8.40784
7 1 7.10511 1.77628 5.32883 -8.40572
17 3 7.10511 1.77628 8.88138 -6.57214
777 2 8.88138 3.55255 5.32883 -6.90927
1774 3 7.10511 3.55255 7.10511 -6.34031
2283 1 8.88138 3.55255 8.88138 -8.63999
3278 3 7.10511 0 7.10511 -6.55639
3529 3 8.88138 1.77628 7.10511 -6.49727
3784 2 8.88138 0 8.88138 -7.07465
3774 1 8.88138 0 5.32883 -8.72191
8 2 12.4339 1.77628 7.10511 -7.10954
252 3 12.4339 0 8.88138 -6.48038
280 3 14.2102 0 7.10511 -6.57005
534 2 10.6577 1.77628 8.88138 -7.03577
775 3 12.4339 0 5.32883 -6.78042
1033 1 14.2102 1.77628 8.88138 -8.39838
1023 3 10.6577 1.77628 5.32883 -6.61972
1775 2 12.4339 3.55255 5.32883 -7.09509
2024 2 14.2102 1.77628 5.32883 -7.15093
2279 2 10.6577 3.55255 7.10511 -7.09507
2785 2 12.4339 3.55255 8.88138 -7.06374
2777 2 14.2102 3.55255 7.10511 -7.08755
3775 3 10.6577 0 7.10511 -6.70087
530 2 15.9865 1.77628 7.10511 -7.00737
785 3 15.9865 0 8.88138 -6.29445
1773 3 15.9865 0 5.32883 -6.42643
2776 2 15.9865 3.55255 5.32883 -7.03463
3285 1 15.9865 3.55255 8.88138 -8.30754
9 2 3.55255 5.32883 5.32883 -6.97239
1024 2 1.77628 5.32883 7.10511 -7.04235
1534 2 0 5.32883 8.88138 -7.10618
2034 1 3.55255 5.32883 8.88138 -8.67607
3025 3 0 5.32883 5.32883 -6.56221
1530 1 5.32883 5.32883 7.10511 -8.44208
1025 1 7.10511 5.32883 5.32883 -8.35423
2025 2 8.88138 5.32883 7.10511 -6.9248
2535 3 7.10511 5.32883 8.88138 -6.25661
2026 3 10.6577 5.32883 5.32883 -6.49394
2531 3 12.4339 5.32883 7.10511 -6.5032
3035 2 10.6577 5.32883 8.88138 -7.05475
3026 3 14.2102 5.32883 5.32883 -6.53568
3536 3 14.2102 5.32883 8.88138 -6.37962
3027 2 15.9865 5.32883 7.10511 -6.9648
10 1 0 8.88138 5.32883 -8.54018
20 3 0 8.88138 8.88138 -6.59642
537 2 3.55255 8.88138 8.88138 -6.97151
1026 3 3.55255 8.88138 5.32883 -6.57335
3279 3 0 7.10511 7.10511 -6.50217
3530 1 1.77628 8.88138 7.10511 -8.66253
3787 2 1.77628 7.10511 8.88138 -7.07811
3778 3 3.55255 7.10511 7.10511 -6.53111
3777 2 1.77628 7.10511 5.32883 -7.00225
11 2 5.32883 8.88138 7.10511 -6.96527
255 2 5.32883 7.10511 8.88138 -7.01481
778 3 5.32883 7.10511 5.32883 -6.48545
281 1 7.10511 7.10511 7.10511 -8.13306
531 1 8.88138 8.88138 7.10511 -7.95564
788 1 8.88138 7.10511 8.88138 -8.05304
1036 1 7.10511 8.88138 8.88138 -8.22359
1776 1 8.88138 7.10511 5.32883 -8.42805
2027 2 7.10511 8.88138 5.32883 -6.96614
12 2 14.2102 8.88138 5.32883 -6.98904
779 1 10.6577 7.10511 7.10511 -8.38853
1027 3 12.4339 8.88138 7.10511 -6.26054
1287 1 12.4339 7.10511 8.88138 -8.29404
1281 1 14.2102 7.10511 7.10511 -8.71008
1537 1 10.6577 8.88138 8.88138 -8.16291
2037 1 14.2102 8.88138 8.88138 -8.26448
2778 3 12.4339 7.10511 5.32883 -6.49071
3028 2 10.6577 8.88138 5.32883 -7.01276
1531 3 15.9865 8.88138 7.10511 -6.35345
1786 2 15.9865 7.10511 8.88138 -6.86754
3779 3 15.9865 7.10511 5.32883 -6.46461
282 3 0 14.2102 7.10511 -6.46794
791 1 1.77628 14.2102 8.88138 -8.69615
782 3 3.55255 14.2102 7.10511 -6.48513
780 3 1.77628 10.6577 5.32883 -6.51752
1028 3 0 12.4339 5.32883 -6.63739
1779 1 1.77628 14.2102 5.32883 -8.64806
1777 2 0 10.6577 7.10511 -6.99564
2029 2 3.55255 12.4339 5.32883 -7.01467
2028 2 1.77628 12.4339 7.10511 -6.96981
2286 3 1.77628 10.6577 8.88138 -6.48187
2280 1 3.55255 10.6577 7.10511 -8.57655
2538 2 0 12.4339 8.88138 -6.98943
3038 1 3.55255 12.4339 8.88138 -8.42737
1290 3 5.32883 14.2102 8.88138 -6.28402
1778 2 5.32883 10.6577 5.32883 -7.09119
2532 3 5.32883 12.4339 7.10511 -6.39501
2788 3 5.32883 10.6577 8.88138 -6.25769
2781 2 5.32883 14.2102 5.32883 -6.92034
1282 1 7.10511 14.2102 7.10511 -8.43145
1789 2 8.88138 14.2102 8.88138 -6.96573
2780 2 7.10511 10.6577 7.10511 -7.02607
2779 1 8.88138 10.6577 5.32883 -8.55504
3030 2 8.88138 12.4339 7.10511 -6.9826
3029 2 7.10511 12.4339 5.32883 -6.98009
3288 1 8.88138 10.6577 8.88138 -7.97205
3539 1 7.10511 12.4339 8.88138 -8.26386
3782 3 8.88138 14.2102 5.32883 -6.20308
13 1 10.6577 12.4339 5.32883 -8.44831
23 1 10.6577 12.4339 8.88138 -8.27314
540 1 14.2102 12.4339 8.88138 -8.37702
783 3 12.4339 14.2102 5.32883 -6.15216
1029 1 14.2102 12.4339 5.32883 -8.34067
1780 1 10.6577 14.2102 7.10511 -8.29569
2289 3 12.4339 14.2102 8.88138 -6.17021
2281 2 14.2102 14.2102 7.10511 -6.88919
3280 2 10.6577 10.6577 7.10511 -7.00909
3531 2 12.4339 12.4339 7.10511 -6.94708
3790 2 12.4339 10.6577 8.88138 -6.91391
3781 1 14.2102 10.6577 7.10511 -8.21737
3780 2 12.4339 10.6577 5.32883 -7.031
14 2 15.9865 12.4339 7.10511 -7.01767
258 1 15.9865 10.6577 8.88138 -8.42155
781 1 15.9865 10.6577 5.32883 -8.36924
1781 3 15.9865 14.2102 5.32883 -6.22921
2791 2 15.9865 14.2102 8.88138 -7.00142
532 3 1.77628 15.9865 7.10511 -6.43602
1039 3 0 15.9865 8.88138 -6.37771
1540 2 3.55255 15.9865 8.88138 -6.98244
2030 3 0 15.9865 5.32883 -6.40007
3031 3 3.55255 15.9865 5.32883 -6.3809
1030 3 5.32883 15.9865 7.10511 -6.48203
15 1 7.10511 15.9865 5.32883 -8.57781
1532 1 8.88138 15.9865 7.10511 -8.29549
2040 2 7.10511 15.9865 8.88138 -6.86451
1031 1 10.6577 15.9865 5.32883 -8.45767
2032 3 14.2102 15.9865 5.32883 -6.4421
2031 3 12.4339 15.9865 7.10511 -6.3349
2541 1 10.6577 15.9865 8.88138 -8.45869
3041 1 14.2102 15.9865 8.88138 -8.54813
2533 1 15.9865 15.9865 7.10511 -8.49578
251 1 3.55255 0 10.6577 -8.52766
253 2 0 3.55255 10.6577 -6.98648
16 3 0 1.77628 12.4339 -6.318
786 1 1.77628 3.55255 12.4339 -8.41894
1032 1 3.55255 1.77628 12.4339 -8.54728
1285 3 3.55255 3.55255 10.6577 -6.55483
3281 1 0 0 10.6577 -8.37806
3532 2 1.77628 1.77628 10.6577 -6.96987
3783 2 1.77628 0 12.4339 -6.93073
533 2 5.32883 1.77628 10.6577 -6.93009
784 3 5.32883 0 12.4339 -6.34378
1784 3 5.32883 3.55255 12.4339 -6.45233
1283 2 7.10511 0 10.6577 -6.97367
1533 3 8.88138 1.77628 10.6577 -6.37417
1782 1 8.88138 0 12.4339 -8.45765
2033 3 7.10511 1.77628 12.4339 -6.24009
2284 1 7.10511 3.55255 10.6577 -8.5937
2784 1 8.88138 3.55255 12.4339 -8.21292
254 1 14.2102 3.55255 10.6577 -8.25903
18 1 14.2102 1.77628 12.4339 -8.18728
2282 3 10.6577 0 10.6577 -6.43881
2534 1 12.4339 1.77628 10.6577 -8.39026
2783 1 12.4339 0 12.4339 -8.07758
3033 3 10.6577 1.77628 12.4339 -6.08286
3284 2 10.6577 3.55255 10.6577 -6.94037
3283 1 14.2102 0 10.6577 -8.01173
3786 3 12.4339 3.55255 12.4339 -6.32533
787 2 15.9865 3.55255 12.4339 -6.98121
3534 2 15.9865 1.77628 10.6577 -6.96293
3785 1 15.9865 0 12.4339 -8.19999
535 2 1.77628 5.32883 10.6577 -7.08319
1034 3 0 5.32883 12.4339 -6.46476
2035 2 3.55255 5.32883 12.4339 -6.98689
1535 2 5.32883 5.32883 10.6577 -6.99926
2536 1 8.88138 5.32883 10.6577 -8.21448
3034 2 7.10511 5.32883 12.4339 -6.99059
19 2 10.6577 5.32883 12.4339 -7.0176
1035 2 14.2102 5.32883 12.4339 -7.02344
3535 2 12.4339 5.32883 10.6577 -6.98066
536 1 15.9865 5.32883 10.6577 -8.39818
1286 3 0 7.10511 10.6577 -6.72394
1536 3 1.77628 8.88138 10.6577 -6.59924
1785 2 1.77628 7.10511 12.4339 -7.03249
2036 3 0 8.88138 12.4339 -6.61278
2285 2 3.55255 7.10511 10.6577 -7.0679
3036 1 3.55255 8.88138 12.4339 -8.27261
2537 2 5.32883 8.88138 10.6577 -6.99182
2786 1 5.32883 7.10511 12.4339 -8.53882
21 3 7.10511 8.88138 12.4339 -6.21897
3286 2 7.10511 7.10511 10.6577 -6.97255
3537 1 8.88138 8.88138 10.6577 -8.34466
3788 2 8.88138 7.10511 12.4339 -6.86974
256 1 10.6577 7.10511 10.6577 -8.32956
538 3 12.4339 8.88138 10.6577 -6.29712
789 3 12.4339 7.10511 12.4339 -6.52933
1037 3 10.6577 8.88138 12.4339 -6.37837
1288 2 14.2102 7.10511 10.6577 -6.91247
2038 1 14.2102 8.88138 12.4339 -8.51926
1538 1 15.9865 8.88138 10.6577 -8.1589
1787 3 15.9865 7.10511 12.4339 -6.40099
259 2 3.55255 14.2102 10.6577 -6.97805
22 1 3.55255 12.4339 12.4339 -8.05314
2287 3 0 10.6577 10.6577 -6.59473
2539 2 1.77628 12.4339 10.6577 -7.04086
2787 2 1.77628 10.6577 12.4339 -6.97295
3037 2 0 12.4339 12.4339 -7.01914
3289 3 0 14.2102 10.6577 -6.50591
3287 1 3.55255 10.6577 10.6577 -8.32559
3791 2 1.77628 14.2102 12.4339 -7.02868
792 1 5.32883 14.2102 12.4339 -7.81498
3538 1 5.32883 12.4339 10.6577 -8.02483
3789 1 5.32883 10.6577 12.4339 -7.97331
257 2 7.10511 10.6577 10.6577 -6.9449
539 1 8.88138 12.4339 10.6577 -8.30046
790 3 8.88138 10.6577 12.4339 -6.19045
1038 1 7.10511 12.4339 12.4339 -8.01845
1291 1 7.10511 14.2102 10.6577 -8.28326
1790 3 8.88138 14.2102 12.4339 -6.3486
1289 2 10.6577 10.6577 10.6577 -6.98588
1539 1 12.4339 12.4339 10.6577 -8.44128
1788 2 12.4339 10.6577 12.4339 -6.94423
2039 2 10.6577 12.4339 12.4339 -6.95987
2290 3 10.6577 14.2102 10.6577 -6.27095
2288 3 14.2102 10.6577 10.6577 -6.2287
2790 1 12.4339 14.2102 12.4339 -8.53698
3039 3 14.2102 12.4339 12.4339 -6.40361
3290 2 14.2102 14.2102 10.6577 -7.00382
2540 2 15.9865 12.4339 10.6577 -6.9409
2789 1 15.9865 10.6577 12.4339 -8.30574
3792 3 15.9865 14.2102 12.4339 -6.45097
24 1 0 15.9865 12.4339 -8.17123
1040 1 3.55255 15.9865 12.4339 -8.30992
3540 2 1.77628 15.9865 10.6577 -6.9457
541 1 5.32883 15.9865 10.6577 -8.2847
1541 3 8.88138 15.9865 10.6577 -6.33604
2041 3 7.10511 15.9865 12.4339 -6.21564
25 2 14.2102 15.9865 12.4339 -7.04605
2542 1 12.4339 15.9865 10.6577 -8.18613
3040 2 10.6577 15.9865 12.4339 -6.96717
3541 3 15.9865 15.9865 10.6577 -6.45383
260 3 0 0 14.2102 -6.24143
542 2 1.77628 1.77628 14.2102 -6.87974
793 1 1.77628 0 15.9865 -8.45347
1041 1 0 1.77628 15.9865 -8.31108
1293 1 0 3.55255 14.2102 -8.17498
1292 3 3.55255 0 14.2102 -6.30358
1792 2 1.77628 3.55255 15.9865 -6.92835
2042 3 3.55255 1.77628 15.9865 -6.37543
2292 2 3.55255 3.55255 14.2102 -6.95398
1542 3 5.32883 1.77628 14.2102 -6.26354
1791 1 5.32883 0 15.9865 -8.36882
2793 2 5.32883 3.55255 15.9865 -6.86848
2291 1 7.10511 0 14.2102 -8.18216
2543 1 8.88138 1.77628 14.2102 -7.94239
2792 2 8.88138 0 15.9865 -6.95412
3042 1 7.10511 1.77628 15.9865 -8.12745
3292 1 7.10511 3.55255 14.2102 -8.31019
3794 2 8.88138 3.55255 15.9865 -7.00476
261 1 14.2102 0 14.2102 -8.31668
262 1 10.6577 3.55255 14.2102 -8.26133
26 1 10.6577 1.77628 15.9865 -7.90534
795 2 12.4339 3.55255 15.9865 -6.9588
1042 2 14.2102 1.77628 15.9865 -6.96269
1294 3 14.2102 3.55255 14.2102 -6.56011
3291 1 10.6577 0 14.2102 -8.15552
3542 1 12.4339 1.77628 14.2102 -8.1795
3793 1 12.4339 0 15.9865 -8.19415
543 3 15.9865 1.77628 14.2102 -6.4635
794 3 15.9865 0 15.9865 -6.53608
1793 3 15.9865 3.55255 15.9865 -6.72995
1543 1 1.77628 5.32883 14.2102 -8.2829
2043 1 0 5.32883 15.9865 -8.31426
3043 1 3.55255 5.32883 15.9865 -8.47034
2544 3 5.32883 5.32883 14.2102 -6.42233
27 1 7.10511 5.32883 15.9865 -8.61627
3543 1 8.88138 5.32883 14.2102 -8.36797
544 2 12.4339 5.32883 14.2102 -6.99754
1043 3 10.6577 5.32883 15.9865 -6.42332
2044 3 14.2102 5.32883 15.9865 -6.66798
1544 2 15.9865 5.32883 14.2102 -7.12333
28 2 3.55255 8.88138 15.9865 -6.89669
2293 2 0 7.10511 14.2102 -6.9178
2545 3 1.77628 8.88138 14.2102 -6.36353
2794 3 1.77628 7.10511 15.9865 -6.20287
3044 1 0 8.88138 15.9865 -8.55559
3293 2 3.55255 7.10511 14.2102 -6.96056
3544 1 5.32883 8.88138 14.2102 -8.1197
3795 2 5.32883 7.10511 15.9865 -6.96445
263 3 7.10511 7.10511 14.2102 -6.25953
545 1 8.88138 8.88138 14.2102 -8.46346
796 2 8.88138 7.10511 15.9865 -6.91539
1044 1 7.10511 8.88138 15.9865 -8.08304
1295 3 10.6577 7.10511 14.2102 -6.45586
1545 2 12.4339 8.88138 14.2102 -6.9041
1794 3 12.4339 7.10511 15.9865 -6.43182
2045 1 10.6577 8.88138 15.9865 -8.41128
2294 3 14.2102 7.10511 14.2102 -6.64192
3045 2 14.2102 8.88138 15.9865 -6.88285
2546 2 15.9865 8.88138 14.2102 -7.01532
2795 3 15.9865 7.10511 15.9865 -6.65014
265 1 0 14.2102 14.2102 -8.07502
264 1 3.55255 10.6577 14.2102 -8.15454
29 3 0 12.4339 15.9865 -6.16664
798 1 1.77628 14.2102 15.9865 -8.29642
1045 3 3.55255 12.4339 15.9865 -6.13103
1297 1 3.55255 14.2102 14.2102 -8.0628
3294 3 0 10.6577 14.2102 -6.3236
3545 2 1.77628 12.4339 14.2102 -6.91213
3796 1 1.77628 10.6577 15.9865 -8.41111
546 1 5.32883 12.4339 14.2102 -8.18254
797 2 5.32883 10.6577 15.9865 -6.9707
1796 3 5.32883 14.2102 15.9865 -6.15579
1296 1 7.10511 10.6577 14.2102 -8.19107
1546 2 8.88138 12.4339 14.2102 -6.86925
1795 2 8.88138 10.6577 15.9865 -7.0327
2046 3 7.10511 12.4339 15.9865 -6.20299
2296 1 7.10511 14.2102 14.2102 -8.36293
2797 3 8.88138 14.2102 15.9865 -6.40007
266 2 14.2102 14.2102 14.2102 -6.95818
30 2 14.2102 12.4339 15.9865 -6.94565
2295 1 10.6577 10.6577 14.2102 -8.49795
2547 2 12.4339 12.4339 14.2102 -7.02286
2796 3 12.4339 10.6577 15.9865 -6.2717
3046 2 10.6577 12.4339 15.9865 -6.96876
3296 3 10.6577 14.2102 14.2102 -6.6583
3295 1 14.2102 10.6577 14.2102 -8.42104
3798 2 12.4339 14.2102 15.9865 -7.03988
799 1 15.9865 14.2102 15.9865 -8.27084
3546 3 15.9865 12.4339 14.2102 -6.16657
3797 1 15.9865 10.6577 15.9865 -8.23195
547 1 1.77628 15.9865 14.2102 -8.21022
1046 1 0 15.9865 15.9865 -8.244
2047 2 3.55255 15.9865 15.9865 -6.79512
1547 1 5.32883 15.9865 14.2102 -8.27141
2548 3 8.88138 15.9865 14.2102 -6.42828
3047 1 7.10511 15.9865 15.9865 -8.28901
31 3 10.6577 15.9865 15.9865 -6.55974
1047 3 14.2102 15.9865 15.9865 -6.43983
3547 3 12.4339 15.9865 14.2102 -6.59328
548 2 15.9865 15.9865 14.2102 -6.95855
285 1 3.55255 3.55255 21.3153 -8.53831
1298 2 0 0 17.7628 -6.99335
1548 1 1.77628 1.77628 17.7628 -8.57526
1797 3 1.77628 0 19.539 -6.54353
2048 1 0 1.77628 19.539 -8.58395
2300 3 0 3.55255 17.7628 -6.30013
2298 2 3.55255 0 17.7628 -6.95695
2297 2 0 0 21.3153 -6.97201
2549 3 1.77628 1.77628 21.3153 -6.37831
2799 3 1.77628 3.55255 19.539 -6.29849
3048 3 3.55255 1.77628 19.539 -6.3937
3300 3 3.55255 3.55255 17.7628 -6.2286
3299 3 0 3.55255 21.3153 -6.48143
3297 2 3.55255 0 21.3153 -7.01998
2550 1 5.32883 1.77628 17.7628 -8.44637
2798 2 5.32883 0 19.539 -6.90753
3548 3 5.32883 1.77628 21.3153 -6.29908
3800 1 5.32883 3.55255 19.539 -8.52836
501 1 8.88138 1.77628 21.3153 -8.35539
32 2 7.10511 1.77628 19.539 -6.8466
286 3 7.10511 3.55255 17.7628 -6.16479
283 1 7.10511 0 21.3153 -8.25604
801 1 8.88138 3.55255 19.539 -8.43024
1301 3 7.10511 3.55255 21.3153 -6.1832
3298 3 7.10511 0 17.7628 -6.06364
3549 1 8.88138 1.77628 17.7628 -8.13206
3799 1 8.88138 0 19.539 -8.15312
502 1 12.4339 1.77628 17.7628 -8.30172
284 1 10.6577 0 17.7628 -8.04692
800 1 12.4339 0 19.539 -8.33197
1048 1 10.6577 1.77628 19.539 -8.22284
1302 2 10.6577 3.55255 17.7628 -6.93471
1300 2 14.2102 0 17.7628 -6.94486
1299 3 10.6577 0 21.3153 -6.04989
1549 3 12.4339 1.77628 21.3153 -6.382
1799 3 12.4339 3.55255 19.539 -6.48064
2049 3 14.2102 1.77628 19.539 -6.5625
2302 2 14.2102 3.55255 17.7628 -6.99197
2301 3 10.6577 3.55255 21.3153 -6.36479
2299 3 14.2102 0 21.3153 -6.31284
3301 3 14.2102 3.55255 21.3153 -6.64336
1550 3 15.9865 1.77628 17.7628 -6.5768
1798 2 15.9865 0 19.539 -6.96999
2551 3 15.9865 1.77628 21.3153 -6.55395
2800 3 15.9865 3.55255 19.539 -6.56449
33 3 3.55255 5.32883 19.539 -6.20545
2552 1 1.77628 5.32883 17.7628 -8.50546
3049 3 0 5.32883 19.539 -6.52206
3550 3 1.77628 5.32883 21.3153 -6.45557
503 1 5.32883 5.32883 21.3153 -8.39748
3551 3 5.32883 5.32883 17.7628 -6.28643
504 3 8.88138 5.32883 17.7628 -6.45422
1049 1 7.10511 5.32883 19.539 -8.34115
1551 2 8.88138 5.32883 21.3153 -6.93264
1552 1 12.4339 5.32883 17.7628 -8.80305
2050 3 10.6577 5.32883 19.539 -6.48065
2553 2 12.4339 5.32883 21.3153 -7.00906
3050 2 14.2102 5.32883 19.539 -6.95261
2554 2 15.9865 5.32883 17.7628 -6.9935
3552 3 15.9865 5.32883 21.3153 -6.53907
505 2 1.77628 8.88138 21.3153 -6.88715
34 3 0 8.88138 19.539 -6.53352
288 1 3.55255 7.10511 17.7628 -8.4228
287 3 0 7.10511 21.3153 -6.63446
1050 1 3.55255 8.88138 19.539 -8.41964
1303 3 3.55255 7.10511 21.3153 -6.31785
3302 1 0 7.10511 17.7628 -8.63179
3553 3 1.77628 8.88138 17.7628 -6.18987
3801 3 1.77628 7.10511 19.539 -6.33376
506 1 5.32883 8.88138 17.7628 -8.04341
802 2 5.32883 7.10511 19.539 -6.95618
1553 1 5.32883 8.88138 21.3153 -8.5373
1304 2 7.10511 7.10511 17.7628 -6.94166
1554 1 8.88138 8.88138 17.7628 -8.32411
1800 2 8.88138 7.10511 19.539 -7.01539
2051 1 7.10511 8.88138 19.539 -8.20457
2303 1 7.10511 7.10511 21.3153 -8.23979
2555 2 8.88138 8.88138 21.3153 -6.93577
35 1 14.2102 8.88138 19.539 -8.21942
289 2 14.2102 7.10511 21.3153 -6.95456
2304 3 10.6577 7.10511 17.7628 -6.31592
2556 1 12.4339 8.88138 17.7628 -8.35079
2801 1 12.4339 7.10511 19.539 -8.35683
3051 2 10.6577 8.88138 19.539 -6.94793
3304 3 14.2102 7.10511 17.7628 -6.37796
3303 2 10.6577 7.10511 21.3153 -7.0497
3554 1 12.4339 8.88138 21.3153 -8.18908
507 3 15.9865 8.88138 21.3153 -6.26131
3555 3 15.9865 8.88138 17.7628 -6.2376
3802 1 15.9865 7.10511 19.539 -8.57823
508 1 1.77628 12.4339 17.7628 -8.35251
290 3 0 10.6577 17.7628 -6.27056
803 3 1.77628 10.6577 19.539 -6.27753
1051 1 0 12.4339 19.539 -8.28196
1308 3 0 14.2102 17.7628 -6.20817
1306 1 3.55255 10.6577 17.7628 -8.27682
1305 2 0 10.6577 21.3153 -6.91975
1555 1 1.77628 12.4339 21.3153 -8.48082
1802 1 1.77628 14.2102 19.539 -8.27857
2052 2 3.55255 12.4339 19.539 -6.88894
2308 3 3.55255 14.2102 17.7628 -6.19592
2307 1 0 14.2102 21.3153 -8.33199
2305 3 3.55255 10.6577 21.3153 -6.32933
3307 1 3.55255 14.2102 21.3153 -8.10572
1556 2 5.32883 12.4339 17.7628 -6.86645
1801 2 5.32883 10.6577 19.539 -6.99695
2557 1 5.32883 12.4339 21.3153 -8.41922
2803 1 5.32883 14.2102 19.539 -8.14285
293 2 7.10511 14.2102 21.3153 -7.00147
2306 1 7.10511 10.6577 17.7628 -8.07391
2558 1 8.88138 12.4339 17.7628 -8.41125
2802 2 8.88138 10.6577 19.539 -6.97702
3052 1 7.10511 12.4339 19.539 -8.10862
3308 3 7.10511 14.2102 17.7628 -6.1405
3305 3 7.10511 10.6577 21.3153 -6.08358
3556 1 8.88138 12.4339 21.3153 -8.01352
3804 1 8.88138 14.2102 19.539 -8.06482
509 2 12.4339 12.4339 21.3153 -6.95287
36 1 10.6577 12.4339 19.539 -8.12011
294 2 10.6577 14.2102 17.7628 -7.01957
292 1 14.2102 10.6577 17.7628 -8.19119
291 1 10.6577 10.6577 21.3153 -8.17943
805 2 12.4339 14.2102 19.539 -7.00321
1052 1 14.2102 12.4339 19.539 -8.24139
1310 1 14.2102 14.2102 17.7628 -8.35717
1309 2 10.6577 14.2102 21.3153 -7.04663
1307 1 14.2102 10.6577 21.3153 -8.19838
2309 3 14.2102 14.2102 21.3153 -6.55075
3306 3 10.6577 10.6577 17.7628 -6.13882
3557 1 12.4339 12.4339 17.7628 -8.27897
3803 1 12.4339 10.6577 19.539 -7.9159
510 3 15.9865 12.4339 17.7628 -6.08359
804 3 15.9865 10.6577 19.539 -6.20685
1557 1 15.9865 12.4339 21.3153 -8.32768
1803 3 15.9865 14.2102 19.539 -6.31229
1558 2 1.77628 15.9865 17.7628 -6.80431
2053 3 0 15.9865 19.539 -6.47932
2559 3 1.77628 15.9865 21.3153 -6.26481
3053 1 3.55255 15.9865 19.539 -8.40923
2560 1 5.32883 15.9865 17.7628 -8.30618
3558 2 5.32883 15.9865 21.3153 -6.87304
511 1 8.88138 15.9865 21.3153 -8.13145
37 1 7.10511 15.9865 19.539 -8.1274
3559 3 8.88138 15.9865 17.7628 -6.19567
512 2 12.4339 15.9865 17.7628 -6.97946
1053 1 10.6577 15.9865 19.539 -8.35215
1559 2 12.4339 15.9865 21.3153 -7
2054 3 14.2102 15.9865 19.539 -6.44812
1560 1 15.9865 15.9865 17.7628 -8.37567
2561 2 15.9865 15.9865 21.3153 -7.00055
39 1 3.55255 1.77628 23.0916 -8.43448
38 2 0 1.77628 26.6441 -6.93567
296 3 0 3.55255 24.8679 -6.50321
295 2 3.55255 0 24.8679 -7.06858
808 3 1.77628 3.55255 26.6441 -6.47639
1054 2 3.55255 1.77628 26.6441 -7.00996
1312 1 3.55255 3.55255 24.8679 -8.45939
2804 2 1.77628 0 23.0916 -6.98872
3054 1 0 1.77628 23.0916 -8.47588
3309 1 0 0 24.8679 -8.41043
3560 2 1.77628 1.77628 24.8679 -6.98841
3808 3 1.77628 3.55255 23.0916 -6.39298
3805 2 1.77628 0 26.6441 -7.05199
513 2 5.32883 1.77628 24.8679 -6.98261
809 1 5.32883 3.55255 23.0916 -8.36723
806 2 5.32883 0 26.6441 -7.04973
1806 3 5.32883 3.55255 26.6441 -6.38451
3806 2 5.32883 0 23.0916 -7.01061
807 3 8.88138 0 23.0916 -6.19873
1055 3 7.10511 1.77628 23.0916 -6.41514
1311 2 7.10511 0 24.8679 -6.95151
1561 3 8.88138 1.77628 24.8679 -6.36948
1807 3 8.88138 3.55255 23.0916 -6.30319
1804 2 8.88138 0 26.6441 -6.96795
2055 1 7.10511 1.77628 26.6441 -8.7087
2311 3 7.10511 3.55255 24.8679 -6.31785
2807 2 8.88138 3.55255 26.6441 -6.91395
40 2 14.2102 1.77628 26.6441 -7.02812
297 2 14.2102 3.55255 24.8679 -6.87533
1805 3 12.4339 0 23.0916 -6.15673
2056 1 10.6577 1.77628 23.0916 -8.63566
2310 3 10.6577 0 24.8679 -6.35759
2562 1 12.4339 1.77628 24.8679 -8.42462
2808 3 12.4339 3.55255 23.0916 -6.40938
2805 2 12.4339 0 26.6441 -6.9422
3056 3 14.2102 1.77628 23.0916 -6.48615
3055 3 10.6577 1.77628 26.6441 -6.33235
3311 1 10.6577 3.55255 24.8679 -8.24458
3310 1 14.2102 0 24.8679 -8.35585
3809 1 12.4339 3.55255 26.6441 -8.31546
810 3 15.9865 3.55255 26.6441 -6.43099
2806 2 15.9865 0 23.0916 -6.92409
3561 1 15.9865 1.77628 24.8679 -8.58272
3810 2 15.9865 3.55255 23.0916 -6.99664
3807 2 15.9865 0 26.6441 -7.04326
514 2 1.77628 5.32883 24.8679 -6.95844
41 2 0 5.32883 23.0916 -6.97152
1057 3 3.55255 5.32883 23.0916 -6.16792
1056 1 0 5.32883 26.6441 -8.70152
2057 2 3.55255 5.32883 26.6441 -6.93898
1562 1 5.32883 5.32883 24.8679 -8.43248
2058 3 7.10511 5.32883 23.0916 -6.22277
2563 1 8.88138 5.32883 24.8679 -8.59894
3057 1 7.10511 5.32883 26.6441 -8.52518
43 3 14.2102 5.32883 23.0916 -6.54526
42 1 10.6577 5.32883 26.6441 -8.11375
1058 3 14.2102 5.32883 26.6441 -6.25142
3058 2 10.6577 5.32883 23.0916 -6.94446
3562 1 12.4339 5.32883 24.8679 -8.46224
515 2 15.9865 5.32883 24.8679 -6.87361
811 1 1.77628 7.10511 23.0916 -8.75149
1059 3 0 8.88138 23.0916 -6.5163
1313 2 0 7.10511 24.8679 -6.92356
1563 3 1.77628 8.88138 24.8679 -6.48551
1808 2 1.77628 7.10511 26.6441 -6.93052
2060 3 3.55255 8.88138 23.0916 -6.4877
2059 1 0 8.88138 26.6441 -8.55062
2312 1 3.55255 7.10511 24.8679 -8.35365
3059 1 3.55255 8.88138 26.6441 -8.36594
1809 3 5.32883 7.10511 23.0916 -6.14271
2564 2 5.32883 8.88138 24.8679 -6.91862
2809 1 5.32883 7.10511 26.6441 -8.208
44 1 7.10511 8.88138 26.6441 -8.50742
2810 3 8.88138 7.10511 23.0916 -6.44011
3060 1 7.10511 8.88138 23.0916 -8.44895
3312 3 7.10511 7.10511 24.8679 -6.25571
3563 2 8.88138 8.88138 24.8679 -6.98584
3811 2 8.88138 7.10511 26.6441 -6.99341
516 1 12.4339 8.88138 24.8679 -8.51679
45 3 10.6577 8.88138 23.0916 -6.41855
298 3 10.6577 7.10511 24.8679 -6.41212
812 2 12.4339 7.10511 26.6441 -6.92485
1061 1 14.2102 8.88138 23.0916 -8.09872
1060 2 10.6577 8.88138 26.6441 -7.03794
1314 1 14.2102 7.10511 24.8679 -8.30254
2061 3 14.2102 8.88138 26.6441 -6.18473
3812 2 12.4339 7.10511 23.0916 -6.97414
813 3 15.9865 7.10511 23.0916 -6.41704
1564 1 15.9865 8.88138 24.8679 -8.16362
1810 1 15.9865 7.10511 26.6441 -8.25202
46 3 3.55255 12.4339 26.6441 -6.50157
300 1 3.55255 14.2102 24.8679 -8.47421
1811 2 1.77628 10.6577 23.0916 -6.99816
2062 3 0 12.4339 23.0916 -6.35412
2313 3 0 10.6577 24.8679 -6.49807
2565 2 1.77628 12.4339 24.8679 -6.9846
2814 2 1.77628 14.2102 23.0916 -6.92789
2811 2 1.77628 10.6577 26.6441 -7.01619
3062 3 3.55255 12.4339 23.0916 -6.39228
3061 2 0 12.4339 26.6441 -6.99651
3314 1 0 14.2102 24.8679 -8.41835
3313 2 3.55255 10.6577 24.8679 -7.04964
3815 1 1.77628 14.2102 26.6441 -8.19775
753 2 5.32883 14.2102 26.6441 -6.9051
2812 3 5.32883 10.6577 23.0916 -6.35309
3564 3 5.32883 12.4339 24.8679 -6.46802
3816 3 5.32883 14.2102 23.0916 -6.1147
3813 2 5.32883 10.6577 26.6441 -7.08649
549 3 8.88138 12.4339 24.8679 -6.23974
47 1 7.10511 12.4339 23.0916 -8.28738
299 2 7.10511 10.6577 24.8679 -6.9864
751 2 8.88138 10.6577 26.6441 -7.04288
754 1 8.88138 14.2102 23.0916 -8.14154
1062 2 7.10511 12.4339 26.6441 -6.99869
1316 1 7.10511 14.2102 24.8679 -8.4288
1814 1 8.88138 14.2102 26.6441 -8.61874
3814 1 8.88138 10.6577 23.0916 -8.33533
752 3 12.4339 10.6577 23.0916 -6.30299
1063 2 10.6577 12.4339 23.0916 -6.91058
1315 3 10.6577 10.6577 24.8679 -6.39069
1565 3 12.4339 12.4339 24.8679 -6.31183
1815 3 12.4339 14.2102 23.0916 -6.43997
1812 1 12.4339 10.6577 26.6441 -8.59357
2064 3 14.2102 12.4339 23.0916 -6.3578
2063 1 10.6577 12.4339 26.6441 -8.48224
2315 1 10.6577 14.2102 24.8679 -8.30289
2314 2 14.2102 10.6577 24.8679 -6.85615
2815 1 12.4339 14.2102 26.6441 -8.37754
3063 3 14.2102 12.4339 26.6441 -6.33913
3315 1 14.2102 14.2102 24.8679 -8.66534
1813 1 15.9865 10.6577 23.0916 -8.34988
2566 3 15.9865 12.4339 24.8679 -6.46756
2816 2 15.9865 14.2102 23.0916 -7.02086
2813 1 15.9865 10.6577 26.6441 -8.53971
3817 3 15.9865 14.2102 26.6441 -6.46534