ITEM: TIMESTEP
0
ITEM: NUMBER OF ATOMS
4000
ITEM: BOX BOUNDS pp pp pp
0.0000000000000000e+00 3.5790759999999999e+01
0.0000000000000000e+00 3.5790759999999999e+01
0.0000000000000000e+00 3.5790759999999999e+01
ITEM: ATOMS id type x y z c_peratom
267 3 0 0 0 -6.55437
516 2 1.78954 1.78954 0 -6.95067
767 1 1.78954 0 1.78954 -8.48802
1016 3 0 1.78954 1.78954 -6.48035
1267 2 0 0 3.57908 -6.99796
1517 1 1.78954 1.78954 3.57908 -8.18873
1268 2 3.57908 0 0 -6.91639
1518 2 5.36861 1.78954 0 -7.01467
1767 1 5.36861 0 1.78954 -8.43289
2017 1 3.57908 1.78954 1.78954 -8.00942
2266 1 3.57908 0 3.57908 -8.19336
2267 3 7.15815 0 0 -6.25423
2517 3 5.36861 1.78954 3.57908 -6.46675
3017 2 7.15815 1.78954 1.78954 -6.89112
3266 3 7.15815 0 3.57908 -6.44317
1 2 10.7372 1.78954 1.78954 -7.1036
268 1 10.7372 0 3.57908 -8.1499
2518 1 8.94769 1.78954 0 -8.36564
2766 1 8.94769 0 1.78954 -8.14632
3267 1 10.7372 0 0 -8.02924
3517 1 8.94769 1.78954 3.57908 -8.36534
269 1 14.3163 0 0 -8.46618
517 2 12.5268 1.78954 3.57908 -7.08172
1017 2 14.3163 1.78954 1.78954 -6.97485
1269 1 14.3163 0 3.57908 -8.01171
3518 2 12.5268 1.78954 0 -7.02196
3767 1 12.5268 0 1.78954 -8.04573
518 3 16.1058 1.78954 0 -6.38651
768 2 16.1058 0 1.78954 -7.05233
1519 1 16.1058 1.78954 3.57908 -8.14027
1270 1 0 3.57908 0 -8.5787
1520 1 1.78954 5.36861 0 -7.96284
1768 1 1.78954 3.57908 1.78954 -7.98167
2018 2 0 5.36861 1.78954 -7.00126
2271 1 0 7.15815 0 -8.34685
2268 2 0 3.57908 3.57908 -7.04203
2519 1 1.78954 5.36861 3.57908 -8.37343
2768 2 1.78954 7.15815 1.78954 -7.03134
3270 2 0 7.15815 3.57908 -7.00945
2 1 7.15815 5.36861 1.78954 -8.07651
273 1 7.15815 7.15815 0 -8.1504
272 3 3.57908 7.15815 3.57908 -6.52257
270 3 7.15815 3.57908 3.57908 -6.37448
1273 1 7.15815 7.15815 3.57908 -8.12845
2269 1 3.57908 3.57908 0 -7.98708
2520 3 5.36861 5.36861 0 -6.19109
2767 1 5.36861 3.57908 1.78954 -8.25639
3018 1 3.57908 5.36861 1.78954 -8.08694
3271 2 3.57908 7.15815 0 -7.0293
3269 2 7.15815 3.57908 0 -6.97931
3268 2 3.57908 3.57908 3.57908 -7.10804
3519 2 5.36861 5.36861 3.57908 -7.07301
3769 1 5.36861 7.15815 1.78954 -8.19402
271 2 10.7372 3.57908 0 -7.0049
519 1 8.94769 5.36861 3.57908 -8.13034
770 1 8.94769 7.15815 1.78954 -8.11744
1018 1 10.7372 5.36861 1.78954 -8.13837
1274 3 10.7372 7.15815 0 -6.26153
1271 2 10.7372 3.57908 3.57908 -6.99055
2272 1 10.7372 7.15815 3.57908 -8.33486
3520 1 8.94769 5.36861 0 -8.23072
3768 3 8.94769 3.57908 1.78954 -6.30688
520 2 12.5268 5.36861 0 -6.97265
769 1 12.5268 3.57908 1.78954 -8.29777
1272 1 14.3163 3.57908 0 -8.49803
1521 3 12.5268 5.36861 3.57908 -6.29854
1770 2 12.5268 7.15815 1.78954 -6.95889
2019 1 14.3163 5.36861 1.78954 -8.30906
2273 2 14.3163 7.15815 0 -6.91617
2270 3 14.3163 3.57908 3.57908 -6.25392
3272 1 14.3163 7.15815 3.57908 -8.30644
1522 3 16.1058 5.36861 0 -6.22224
1769 1 16.1058 3.57908 1.78954 -8.34343
2521 3 16.1058 5.36861 3.57908 -6.25578
2769 3 16.1058 7.15815 1.78954 -6.22414
274 3 0 10.7372 3.57908 -6.50065
2522 2 1.78954 8.94769 0 -7.11506
3019 2 0 8.94769 1.78954 -7.04869
3273 2 0 10.7372 0 -7.05685
3521 3 1.78954 8.94769 3.57908 -6.59019
3770 1 1.78954 10.7372 1.78954 -8.55786
3 2 3.57908 8.94769 1.78954 -7.13521
275 2 3.57908 10.7372 0 -7.16907
521 2 5.36861 8.94769 3.57908 -7.13097
771 2 5.36861 10.7372 1.78954 -7.17688
1019 2 7.15815 8.94769 1.78954 -7.11261
1276 2 7.15815 10.7372 0 -7.10828
1275 2 3.57908 10.7372 3.57908 -7.13614
2274 3 7.15815 10.7372 3.57908 -6.6781
3522 2 5.36861 8.94769 0 -7.14434
522 2 8.94769 8.94769 0 -6.997
1523 2 8.94769 8.94769 3.57908 -7.0286
1771 3 8.94769 10.7372 1.78954 -6.60924
2020 3 10.7372 8.94769 1.78954 -6.41449
2275 1 10.7372 10.7372 0 -8.23251
3274 3 10.7372 10.7372 3.57908 -6.58639
276 3 14.3163 10.7372 3.57908 -6.49656
1524 2 12.5268 8.94769 0 -7.04818
2523 1 12.5268 8.94769 3.57908 -8.56826
2770 2 12.5268 10.7372 1.78954 -6.97541
3020 3 14.3163 8.94769 1.78954 -6.41712
3275 1 14.3163 10.7372 0 -8.46572
2524 3 16.1058 8.94769 0 -6.37762
3523 1 16.1058 8.94769 3.57908 -8.29227
3771 3 16.1058 10.7372 1.78954 -6.48528
4 3 0 12.5268 1.78954 -6.48284
277 1 0 14.3163 0 -8.30442
523 2 1.78954 12.5268 3.57908 -7.02015
772 3 1.78954 14.3163 1.78954 -6.61732
1277 1 0 14.3163 3.57908 -8.54366
3524 2 1.78954 12.5268 0 -7.0315
524 2 5.36861 12.5268 0 -7.18287
1020 2 3.57908 12.5268 1.78954 -7.15351
1278 2 3.57908 14.3163 0 -7.15967
1525 1 5.36861 12.5268 3.57908 -8.57961
1772 3 5.36861 14.3163 1.78954 -6.6864
2021 3 7.15815 12.5268 1.78954 -6.58206
2277 2 7.15815 14.3163 0 -7.09707
2276 3 3.57908 14.3163 3.57908 -6.6585
3276 2 7.15815 14.3163 3.57908 -6.92117
278 2 10.7372 14.3163 3.57908 -7.00162
1526 1 8.94769 12.5268 0 -8.39108
2525 2 8.94769 12.5268 3.57908 -6.93828
2771 1 8.94769 14.3163 1.78954 -8.34818
3021 2 10.7372 12.5268 1.78954 -7.01093
3277 3 10.7372 14.3163 0 -6.29539
5 2 14.3163 12.5268 1.78954 -6.97425
279 2 14.3163 14.3163 0 -6.92514
1279 3 14.3163 14.3163 3.57908 -6.37743
2526 2 12.5268 12.5268 0 -6.95954
3525 3 12.5268 12.5268 3.57908 -6.50841
3772 1 12.5268 14.3163 1.78954 -8.643
525 2 16.1058 12.5268 3.57908 -7.03322
773 1 16.1058 14.3163 1.78954 -8.50362
3526 3 16.1058 12.5268 0 -6.49789
526 2 1.78954 16.1058 0 -7.11332
1021 3 0 16.1058 1.78954 -6.48602
1527 2 1.78954 16.1058 3.57908 -6.92482
1528 2 5.36861 16.1058 0 -7.05066
2022 3 3.57908 16.1058 1.78954 -6.6346
2527 3 5.36861 16.1058 3.57908 -6.43815
3022 3 7.15815 16.1058 1.78954 -6.3884
6 3 10.7372 16.1058 1.78954 -6.40443
2528 1 8.94769 16.1058 0 -8.20556
3527 1 8.94769 16.1058 3.57908 -8.30168
527 3 12.5268 16.1058 3.57908 -6.46866
1022 1 14.3163 16.1058 1.78954 -8.18544
3528 3 12.5268 16.1058 0 -6.26894
528 1 16.1058 16.1058 0 -8.1905
1529 3 16.1058 16.1058 3.57908 -6.3329
1773 2 1.78954 0 5.36861 -7.06101
2023 2 0 1.78954 5.36861 -7.06251
2278 3 0 0 7.15815 -6.64156
2529 2 1.78954 1.78954 7.15815 -7.06464
7 3 7.15815 1.78954 5.36861 -6.44422
2773 3 3.57908 0 7.15815 -6.59623
2772 2 5.36861 0 5.36861 -7.01887
3024 2 5.36861 1.78954 7.15815 -6.98672
3023 2 3.57908 1.78954 5.36861 -7.10895
3278 3 7.15815 0 7.15815 -6.48826
1023 2 10.7372 1.78954 5.36861 -6.99232
3529 1 8.94769 1.78954 7.15815 -8.35563
3774 3 10.7372 0 7.15815 -6.33824
3773 3 8.94769 0 5.36861 -6.42615
8 3 12.5268 1.78954 7.15815 -6.46816
280 2 14.3163 0 7.15815 -6.99618
774 2 12.5268 0 5.36861 -7.02829
2024 1 14.3163 1.78954 5.36861 -8.41514
529 3 16.1058 1.78954 7.15815 -6.433
1774 2 16.1058 0 5.36861 -7.06355
775 1 0 3.57908 7.15815 -8.36602
1024 2 1.78954 5.36861 7.15815 -7.05948
2774 2 1.78954 3.57908 5.36861 -7.10473
3025 3 0 5.36861 5.36861 -6.63898
3279 2 0 7.15815 7.15815 -7.00358
3776 3 1.78954 7.15815 5.36861 -6.50736
9 2 3.57908 5.36861 5.36861 -7.11471
281 1 7.15815 7.15815 7.15815 -8.42034
777 2 5.36861 7.15815 5.36861 -7.10776
1025 2 7.15815 5.36861 5.36861 -7.03621
1280 3 3.57908 3.57908 7.15815 -6.71873
1530 3 5.36861 5.36861 7.15815 -6.50673
1775 1 7.15815 3.57908 7.15815 -8.32107
3777 2 3.57908 7.15815 7.15815 -7.02273
3775 2 5.36861 3.57908 5.36861 -7.09098
778 2 10.7372 7.15815 7.15815 -6.97095
776 1 8.94769 3.57908 5.36861 -8.18036
1777 2 8.94769 7.15815 5.36861 -6.99
2026 3 10.7372 5.36861 5.36861 -6.32309
2025 2 8.94769 5.36861 7.15815 -7.00304
2279 1 10.7372 3.57908 7.15815 -8.28323
1281 1 14.3163 7.15815 7.15815 -8.45335
1776 2 12.5268 3.57908 5.36861 -6.93932
2530 1 12.5268 5.36861 7.15815 -8.21054
2777 3 12.5268 7.15815 5.36861 -6.23933
2776 3 14.3163 3.57908 7.15815 -6.43561
3026 1 14.3163 5.36861 5.36861 -8.29986
2775 1 16.1058 3.57908 5.36861 -8.46262
3027 3 16.1058 5.36861 7.15815 -6.51514
3778 2 16.1058 7.15815 5.36861 -6.91417
10 1 0 8.94769 5.36861 -8.32163
779 2 1.78954 10.7372 5.36861 -6.98878
1778 2 0 10.7372 7.15815 -7.05652
3530 1 1.78954 8.94769 7.15815 -8.23704
11 2 5.36861 8.94769 7.15815 -7.04369
1026 1 3.57908 8.94769 5.36861 -8.55368
1779 2 5.36861 10.7372 5.36861 -7.08617
2027 2 7.15815 8.94769 5.36861 -7.1083
2280 3 3.57908 10.7372 7.15815 -6.46863
2779 3 7.15815 10.7372 7.15815 -6.55132
530 3 8.94769 8.94769 7.15815 -6.5193
2778 2 8.94769 10.7372 5.36861 -6.99076
3028 3 10.7372 8.94769 5.36861 -6.5308
3280 3 10.7372 10.7372 7.15815 -6.47979
12 3 14.3163 8.94769 5.36861 -6.31913
1027 3 12.5268 8.94769 7.15815 -6.47233
3780 1 14.3163 10.7372 7.15815 -8.43457
3779 3 12.5268 10.7372 5.36861 -6.38415
780 2 16.1058 10.7372 5.36861 -6.98277
1531 3 16.1058 8.94769 7.15815 -6.42524
282 1 0 14.3163 7.15815 -8.17969
1028 1 0 12.5268 5.36861 -8.38233
1780 3 1.78954 14.3163 5.36861 -6.50354
2028 3 1.78954 12.5268 7.15815 -6.39319
781 2 3.57908 14.3163 7.15815 -6.98629
1282 2 7.15815 14.3163 7.15815 -7.03572
2029 2 3.57908 12.5268 5.36861 -7.04478
2531 2 5.36861 12.5268 7.15815 -6.96553
2780 3 5.36861 14.3163 5.36861 -6.55349
3029 1 7.15815 12.5268 5.36861 -8.44649
13 1 10.7372 12.5268 5.36861 -8.59715
1781 2 10.7372 14.3163 7.15815 -7.04295
3030 1 8.94769 12.5268 7.15815 -8.27448
3781 3 8.94769 14.3163 5.36861 -6.42808
782 2 12.5268 14.3163 5.36861 -6.91842
1029 1 14.3163 12.5268 5.36861 -8.54689
2281 3 14.3163 14.3163 7.15815 -6.39594
3531 3 12.5268 12.5268 7.15815 -6.36029
14 1 16.1058 12.5268 7.15815 -8.0715
1782 2 16.1058 14.3163 5.36861 -6.98297
531 2 1.78954 16.1058 7.15815 -6.91768
2030 1 0 16.1058 5.36861 -8.44943
15 1 7.15815 16.1058 5.36861 -8.4121
1030 3 5.36861 16.1058 7.15815 -6.52776
3031 3 3.57908 16.1058 5.36861 -6.59114
1031 3 10.7372 16.1058 5.36861 -6.59966
1532 2 8.94769 16.1058 7.15815 -7.00769
2032 1 14.3163 16.1058 5.36861 -8.43938
2031 3 12.5268 16.1058 7.15815 -6.67431
2532 1 16.1058 16.1058 7.15815 -8.19292
16 2 0 1.78954 12.5268 -7.01921
2781 1 1.78954 0 8.94769 -8.577
3032 2 0 1.78954 8.94769 -7.02635
3281 3 0 0 10.7372 -6.57347
3532 1 1.78954 1.78954 10.7372 -8.21861
3782 1 1.78954 0 12.5268 -8.42312
251 3 3.57908 0 10.7372 -6.33627
17 3 7.15815 1.78954 8.94769 -6.44483
532 3 5.36861 1.78954 10.7372 -6.51904
783 3 5.36861 0 12.5268 -6.43069
1032 3 3.57908 1.78954 12.5268 -6.35731
1283 3 7.15815 0 10.7372 -6.49173
2033 2 7.15815 1.78954 12.5268 -6.96378
3282 1 5.36861 0 8.94769 -8.6515
3533 3 3.57908 1.78954 8.94769 -6.47175
533 3 10.7372 1.78954 8.94769 -6.36559
1533 3 8.94769 1.78954 10.7372 -6.54358
1783 3 8.94769 0 12.5268 -6.69708
2282 2 10.7372 0 10.7372 -6.95668
3033 3 10.7372 1.78954 12.5268 -6.54988
3783 1 8.94769 0 8.94769 -8.6628
252 1 12.5268 0 8.94769 -8.31432
18 2 14.3163 1.78954 12.5268 -7.0138
1033 2 14.3163 1.78954 8.94769 -6.97672
2533 1 12.5268 1.78954 10.7372 -8.44699
2782 2 12.5268 0 12.5268 -7.04088
3283 1 14.3163 0 10.7372 -8.3139
784 3 16.1058 0 8.94769 -6.38691
3534 3 16.1058 1.78954 10.7372 -6.60634
3784 2 16.1058 0 12.5268 -7.08843
253 1 0 3.57908 10.7372 -8.18451
534 2 1.78954 5.36861 10.7372 -6.97601
785 2 1.78954 3.57908 12.5268 -7.04315
1034 1 0 5.36861 12.5268 -8.1814
1286 1 0 7.15815 10.7372 -8.26495
1284 2 1.78954 3.57908 8.94769 -6.98489
1534 3 0 5.36861 8.94769 -6.41966
1786 2 1.78954 7.15815 12.5268 -7.04857
3786 3 1.78954 7.15815 8.94769 -6.39008
255 3 5.36861 7.15815 8.94769 -6.40116
1285 1 3.57908 3.57908 10.7372 -8.31757
1535 2 5.36861 5.36861 10.7372 -6.92576
1785 2 5.36861 3.57908 12.5268 -7.03948
1784 3 5.36861 3.57908 8.94769 -6.44602
2035 1 3.57908 5.36861 12.5268 -8.4546
2034 1 3.57908 5.36861 8.94769 -8.57013
2285 3 3.57908 7.15815 10.7372 -6.44714
2284 2 7.15815 3.57908 10.7372 -7.00313
2534 1 7.15815 5.36861 8.94769 -8.19713
2785 3 5.36861 7.15815 12.5268 -6.46674
3034 2 7.15815 5.36861 12.5268 -7.02698
3286 1 7.15815 7.15815 10.7372 -8.17666
256 2 10.7372 7.15815 10.7372 -7.10764
19 3 10.7372 5.36861 12.5268 -6.54659
787 1 8.94769 7.15815 8.94769 -8.19221
2283 2 8.94769 3.57908 8.94769 -6.95121
2535 1 8.94769 5.36861 10.7372 -8.16809
2783 1 8.94769 3.57908 12.5268 -8.53331
3035 1 10.7372 5.36861 8.94769 -8.05265
3284 2 10.7372 3.57908 10.7372 -6.94503
3787 2 8.94769 7.15815 12.5268 -7.00924
254 2 14.3163 3.57908 10.7372 -7.02056
788 3 12.5268 7.15815 12.5268 -6.7512
1035 2 14.3163 5.36861 12.5268 -7.12281
1288 1 14.3163 7.15815 10.7372 -8.38692
1287 1 12.5268 7.15815 8.94769 -8.17853
2784 3 12.5268 3.57908 8.94769 -6.43136
3536 3 14.3163 5.36861 8.94769 -6.43862
3535 2 12.5268 5.36861 10.7372 -6.99579
3785 3 12.5268 3.57908 12.5268 -6.59028
535 1 16.1058 5.36861 10.7372 -8.34668
786 2 16.1058 3.57908 12.5268 -7.12854
1788 2 16.1058 7.15815 12.5268 -7.08719
1787 2 16.1058 7.15815 8.94769 -7.05244
3285 2 16.1058 3.57908 8.94769 -7.0038
20 1 0 8.94769 8.94769 -8.2056
1536 1 1.78954 8.94769 10.7372 -8.34016
2036 2 0 8.94769 12.5268 -6.94874
2287 2 0 10.7372 10.7372 -7.00904
2286 1 1.78954 10.7372 8.94769 -8.1808
2786 2 1.78954 10.7372 12.5268 -6.9695
257 2 7.15815 10.7372 10.7372 -6.96086
21 1 7.15815 8.94769 12.5268 -8.14251
536 2 3.57908 8.94769 8.94769 -6.87433
1036 3 7.15815 8.94769 8.94769 -6.42744
2536 1 5.36861 8.94769 10.7372 -8.48253
2787 3 5.36861 10.7372 8.94769 -6.52586
3036 2 3.57908 8.94769 12.5268 -6.98419
3287 3 3.57908 10.7372 10.7372 -6.28155
3788 1 5.36861 10.7372 12.5268 -8.15455
789 1 8.94769 10.7372 12.5268 -8.15833
1037 2 10.7372 8.94769 12.5268 -7.09499
1289 2 10.7372 10.7372 10.7372 -7.0287
1537 2 10.7372 8.94769 8.94769 -7.02278
3288 1 8.94769 10.7372 8.94769 -8.53452
3537 2 8.94769 8.94769 10.7372 -7.01852
537 2 12.5268 8.94769 10.7372 -7.18477
1789 3 12.5268 10.7372 12.5268 -6.51095
2038 2 14.3163 8.94769 12.5268 -7.10851
2037 2 14.3163 8.94769 8.94769 -7.0317
2288 2 14.3163 10.7372 10.7372 -7.02052
3789 2 12.5268 10.7372 8.94769 -7.00867
258 3 16.1058 10.7372 8.94769 -6.48421
1538 2 16.1058 8.94769 10.7372 -7.08984
2788 3 16.1058 10.7372 12.5268 -6.63053
790 1 1.78954 14.3163 8.94769 -7.9871
2538 1 1.78954 12.5268 10.7372 -8.28398
2537 2 0 12.5268 8.94769 -7.04506
3037 2 0 12.5268 12.5268 -7.01619
3289 1 0 14.3163 10.7372 -7.974
3790 3 1.78954 14.3163 12.5268 -6.05748
259 3 3.57908 14.3163 10.7372 -6.12296
22 3 3.57908 12.5268 12.5268 -6.17749
791 1 5.36861 14.3163 12.5268 -8.13939
1038 1 7.15815 12.5268 12.5268 -8.24495
1291 3 7.15815 14.3163 10.7372 -6.42131
1290 3 5.36861 14.3163 8.94769 -6.47227
3038 1 3.57908 12.5268 8.94769 -8.49497
3539 3 7.15815 12.5268 8.94769 -6.56954
3538 3 5.36861 12.5268 10.7372 -6.33143
23 1 10.7372 12.5268 8.94769 -8.35191
538 3 8.94769 12.5268 10.7372 -6.34156
1791 2 8.94769 14.3163 12.5268 -6.88801
1790 2 8.94769 14.3163 8.94769 -6.98207
2039 1 10.7372 12.5268 12.5268 -8.33518
2290 1 10.7372 14.3163 10.7372 -8.4295
539 1 14.3163 12.5268 8.94769 -8.45042
1539 3 12.5268 12.5268 10.7372 -6.35325
2289 2 12.5268 14.3163 8.94769 -6.98329
2789 3 12.5268 14.3163 12.5268 -6.28005
3039 1 14.3163 12.5268 12.5268 -8.59152
3290 2 14.3163 14.3163 10.7372 -6.86661
2539 3 16.1058 12.5268 10.7372 -6.45433
2790 1 16.1058 14.3163 8.94769 -8.19923
3791 1 16.1058 14.3163 12.5268 -8.45919
24 1 0 16.1058 12.5268 -8.03019
1039 2 0 16.1058 8.94769 -6.95896
3540 1 1.78954 16.1058 10.7372 -8.16338
540 1 5.36861 16.1058 10.7372 -8.33353
1040 1 3.57908 16.1058 12.5268 -8.04047
1540 1 3.57908 16.1058 8.94769 -8.35846
2041 2 7.15815 16.1058 12.5268 -7.01365
2040 2 7.15815 16.1058 8.94769 -7.00471
1541 1 8.94769 16.1058 10.7372 -8.41474
2540 3 10.7372 16.1058 8.94769 -6.57917
3040 3 10.7372 16.1058 12.5268 -6.39364
25 3 14.3163 16.1058 12.5268 -6.42011
2541 3 12.5268 16.1058 10.7372 -6.52288
3041 2 14.3163 16.1058 8.94769 -7.01031
3541 3 16.1058 16.1058 10.7372 -6.54887
260 2 0 0 14.3163 -6.99119
541 3 1.78954 1.78954 14.3163 -6.44075
792 3 1.78954 0 16.1058 -6.41498
1041 2 0 1.78954 16.1058 -6.97759
1292 1 3.57908 0 14.3163 -8.24154
1542 1 5.36861 1.78954 14.3163 -8.51974
1792 2 5.36861 0 16.1058 -6.97593
2042 1 3.57908 1.78954 16.1058 -8.17217
2291 3 7.15815 0 14.3163 -6.57473
3042 3 7.15815 1.78954 16.1058 -6.58836
26 3 10.7372 1.78954 16.1058 -6.56116
2542 3 8.94769 1.78954 14.3163 -6.55485
2791 3 8.94769 0 16.1058 -6.74984
3291 3 10.7372 0 14.3163 -6.67394
261 2 14.3163 0 14.3163 -6.95695
1042 1 14.3163 1.78954 16.1058 -8.13452
3542 3 12.5268 1.78954 14.3163 -6.51086
3792 3 12.5268 0 16.1058 -6.5436
542 1 16.1058 1.78954 14.3163 -8.31938
793 3 16.1058 0 16.1058 -6.35516
1293 2 0 3.57908 14.3163 -7.03735
1543 2 1.78954 5.36861 14.3163 -7.07944
1793 1 1.78954 3.57908 16.1058 -8.25176
2043 2 0 5.36861 16.1058 -6.93892
2293 3 0 7.15815 14.3163 -6.39055
2793 3 1.78954 7.15815 16.1058 -6.51783
263 3 7.15815 7.15815 14.3163 -6.47619
27 3 7.15815 5.36861 16.1058 -6.5431
2292 2 3.57908 3.57908 14.3163 -6.96137
2543 2 5.36861 5.36861 14.3163 -7.08595
2792 3 5.36861 3.57908 16.1058 -6.5471
3043 3 3.57908 5.36861 16.1058 -6.56847
3293 2 3.57908 7.15815 14.3163 -7.04487
3292 3 7.15815 3.57908 14.3163 -6.45326
3794 2 5.36861 7.15815 16.1058 -7.03033
262 3 10.7372 3.57908 14.3163 -6.38389
795 2 8.94769 7.15815 16.1058 -6.9604
1043 1 10.7372 5.36861 16.1058 -8.14764
1295 2 10.7372 7.15815 14.3163 -7.0733
3543 1 8.94769 5.36861 14.3163 -8.39723
3793 1 8.94769 3.57908 16.1058 -8.46405
543 2 12.5268 5.36861 14.3163 -7.08803
794 1 12.5268 3.57908 16.1058 -8.32603
1294 1 14.3163 3.57908 14.3163 -8.27529
1795 2 12.5268 7.15815 16.1058 -7.18216
2044 2 14.3163 5.36861 16.1058 -7.14268
2294 2 14.3163 7.15815 14.3163 -7.20555
1544 2 16.1058 5.36861 14.3163 -7.11633
1794 1 16.1058 3.57908 16.1058 -8.27584
2794 2 16.1058 7.15815 16.1058 -7.1861
2544 3 1.78954 8.94769 14.3163 -6.44938
3044 1 0 8.94769 16.1058 -8.3745
3294 1 0 10.7372 14.3163 -8.32019
3795 3 1.78954 10.7372 16.1058 -6.2695
264 1 3.57908 10.7372 14.3163 -8.25032
28 1 3.57908 8.94769 16.1058 -8.46993
796 3 5.36861 10.7372 16.1058 -6.39165
1044 1 7.15815 8.94769 16.1058 -8.49172
1296 2 7.15815 10.7372 14.3163 -7.01323
3544 2 5.36861 8.94769 14.3163 -6.97026
544 1 8.94769 8.94769 14.3163 -8.16868
1796 2 8.94769 10.7372 16.1058 -6.98519
2045 3 10.7372 8.94769 16.1058 -6.65519
2295 1 10.7372 10.7372 14.3163 -8.33182
1545 3 12.5268 8.94769 14.3163 -6.73579
2795 2 12.5268 10.7372 16.1058 -6.99804
3045 2 14.3163 8.94769 16.1058 -7.20488
3295 3 14.3163 10.7372 14.3163 -6.64021
2545 3 16.1058 8.94769 14.3163 -6.73926
3796 3 16.1058 10.7372 16.1058 -6.64848
265 1 0 14.3163 14.3163 -8.22664
29 2 0 12.5268 16.1058 -6.98063
797 1 1.78954 14.3163 16.1058 -8.04227
3545 1 1.78954 12.5268 14.3163 -8.16946
545 1 5.36861 12.5268 14.3163 -8.14478
1045 2 3.57908 12.5268 16.1058 -6.95873
1297 1 3.57908 14.3163 14.3163 -8.11523
1797 3 5.36861 14.3163 16.1058 -6.42746
2046 2 7.15815 12.5268 16.1058 -6.94644
2296 1 7.15815 14.3163 14.3163 -8.27279
1546 3 8.94769 12.5268 14.3163 -6.24591
2796 1 8.94769 14.3163 16.1058 -8.28416
3046 1 10.7372 12.5268 16.1058 -8.39519
3296 1 10.7372 14.3163 14.3163 -8.46265
266 1 14.3163 14.3163 14.3163 -8.65018
30 3 14.3163 12.5268 16.1058 -6.53711
2546 3 12.5268 12.5268 14.3163 -6.30492
3797 2 12.5268 14.3163 16.1058 -6.88551
798 2 16.1058 14.3163 16.1058 -6.92366
3546 3 16.1058 12.5268 14.3163 -6.54299
546 1 1.78954 16.1058 14.3163 -8.00967
1046 3 0 16.1058 16.1058 -6.21035
1547 2 5.36861 16.1058 14.3163 -6.94947
2047 3 3.57908 16.1058 16.1058 -6.27531
3047 2 7.15815 16.1058 16.1058 -7.05072
31 2 10.7372 16.1058 16.1058 -6.91802
2547 3 8.94769 16.1058 14.3163 -6.55389
1047 3 14.3163 16.1058 16.1058 -6.47779
3547 3 12.5268 16.1058 14.3163 -6.3328
547 3 16.1058 16.1058 14.3163 -6.47607
1298 3 0 0 17.8954 -6.46849
1548 1 1.78954 1.78954 17.8954 -8.48358
1798 3 1.78954 0 19.6849 -6.40898
2048 3 0 1.78954 19.6849 -6.34651
2297 1 0 0 21.4745 -8.26659
2548 1 1.78954 1.78954 21.4745 -8.48806
32 2 7.15815 1.78954 19.6849 -7.11164
283 2 7.15815 0 21.4745 -6.96166
2298 3 3.57908 0 17.8954 -6.45314
2549 2 5.36861 1.78954 17.8954 -7.00594
2797 2 5.36861 0 19.6849 -7.07235
3048 3 3.57908 1.78954 19.6849 -6.44063
3298 2 7.15815 0 17.8954 -7.10994
3297 2 3.57908 0 21.4745 -6.99455
3548 2 5.36861 1.78954 21.4745 -7.01831
501 1 8.94769 1.78954 21.4745 -8.36522
284 2 10.7372 0 17.8954 -7.02605
1048 3 10.7372 1.78954 19.6849 -6.51859
1299 1 10.7372 0 21.4745 -8.33342
3549 2 8.94769 1.78954 17.8954 -7.08831
3798 3 8.94769 0 19.6849 -6.5448
502 2 12.5268 1.78954 17.8954 -6.94729
799 1 12.5268 0 19.6849 -8.35025
1300 1 14.3163 0 17.8954 -8.31488
1549 2 12.5268 1.78954 21.4745 -6.98872
2049 3 14.3163 1.78954 19.6849 -6.36611
2299 1 14.3163 0 21.4745 -8.39073
1550 1 16.1058 1.78954 17.8954 -8.38713
1799 2 16.1058 0 19.6849 -6.97357
2550 2 16.1058 1.78954 21.4745 -7.00862
287 3 0 7.15815 21.4745 -6.62757
2300 1 0 3.57908 17.8954 -8.28296
2551 2 1.78954 5.36861 17.8954 -6.97269
2798 3 1.78954 3.57908 19.6849 -6.30336
3049 1 0 5.36861 19.6849 -8.68479
3302 3 0 7.15815 17.8954 -6.46047
3299 3 0 3.57908 21.4745 -6.4624
3550 3 1.78954 5.36861 21.4745 -6.54837
3800 2 1.78954 7.15815 19.6849 -7.06225
503 2 5.36861 5.36861 21.4745 -7.04074
33 2 3.57908 5.36861 19.6849 -6.95809
288 1 3.57908 7.15815 17.8954 -8.40507
286 2 7.15815 3.57908 17.8954 -7.02098
285 1 3.57908 3.57908 21.4745 -8.54727
801 1 5.36861 7.15815 19.6849 -8.54668
1049 3 7.15815 5.36861 19.6849 -6.4834
1304 2 7.15815 7.15815 17.8954 -6.93034
1303 2 3.57908 7.15815 21.4745 -7.07582
1301 1 7.15815 3.57908 21.4745 -8.4065
2303 3 7.15815 7.15815 21.4745 -6.36498
3300 1 3.57908 3.57908 17.8954 -8.50377
3551 3 5.36861 5.36861 17.8954 -6.49593
3799 3 5.36861 3.57908 19.6849 -6.51486
504 1 8.94769 5.36861 17.8954 -8.29091
800 2 8.94769 3.57908 19.6849 -7.00559
1302 2 10.7372 3.57908 17.8954 -7.06796
1551 3 8.94769 5.36861 21.4745 -6.46431
1801 1 8.94769 7.15815 19.6849 -8.60353
2050 2 10.7372 5.36861 19.6849 -7.05207
2304 2 10.7372 7.15815 17.8954 -7.09117
2301 2 10.7372 3.57908 21.4745 -7.00593
3303 2 10.7372 7.15815 21.4745 -6.93913
289 1 14.3163 7.15815 21.4745 -8.27001
1552 2 12.5268 5.36861 17.8954 -7.07295
1800 1 12.5268 3.57908 19.6849 -8.57092
2302 3 14.3163 3.57908 17.8954 -6.41371
2552 3 12.5268 5.36861 21.4745 -6.47774
2800 1 12.5268 7.15815 19.6849 -8.46503
3050 3 14.3163 5.36861 19.6849 -6.41827
3304 2 14.3163 7.15815 17.8954 -7.14417
3301 1 14.3163 3.57908 21.4745 -8.3461
2553 2 16.1058 5.36861 17.8954 -7.06784
2799 2 16.1058 3.57908 19.6849 -6.95111
3552 3 16.1058 5.36861 21.4745 -6.28116
3801 1 16.1058 7.15815 19.6849 -8.35215
505 2 1.78954 8.94769 21.4745 -7.13002
34 2 0 8.94769 19.6849 -7.0514
290 1 0 10.7372 17.8954 -8.34419
802 2 1.78954 10.7372 19.6849 -7.07376
1305 1 0 10.7372 21.4745 -8.47216
3553 2 1.78954 8.94769 17.8954 -6.9743
506 3 5.36861 8.94769 17.8954 -6.39798
1050 1 3.57908 8.94769 19.6849 -8.28152
1306 2 3.57908 10.7372 17.8954 -6.99291
1553 3 5.36861 8.94769 21.4745 -6.4799
1802 1 5.36861 10.7372 19.6849 -8.32581
2051 3 7.15815 8.94769 19.6849 -6.51006
2306 2 7.15815 10.7372 17.8954 -6.97825
2305 2 3.57908 10.7372 21.4745 -7.11474
3305 2 7.15815 10.7372 21.4745 -7.01548
291 2 10.7372 10.7372 21.4745 -6.99885
1554 3 8.94769 8.94769 17.8954 -6.61671
2554 2 8.94769 8.94769 21.4745 -6.99785
2801 3 8.94769 10.7372 19.6849 -6.68261
3051 3 10.7372 8.94769 19.6849 -6.54378
3306 2 10.7372 10.7372 17.8954 -7.0282
35 3 14.3163 8.94769 19.6849 -6.36419
292 3 14.3163 10.7372 17.8954 -6.49544
1307 3 14.3163 10.7372 21.4745 -6.29998
2555 2 12.5268 8.94769 17.8954 -7.08105
3554 1 12.5268 8.94769 21.4745 -8.42446
3802 1 12.5268 10.7372 19.6849 -8.62701
507 2 16.1058 8.94769 21.4745 -6.91756
803 1 16.1058 10.7372 19.6849 -8.27842
3555 2 16.1058 8.94769 17.8954 -7.08681
508 1 1.78954 12.5268 17.8954 -8.25594
1051 3 0 12.5268 19.6849 -6.41718
1308 1 0 14.3163 17.8954 -8.34212
1555 2 1.78954 12.5268 21.4745 -7.03283
1803 1 1.78954 14.3163 19.6849 -8.27024
2307 3 0 14.3163 21.4745 -6.53103
293 3 7.15815 14.3163 21.4745 -6.47121
1556 1 5.36861 12.5268 17.8954 -8.44449
2052 2 3.57908 12.5268 19.6849 -7.0458
2308 3 3.57908 14.3163 17.8954 -6.3777
2556 2 5.36861 12.5268 21.4745 -7.08346
2802 2 5.36861 14.3163 19.6849 -6.90656
3052 1 7.15815 12.5268 19.6849 -8.41767
3308 3 7.15815 14.3163 17.8954 -6.38855
3307 1 3.57908 14.3163 21.4745 -8.31311
36 2 10.7372 12.5268 19.6849 -6.91107
294 2 10.7372 14.3163 17.8954 -6.93145
1309 3 10.7372 14.3163 21.4745 -6.54872
2557 3 8.94769 12.5268 17.8954 -6.46158
3556 3 8.94769 12.5268 21.4745 -6.60247
3803 1 8.94769 14.3163 19.6849 -8.42375
509 3 12.5268 12.5268 21.4745 -6.49454
804 1 12.5268 14.3163 19.6849 -8.7969
1052 3 14.3163 12.5268 19.6849 -6.26373
1310 3 14.3163 14.3163 17.8954 -6.45698
2309 2 14.3163 14.3163 21.4745 -7.01013
3557 3 12.5268 12.5268 17.8954 -6.50716
510 1 16.1058 12.5268 17.8954 -8.38409
1557 1 16.1058 12.5268 21.4745 -8.22171
1804 1 16.1058 14.3163 19.6849 -8.26387
1558 1 1.78954 16.1058 17.8954 -8.35191
2053 2 0 16.1058 19.6849 -6.94489
2558 2 1.78954 16.1058 21.4745 -6.89554
37 3 7.15815 16.1058 19.6849 -6.32063
2559 3 5.36861 16.1058 17.8954 -6.58982
3053 2 3.57908 16.1058 19.6849 -6.94194
3558 1 5.36861 16.1058 21.4745 -8.38831
511 1 8.94769 16.1058 21.4745 -8.62914
1053 3 10.7372 16.1058 19.6849 -6.34823
3559 1 8.94769 16.1058 17.8954 -8.27973
512 3 12.5268 16.1058 17.8954 -6.39662
1559 2 12.5268 16.1058 21.4745 -7.00151
2054 3 14.3163 16.1058 19.6849 -6.44134
1560 2 16.1058 16.1058 17.8954 -7.01838
2560 1 16.1058 16.1058 21.4745 -8.52932
2803 1 1.78954 0 23.264 -8.34492
3054 3 0 1.78954 23.264 -6.49197
3309 2 0 0 25.0535 -7.0257
3560 2 1.78954 1.78954 25.0535 -7.00405
39 3 5.36861 1.78954 25.0535 -6.54743
38 3 3.57908 1.78954 23.264 -6.52051
295 2 7.15815 0 25.0535 -7.01918
1054 1 7.15815 1.78954 23.264 -8.35327
3805 2 3.57908 0 25.0535 -7.10372
3804 1 5.36861 0 23.264 -8.23686
513 3 8.94769 1.78954 25.0535 -6.53088
806 1 10.7372 0 25.0535 -8.40379
805 3 8.94769 0 23.264 -6.2344
2055 3 10.7372 1.78954 23.264 -6.44623
1055 2 12.5268 1.78954 25.0535 -7.00494
1311 2 14.3163 0 25.0535 -6.8827
1805 1 12.5268 0 23.264 -8.10026
3055 1 14.3163 1.78954 23.264 -8.2277
1561 3 16.1058 1.78954 25.0535 -6.20375
2804 3 16.1058 0 23.264 -6.31989
40 1 0 5.36861 23.264 -8.49122
296 2 0 7.15815 25.0535 -7.01526
808 2 1.78954 7.15815 23.264 -7.08312
1806 3 0 3.57908 25.0535 -6.40894
2056 1 1.78954 5.36861 25.0535 -8.29201
3806 2 1.78954 3.57908 23.264 -6.92448
809 1 3.57908 7.15815 25.0535 -8.30043
807 2 5.36861 3.57908 23.264 -7.0108
1056 2 3.57908 5.36861 23.264 -7.01743
1312 2 7.15815 7.15815 25.0535 -7.00937
1808 2 5.36861 7.15815 23.264 -7.01415
2057 1 7.15815 5.36861 23.264 -8.33542
2310 3 3.57908 3.57908 25.0535 -6.54744
2561 3 5.36861 5.36861 25.0535 -6.51347
2805 2 7.15815 3.57908 25.0535 -6.96098
1809 1 10.7372 7.15815 25.0535 -8.35192
1807 3 8.94769 3.57908 23.264 -6.43421
2807 1 8.94769 7.15815 23.264 -8.24775
3057 3 10.7372 5.36861 23.264 -6.54007
3056 1 8.94769 5.36861 25.0535 -8.23917
3310 2 10.7372 3.57908 25.0535 -6.98343
41 2 14.3163 5.36861 23.264 -6.96273
2311 1 14.3163 7.15815 25.0535 -8.40426
2806 2 12.5268 3.57908 23.264 -7.04002
3561 2 12.5268 5.36861 25.0535 -7.01378
3809 2 12.5268 7.15815 23.264 -6.96261
3808 3 14.3163 3.57908 25.0535 -6.47583
42 3 16.1058 5.36861 25.0535 -6.22504
810 1 16.1058 7.15815 23.264 -8.35721
3807 1 16.1058 3.57908 23.264 -8.5207
514 1 1.78954 8.94769 25.0535 -8.12994
1057 2 0 8.94769 23.264 -7.01131
1810 3 1.78954 10.7372 23.264 -6.49111
2808 1 0 10.7372 25.0535 -8.29424
1058 1 5.36861 8.94769 25.0535 -8.16556
2058 3 3.57908 8.94769 23.264 -6.52567
2809 2 5.36861 10.7372 23.264 -7.1185
3058 1 7.15815 8.94769 23.264 -8.2188
3311 1 3.57908 10.7372 25.0535 -8.33056
3811 1 7.15815 10.7372 25.0535 -8.24763
43 3 10.7372 8.94769 23.264 -6.40993
297 1 10.7372 10.7372 25.0535 -8.57455
1562 1 8.94769 8.94769 25.0535 -8.17226
3810 2 8.94769 10.7372 23.264 -7.02657
812 1 14.3163 10.7372 25.0535 -8.27019
811 3 12.5268 10.7372 23.264 -6.4456
1059 2 14.3163 8.94769 23.264 -6.9928
2059 2 12.5268 8.94769 25.0535 -6.88831
1811 3 16.1058 10.7372 23.264 -6.36721
2562 1 16.1058 8.94769 25.0535 -8.2746
1313 3 0 14.3163 25.0535 -6.54593
2060 3 0 12.5268 23.264 -6.53828
2810 3 1.78954 14.3163 23.264 -6.55711
3059 2 1.78954 12.5268 25.0535 -6.95572
44 2 7.15815 12.5268 23.264 -7.0591
1812 2 3.57908 14.3163 25.0535 -6.93028
2312 1 7.15815 14.3163 25.0535 -8.29052
3060 2 3.57908 12.5268 23.264 -7.10294
3562 1 5.36861 12.5268 25.0535 -8.30912
3812 2 5.36861 14.3163 23.264 -7.02023
45 3 8.94769 12.5268 25.0535 -6.48671
813 3 8.94769 14.3163 23.264 -6.59417
1060 3 10.7372 12.5268 23.264 -6.63216
2811 3 10.7372 14.3163 25.0535 -6.71981
515 2 12.5268 12.5268 25.0535 -7.01844
1813 2 12.5268 14.3163 23.264 -7.06912
2061 1 14.3163 12.5268 23.264 -8.3081
3312 3 14.3163 14.3163 25.0535 -6.55113
1061 1 16.1058 12.5268 25.0535 -8.33717
2812 1 16.1058 14.3163 23.264 -8.19586
1563 3 1.78954 16.1058 25.0535 -6.36488
3061 1 0 16.1058 23.264 -8.40509
46 3 3.57908 16.1058 23.264 -6.37754
1062 2 7.15815 16.1058 23.264 -7.00008
2062 1 5.36861 16.1058 25.0535 -8.20454
2063 2 10.7372 16.1058 23.264 -7.13698
2563 2 8.94769 16.1058 25.0535 -7.01005
3063 2 14.3163 16.1058 23.264 -7.06124
3062 2 12.5268 16.1058 25.0535 -7.1599
3563 2 16.1058 16.1058 25.0535 -7.05117
751 3 1.78954 0 30.4221 -6.45106
47 3 0 1.78954 26.8431 -6.45805
298 1 0 0 28.6326 -8.55813
548 1 1.78954 1.78954 28.6326 -8.34542
1063 2 0 1.78954 30.4221 -7.02361
3813 2 1.78954 0 26.8431 -7.03546
299 2 5.36861 0 26.8431 -7.06123
549 3 3.57908 1.78954 26.8431 -6.53056
1064 2 7.15815 1.78954 26.8431 -6.99937
1314 1 3.57908 0 28.6326 -8.35431
1564 2 5.36861 1.78954 28.6326 -6.87247
1814 1 5.36861 0 30.4221 -8.27442
2064 3 3.57908 1.78954 30.4221 -6.2274
2313 3 7.15815 0 28.6326 -6.31861
3064 1 7.15815 1.78954 30.4221 -8.14141
752 3 8.94769 0 26.8431 -6.39425
48 3 10.7372 1.78954 30.4221 -6.22313
1565 3 10.7372 1.78954 26.8431 -6.4614
2564 1 8.94769 1.78954 28.6326 -8.54911
2813 1 8.94769 0 30.4221 -8.11353
3313 3 10.7372 0 28.6326 -6.24432
300 1 14.3163 0 28.6326 -8.1827
1065 3 14.3163 1.78954 30.4221 -6.10719
1315 2 12.5268 0 26.8431 -6.9194
2065 3 14.3163 1.78954 26.8431 -6.32845
3564 1 12.5268 1.78954 28.6326 -8.35419
3814 1 12.5268 0 30.4221 -8.23439
753 1 16.1058 0 30.4221 -8.35938
550 3 16.1058 1.78954 28.6326 -6.1654
1815 1 16.1058 0 26.8431 -8.26312
755 1 1.78954 7.15815 26.8431 -8.07135
1316 1 0 3.57908 28.6326 -8.18887
1566 2 1.78954 5.36861 28.6326 -6.90219
1816 1 1.78954 3.57908 30.4221 -8.18164
2066 1 0 5.36861 30.4221 -8.46998
2316 3 0 7.15815 28.6326 -6.31268