ITEM: TIMESTEP
0
ITEM: NUMBER OF ATOMS
4000
ITEM: BOX BOUNDS pp pp pp
0.0000000000000000e+00 3.5680830000000000e+01
0.0000000000000000e+00 3.5680830000000000e+01
0.0000000000000000e+00 3.5680830000000000e+01
ITEM: ATOMS id type x y z c_peratom
267 1 0 0 0 -8.54492
516 3 1.78404 1.78404 0 -6.25903
767 3 1.78404 0 1.78404 -6.25094
1016 2 0 1.78404 1.78404 -6.85392
1267 1 0 0 3.56808 -8.33137
1268 1 3.56808 0 0 -8.48232
1270 1 0 3.56808 0 -8.28475
1517 2 1.78404 1.78404 3.56808 -7.01797
1768 2 1.78404 3.56808 1.78404 -7.00244
2017 1 3.56808 1.78404 1.78404 -8.5228
2266 3 3.56808 0 3.56808 -6.64202
2268 3 0 3.56808 3.56808 -6.45172
2269 2 3.56808 3.56808 0 -7.0508
3268 1 3.56808 3.56808 3.56808 -8.29089
1518 2 5.35212 1.78404 0 -7.04311
1767 3 5.35212 0 1.78404 -6.4404
2517 3 5.35212 1.78404 3.56808 -6.59264
2767 2 5.35212 3.56808 1.78404 -7.04857
1 2 10.7042 1.78404 1.78404 -7.0019
268 3 10.7042 0 3.56808 -6.39548
270 3 7.13617 3.56808 3.56808 -6.57696
271 1 10.7042 3.56808 0 -8.13126
1271 3 10.7042 3.56808 3.56808 -6.5708
2267 2 7.13617 0 0 -6.98285
2518 1 8.92021 1.78404 0 -8.16285
2766 1 8.92021 0 1.78404 -8.32119
3017 1 7.13617 1.78404 1.78404 -8.42456
3266 2 7.13617 0 3.56808 -7.02957
3269 2 7.13617 3.56808 0 -7.01942
3267 1 10.7042 0 0 -8.40728
3517 1 8.92021 1.78404 3.56808 -8.55039
3768 2 8.92021 3.56808 1.78404 -6.96976
269 2 14.2723 0 0 -6.93245
517 3 12.4883 1.78404 3.56808 -6.41142
769 2 12.4883 3.56808 1.78404 -6.94558
1017 3 14.2723 1.78404 1.78404 -6.33825
1269 1 14.2723 0 3.56808 -8.15504
1272 2 14.2723 3.56808 0 -6.99878
2270 1 14.2723 3.56808 3.56808 -8.44589
3518 2 12.4883 1.78404 0 -7.03122
3767 1 12.4883 0 1.78404 -8.41412
376 1 17.8404 0 0 -8.41034
518 1 16.0564 1.78404 0 -8.42096
768 3 16.0564 0 1.78404 -6.31883
1126 3 17.8404 1.78404 1.78404 -6.27226
1379 2 17.8404 3.56808 0 -6.93401
1376 3 17.8404 0 3.56808 -6.34786
1519 1 16.0564 1.78404 3.56808 -8.29258
1769 1 16.0564 3.56808 1.78404 -8.43172
2393 3 17.8404 3.56808 3.56808 -6.15055
1520 1 1.78404 5.35212 0 -8.23863
2018 1 0 5.35212 1.78404 -8.30191
2519 1 1.78404 5.35212 3.56808 -8.23054
3018 2 3.56808 5.35212 1.78404 -7.02693
2520 2 5.35212 5.35212 0 -7.09996
3519 2 5.35212 5.35212 3.56808 -7.03083
2 1 7.13617 5.35212 1.78404 -8.33122
519 2 8.92021 5.35212 3.56808 -6.99158
1018 1 10.7042 5.35212 1.78404 -8.38754
3520 3 8.92021 5.35212 0 -6.21862
520 2 12.4883 5.35212 0 -7.06532
1521 3 12.4883 5.35212 3.56808 -6.30864
2019 1 14.2723 5.35212 1.78404 -8.4198
1522 3 16.0564 5.35212 0 -6.37192
2002 3 17.8404 5.35212 1.78404 -6.46303
2521 3 16.0564 5.35212 3.56808 -6.27705
3 1 3.56808 8.92021 1.78404 -8.34942
272 3 3.56808 7.13617 3.56808 -6.32071
274 2 0 10.7042 3.56808 -7.01667
275 1 3.56808 10.7042 0 -8.65969
1275 3 3.56808 10.7042 3.56808 -6.51676
2271 2 0 7.13617 0 -7.04593
2522 2 1.78404 8.92021 0 -6.96797
2768 1 1.78404 7.13617 1.78404 -8.12346
3019 1 0 8.92021 1.78404 -8.53087
3273 2 0 10.7042 0 -7.00839
3271 2 3.56808 7.13617 0 -7.03501
3270 3 0 7.13617 3.56808 -6.43219
3521 2 1.78404 8.92021 3.56808 -6.93576
3770 3 1.78404 10.7042 1.78404 -6.5293
521 3 5.35212 8.92021 3.56808 -6.35078
771 3 5.35212 10.7042 1.78404 -6.29169
3522 1 5.35212 8.92021 0 -8.16422
3769 1 5.35212 7.13617 1.78404 -8.2177
273 1 7.13617 7.13617 0 -8.2595
522 1 8.92021 8.92021 0 -8.16261
770 2 8.92021 7.13617 1.78404 -7.0218
1019 3 7.13617 8.92021 1.78404 -6.12045
1276 1 7.13617 10.7042 0 -8.43601
1274 1 10.7042 7.13617 0 -8.07897
1273 1 7.13617 7.13617 3.56808 -8.37301
1523 1 8.92021 8.92021 3.56808 -8.16718
1771 2 8.92021 10.7042 1.78404 -6.94381
2020 1 10.7042 8.92021 1.78404 -8.01572
2272 1 10.7042 7.13617 3.56808 -8.21979
2275 1 10.7042 10.7042 0 -8.06033
2274 1 7.13617 10.7042 3.56808 -8.60735
3274 1 10.7042 10.7042 3.56808 -8.4309
276 3 14.2723 10.7042 3.56808 -6.50822
1524 1 12.4883 8.92021 0 -7.96854
1770 3 12.4883 7.13617 1.78404 -6.07383
2273 1 14.2723 7.13617 0 -8.09686
2523 3 12.4883 8.92021 3.56808 -6.23214
2770 2 12.4883 10.7042 1.78404 -6.99683
3020 1 14.2723 8.92021 1.78404 -8.63403
3275 3 14.2723 10.7042 0 -6.23158
3272 3 14.2723 7.13617 3.56808 -6.33644
383 1 17.8404 10.7042 3.56808 -8.44889
2396 2 17.8404 7.13617 0 -6.95558
2524 3 16.0564 8.92021 0 -6.26778
2769 2 16.0564 7.13617 1.78404 -6.87774
3144 3 17.8404 8.92021 1.78404 -6.62227
3398 3 17.8404 10.7042 0 -6.46621
3395 3 17.8404 7.13617 3.56808 -6.4571
3523 3 16.0564 8.92021 3.56808 -6.4644
3771 2 16.0564 10.7042 1.78404 -6.92781
4 3 0 12.4883 1.78404 -6.56793
277 2 0 14.2723 0 -6.93764
523 2 1.78404 12.4883 3.56808 -6.97579
772 3 1.78404 14.2723 1.78404 -6.61524
1020 3 3.56808 12.4883 1.78404 -6.55228
1278 3 3.56808 14.2723 0 -6.57559
1277 2 0 14.2723 3.56808 -7.01764
2276 1 3.56808 14.2723 3.56808 -8.52464
3524 3 1.78404 12.4883 0 -6.56796
524 3 5.35212 12.4883 0 -6.36077
1525 2 5.35212 12.4883 3.56808 -7.04285
1772 2 5.35212 14.2723 1.78404 -6.92295
278 3 10.7042 14.2723 3.56808 -6.45668
1526 1 8.92021 12.4883 0 -8.15191
2021 3 7.13617 12.4883 1.78404 -6.34414
2277 1 7.13617 14.2723 0 -8.50657
2525 2 8.92021 12.4883 3.56808 -6.93285
2771 1 8.92021 14.2723 1.78404 -8.4652
3021 3 10.7042 12.4883 1.78404 -6.34571
3277 2 10.7042 14.2723 0 -7.0342
3276 3 7.13617 14.2723 3.56808 -6.67491
5 2 14.2723 12.4883 1.78404 -6.95742
279 3 14.2723 14.2723 0 -6.21953
1279 3 14.2723 14.2723 3.56808 -6.33679
2526 1 12.4883 12.4883 0 -8.28666
3525 2 12.4883 12.4883 3.56808 -6.9677
3772 2 12.4883 14.2723 1.78404 -6.91708
129 1 17.8404 12.4883 1.78404 -8.4676
386 3 17.8404 14.2723 0 -6.36312
525 2 16.0564 12.4883 3.56808 -7.0275
773 1 16.0564 14.2723 1.78404 -8.41997
1386 1 17.8404 14.2723 3.56808 -8.26118
3526 2 16.0564 12.4883 0 -6.92343
314 2 3.56808 17.8404 3.56808 -6.99542
526 2 1.78404 16.0564 0 -6.90755
1021 1 0 16.0564 1.78404 -8.32394
1527 2 1.78404 16.0564 3.56808 -7.05467
2022 2 3.56808 16.0564 1.78404 -6.98299
2328 2 0 17.8404 0 -6.97639
2828 1 1.78404 17.8404 1.78404 -8.37368
3329 3 3.56808 17.8404 0 -6.22186
3328 2 0 17.8404 3.56808 -7.08109
1528 3 5.35212 16.0564 0 -6.29048
2527 2 5.35212 16.0564 3.56808 -7.04178
3829 1 5.35212 17.8404 1.78404 -8.36134
6 1 10.7042 16.0564 1.78404 -8.31997
315 1 7.13617 17.8404 0 -8.08085
814 1 8.92021 17.8404 1.78404 -8.18888
1331 2 10.7042 17.8404 0 -7.0387
1330 1 7.13617 17.8404 3.56808 -8.24971
2329 3 10.7042 17.8404 3.56808 -6.44216
2528 1 8.92021 16.0564 0 -7.96298
3022 3 7.13617 16.0564 1.78404 -6.22869
3527 3 8.92021 16.0564 3.56808 -6.46237
527 2 12.4883 16.0564 3.56808 -6.95425
1022 1 14.2723 16.0564 1.78404 -8.37142
1830 1 12.4883 17.8404 1.78404 -8.36946
2330 1 14.2723 17.8404 0 -8.24636
3330 2 14.2723 17.8404 3.56808 -6.98598
3528 3 12.4883 16.0564 0 -6.2149
528 2 16.0564 16.0564 0 -7.00287
1131 2 17.8404 16.0564 1.78404 -6.89412
1529 3 16.0564 16.0564 3.56808 -6.19186
2438 1 17.8404 17.8404 0 -8.24354
2829 1 16.0564 17.8404 1.78404 -8.35063
3453 2 17.8404 17.8404 3.56808 -6.9376
775 1 0 3.56808 7.13617 -8.15576
1280 2 3.56808 3.56808 7.13617 -7.05543
1773 2 1.78404 0 5.35212 -7.1209
2023 3 0 1.78404 5.35212 -6.49565
2278 3 0 0 7.13617 -6.7108
2529 2 1.78404 1.78404 7.13617 -7.05437
2774 2 1.78404 3.56808 5.35212 -7.03108
2773 1 3.56808 0 7.13617 -8.4416
3023 2 3.56808 1.78404 5.35212 -7.13738
2772 2 5.35212 0 5.35212 -7.14789
3024 2 5.35212 1.78404 7.13617 -7.09669
3775 2 5.35212 3.56808 5.35212 -7.1305
7 2 7.13617 1.78404 5.35212 -7.05555
776 3 8.92021 3.56808 5.35212 -6.63616
1023 3 10.7042 1.78404 5.35212 -6.49661
1775 2 7.13617 3.56808 7.13617 -7.06564
2279 2 10.7042 3.56808 7.13617 -6.99475
3278 3 7.13617 0 7.13617 -6.65201
3529 3 8.92021 1.78404 7.13617 -6.4748
3774 1 10.7042 0 7.13617 -8.49344
3773 3 8.92021 0 5.35212 -6.56038
8 2 12.4883 1.78404 7.13617 -6.99427
280 2 14.2723 0 7.13617 -7.04117
774 1 12.4883 0 5.35212 -8.414
1776 2 12.4883 3.56808 5.35212 -6.96538
2024 2 14.2723 1.78404 5.35212 -7.00863
2776 1 14.2723 3.56808 7.13617 -8.50375
529 2 16.0564 1.78404 7.13617 -7.01997
884 1 17.8404 3.56808 7.13617 -8.09267
1774 2 16.0564 0 5.35212 -7.00433
2007 1 17.8404 1.78404 5.35212 -8.29897
2403 3 17.8404 0 7.13617 -6.44778
2775 2 16.0564 3.56808 5.35212 -6.93096
9 2 3.56808 5.35212 5.35212 -7.06098
1024 1 1.78404 5.35212 7.13617 -8.2294
3025 2 0 5.35212 5.35212 -7.00779
1530 1 5.35212 5.35212 7.13617 -8.37714
1025 3 7.13617 5.35212 5.35212 -6.60212
2026 3 10.7042 5.35212 5.35212 -6.50982
2025 2 8.92021 5.35212 7.13617 -7.03845
2530 3 12.4883 5.35212 7.13617 -6.43473
3026 3 14.2723 5.35212 5.35212 -6.35345
3150 1 17.8404 5.35212 5.35212 -8.16696
3027 1 16.0564 5.35212 7.13617 -8.12815
10 2 0 8.92021 5.35212 -6.92482
779 1 1.78404 10.7042 5.35212 -8.28006
1026 1 3.56808 8.92021 5.35212 -8.53262
1778 1 0 10.7042 7.13617 -8.10419
2280 2 3.56808 10.7042 7.13617 -6.99009
3279 3 0 7.13617 7.13617 -6.36458
3530 3 1.78404 8.92021 7.13617 -6.29891
3777 2 3.56808 7.13617 7.13617 -6.97499
3776 1 1.78404 7.13617 5.35212 -8.41209
11 3 5.35212 8.92021 7.13617 -6.49302
777 2 5.35212 7.13617 5.35212 -6.97059
1779 2 5.35212 10.7042 5.35212 -7.00271
281 2 7.13617 7.13617 7.13617 -6.96516
530 1 8.92021 8.92021 7.13617 -8.45118
778 1 10.7042 7.13617 7.13617 -8.23957
1777 2 8.92021 7.13617 5.35212 -6.97566
2027 3 7.13617 8.92021 5.35212 -6.43041
2779 3 7.13617 10.7042 7.13617 -6.45617
2778 3 8.92021 10.7042 5.35212 -6.25641
3028 1 10.7042 8.92021 5.35212 -8.09743
3280 3 10.7042 10.7042 7.13617 -6.13876
12 2 14.2723 8.92021 5.35212 -6.8565
1027 1 12.4883 8.92021 7.13617 -8.12545
1281 2 14.2723 7.13617 7.13617 -6.89825
2777 1 12.4883 7.13617 5.35212 -8.4777
3780 1 14.2723 10.7042 7.13617 -8.45857
3779 3 12.4883 10.7042 5.35212 -6.21522
135 3 17.8404 8.92021 5.35212 -6.48245
780 3 16.0564 10.7042 5.35212 -6.44651
1531 3 16.0564 8.92021 7.13617 -6.51172
1887 3 17.8404 10.7042 7.13617 -6.49241
3404 2 17.8404 7.13617 7.13617 -6.98569
3778 1 16.0564 7.13617 5.35212 -8.65492
282 3 0 14.2723 7.13617 -6.39072
781 2 3.56808 14.2723 7.13617 -6.99183
1028 1 0 12.4883 5.35212 -8.14989
1780 3 1.78404 14.2723 5.35212 -6.43587
2029 2 3.56808 12.4883 5.35212 -7.04127
2028 1 1.78404 12.4883 7.13617 -8.40915
2531 2 5.35212 12.4883 7.13617 -7.01361
2780 2 5.35212 14.2723 5.35212 -7.13545
13 3 10.7042 12.4883 5.35212 -6.37705
1282 3 7.13617 14.2723 7.13617 -6.57687
1781 3 10.7042 14.2723 7.13617 -6.31261
3030 1 8.92021 12.4883 7.13617 -8.89571
3029 2 7.13617 12.4883 5.35212 -7.07669
3781 2 8.92021 14.2723 5.35212 -7.00145
782 1 12.4883 14.2723 5.35212 -8.37762
1029 1 14.2723 12.4883 5.35212 -8.48657
2281 2 14.2723 14.2723 7.13617 -6.9644
3531 1 12.4883 12.4883 7.13617 -8.44717
14 3 16.0564 12.4883 7.13617 -6.23947
391 1 17.8404 14.2723 7.13617 -8.04649
1138 2 17.8404 12.4883 5.35212 -6.91932
1782 2 16.0564 14.2723 5.35212 -6.91516
326 3 0 17.8404 7.13617 -6.26272
531 1 1.78404 16.0564 7.13617 -8.45084
821 3 3.56808 17.8404 7.13617 -6.37979
2030 2 0 16.0564 5.35212 -6.96941
3031 1 3.56808 16.0564 5.35212 -8.35799
3835 1 1.78404 17.8404 5.35212 -8.27402
820 2 5.35212 17.8404 5.35212 -6.98417
1030 3 5.35212 16.0564 7.13617 -6.59464
15 2 7.13617 16.0564 5.35212 -7.07175
1031 2 10.7042 16.0564 5.35212 -6.98037
1342 2 7.13617 17.8404 7.13617 -6.95288
1532 1 8.92021 16.0564 7.13617 -8.49045
1837 2 10.7042 17.8404 7.13617 -7.01362
1836 2 8.92021 17.8404 5.35212 -7.03496
2032 1 14.2723 16.0564 5.35212 -8.19287
2031 1 12.4883 16.0564 7.13617 -8.1444
2341 1 14.2723 17.8404 7.13617 -8.07829
2835 1 12.4883 17.8404 5.35212 -8.34348
451 2 17.8404 17.8404 7.13617 -7.00126
2014 1 17.8404 16.0564 5.35212 -8.22785
2532 1 16.0564 16.0564 7.13617 -7.87541
3836 1 16.0564 17.8404 5.35212 -8.18288
251 1 3.56808 0 10.7042 -8.36421
253 1 0 3.56808 10.7042 -8.31856
16 3 0 1.78404 12.4883 -6.22552
785 2 1.78404 3.56808 12.4883 -6.96786
1032 2 3.56808 1.78404 12.4883 -7.00774
1285 1 3.56808 3.56808 10.7042 -8.04714
1284 1 1.78404 3.56808 8.92021 -8.12144
2781 1 1.78404 0 8.92021 -8.31857
3032 2 0 1.78404 8.92021 -7.01283
3281 3 0 0 10.7042 -6.43376
3533 2 3.56808 1.78404 8.92021 -7.07987
3532 1 1.78404 1.78404 10.7042 -8.25567
3782 3 1.78404 0 12.4883 -6.20132
532 2 5.35212 1.78404 10.7042 -6.97086
783 2 5.35212 0 12.4883 -6.9493
1785 1 5.35212 3.56808 12.4883 -8.32271
1784 1 5.35212 3.56808 8.92021 -8.29064
3282 3 5.35212 0 8.92021 -6.49491
17 3 7.13617 1.78404 8.92021 -6.3881
533 1 10.7042 1.78404 8.92021 -8.14671
1283 1 7.13617 0 10.7042 -8.22994
1533 2 8.92021 1.78404 10.7042 -6.93609
1783 1 8.92021 0 12.4883 -8.17276
2033 1 7.13617 1.78404 12.4883 -8.3145
2284 3 7.13617 3.56808 10.7042 -6.28524
2283 1 8.92021 3.56808 8.92021 -8.34125
2282 2 10.7042 0 10.7042 -6.9465
2783 3 8.92021 3.56808 12.4883 -6.41946
3033 2 10.7042 1.78404 12.4883 -6.97971
3284 1 10.7042 3.56808 10.7042 -8.33338
3783 1 8.92021 0 8.92021 -8.28323
252 3 12.4883 0 8.92021 -6.45636
254 2 14.2723 3.56808 10.7042 -7.02164
18 2 14.2723 1.78404 12.4883 -7.04519
1033 3 14.2723 1.78404 8.92021 -6.62139
2533 1 12.4883 1.78404 10.7042 -8.47286
2784 2 12.4883 3.56808 8.92021 -7.04966
2782 2 12.4883 0 12.4883 -6.98669
3283 3 14.2723 0 10.7042 -6.58401
3785 2 12.4883 3.56808 12.4883 -7.1095
394 3 17.8404 3.56808 10.7042 -6.49081
141 1 17.8404 1.78404 12.4883 -8.84793
786 2 16.0564 3.56808 12.4883 -7.00208
784 3 16.0564 0 8.92021 -6.63211
3157 1 17.8404 1.78404 8.92021 -8.6657
3406 2 17.8404 0 10.7042 -6.86701
3285 2 16.0564 3.56808 8.92021 -7.00927
3534 3 16.0564 1.78404 10.7042 -6.59492
3784 3 16.0564 0 12.4883 -6.57621
534 1 1.78404 5.35212 10.7042 -8.1969
1034 3 0 5.35212 12.4883 -6.40639
1534 2 0 5.35212 8.92021 -7.04828
2035 2 3.56808 5.35212 12.4883 -7.03294
2034 3 3.56808 5.35212 8.92021 -6.10953
1535 1 5.35212 5.35212 10.7042 -8.33499
19 2 10.7042 5.35212 12.4883 -6.92532
2535 2 8.92021 5.35212 10.7042 -7.01428
2534 1 7.13617 5.35212 8.92021 -8.02968
3035 2 10.7042 5.35212 8.92021 -7.00985
3034 3 7.13617 5.35212 12.4883 -6.53559
1035 1 14.2723 5.35212 12.4883 -8.19999
3536 1 14.2723 5.35212 8.92021 -8.22989
3535 2 12.4883 5.35212 10.7042 -7.05632
535 1 16.0564 5.35212 10.7042 -8.35378
1144 3 17.8404 5.35212 12.4883 -6.62262
1643 3 17.8404 5.35212 8.92021 -6.45829
20 1 0 8.92021 8.92021 -8.33609
536 3 3.56808 8.92021 8.92021 -6.3988
1286 1 0 7.13617 10.7042 -8.296
1536 2 1.78404 8.92021 10.7042 -6.96807
1786 2 1.78404 7.13617 12.4883 -6.99443
2036 2 0 8.92021 12.4883 -7.04915
2287 3 0 10.7042 10.7042 -6.69142
2286 2 1.78404 10.7042 8.92021 -6.96493
2285 3 3.56808 7.13617 10.7042 -6.30536
2786 2 1.78404 10.7042 12.4883 -7.03039
3036 1 3.56808 8.92021 12.4883 -8.5138
3287 3 3.56808 10.7042 10.7042 -6.42264
3786 1 1.78404 7.13617 8.92021 -8.38604
255 1 5.35212 7.13617 8.92021 -8.53806
2536 3 5.35212 8.92021 10.7042 -6.33524
2787 1 5.35212 10.7042 8.92021 -8.75333
2785 3 5.35212 7.13617 12.4883 -6.50767
3788 1 5.35212 10.7042 12.4883 -8.36919
256 1 10.7042 7.13617 10.7042 -8.57945
257 2 7.13617 10.7042 10.7042 -6.86467
21 1 7.13617 8.92021 12.4883 -8.54539
789 3 8.92021 10.7042 12.4883 -6.46092
787 1 8.92021 7.13617 8.92021 -8.20131
1037 3 10.7042 8.92021 12.4883 -6.53405
1036 3 7.13617 8.92021 8.92021 -6.36414
1289 2 10.7042 10.7042 10.7042 -6.9063
1537 1 10.7042 8.92021 8.92021 -8.16437
3288 3 8.92021 10.7042 8.92021 -6.33916
3286 2 7.13617 7.13617 10.7042 -6.90634
3537 3 8.92021 8.92021 10.7042 -6.37642
3787 3 8.92021 7.13617 12.4883 -6.46443
537 3 12.4883 8.92021 10.7042 -6.31582
788 3 12.4883 7.13617 12.4883 -6.35549
1288 2 14.2723 7.13617 10.7042 -7.00433
1287 2 12.4883 7.13617 8.92021 -6.96774
1789 2 12.4883 10.7042 12.4883 -6.95935
2038 1 14.2723 8.92021 12.4883 -8.21671
2037 3 14.2723 8.92021 8.92021 -6.30853
2288 1 14.2723 10.7042 10.7042 -8.33511
3789 1 12.4883 10.7042 8.92021 -8.25857
258 3 16.0564 10.7042 8.92021 -6.23023
145 3 17.8404 8.92021 8.92021 -6.55514
1395 2 17.8404 7.13617 10.7042 -6.99734
1538 1 16.0564 8.92021 10.7042 -8.2634
1788 1 16.0564 7.13617 12.4883 -8.26975
1787 2 16.0564 7.13617 8.92021 -6.97653
2145 3 17.8404 8.92021 12.4883 -6.32837
2256 1 17.8404 10.7042 10.7042 -8.21294
2788 1 16.0564 10.7042 12.4883 -8.355
259 1 3.56808 14.2723 10.7042 -8.47972
22 3 3.56808 12.4883 12.4883 -6.48405
790 2 1.78404 14.2723 8.92021 -6.93059
2538 3 1.78404 12.4883 10.7042 -6.59374
2537 2 0 12.4883 8.92021 -6.95535
3038 3 3.56808 12.4883 8.92021 -6.38973
3037 2 0 12.4883 12.4883 -6.96271
3289 1 0 14.2723 10.7042 -8.56881
3790 3 1.78404 14.2723 12.4883 -6.5372
791 2 5.35212 14.2723 12.4883 -6.88223
1290 1 5.35212 14.2723 8.92021 -8.65725
3538 1 5.35212 12.4883 10.7042 -8.36266
23 3 10.7042 12.4883 8.92021 -6.3758
538 1 8.92021 12.4883 10.7042 -8.81538
1038 3 7.13617 12.4883 12.4883 -6.32474
1291 3 7.13617 14.2723 10.7042 -6.38935
1791 3 8.92021 14.2723 12.4883 -6.37018
1790 2 8.92021 14.2723 8.92021 -6.90728
2039 3 10.7042 12.4883 12.4883 -6.64702
2290 2 10.7042 14.2723 10.7042 -7.00904
3539 3 7.13617 12.4883 8.92021 -6.34422
539 3 14.2723 12.4883 8.92021 -6.16954
1539 2 12.4883 12.4883 10.7042 -6.94713
2289 2 12.4883 14.2723 8.92021 -6.97537
2789 2 12.4883 14.2723 12.4883 -7.02605
3039 3 14.2723 12.4883 12.4883 -6.45583
3290 1 14.2723 14.2723 10.7042 -8.40557
2662 1 17.8404 12.4883 8.92021 -8.14224
2539 1 16.0564 12.4883 10.7042 -8.12621
2790 1 16.0564 14.2723 8.92021 -8.09676
3162 2 17.8404 12.4883 12.4883 -7.00659
3414 1 17.8404 14.2723 10.7042 -8.24764
3791 3 16.0564 14.2723 12.4883 -6.39055
24 2 0 16.0564 12.4883 -6.9384
829 1 1.78404 17.8404 8.92021 -8.36671
1040 2 3.56808 16.0564 12.4883 -7.01244
1039 2 0 16.0564 8.92021 -7.07509
1251 1 0 17.8404 10.7042 -8.40463
1540 3 3.56808 16.0564 8.92021 -6.36978
1845 3 1.78404 17.8404 12.4883 -6.41887
2344 2 3.56808 17.8404 10.7042 -6.95334
3540 1 1.78404 16.0564 10.7042 -8.31448
540 3 5.35212 16.0564 10.7042 -6.49695
1252 3 5.35212 17.8404 8.92021 -6.56558
2844 2 5.35212 17.8404 12.4883 -6.97709
330 1 10.7042 17.8404 10.7042 -8.49631
1541 3 8.92021 16.0564 10.7042 -6.40933
1846 3 8.92021 17.8404 8.92021 -6.40722
2041 1 7.13617 16.0564 12.4883 -8.40112
2040 2 7.13617 16.0564 8.92021 -6.91629
2540 1 10.7042 16.0564 8.92021 -8.39052
3040 2 10.7042 16.0564 12.4883 -6.96569
3344 3 7.13617 17.8404 10.7042 -6.34712
3845 1 8.92021 17.8404 12.4883 -8.19393
25 1 14.2723 16.0564 12.4883 -8.34629
830 1 12.4883 17.8404 12.4883 -8.49012
1253 3 14.2723 17.8404 10.7042 -6.40068
2345 2 12.4883 17.8404 8.92021 -6.89177
2541 3 12.4883 16.0564 10.7042 -6.39747
3041 2 14.2723 16.0564 8.92021 -6.97371
149 2 17.8404 16.0564 12.4883 -6.98785
1149 1 17.8404 16.0564 8.92021 -8.25621
1454 2 17.8404 17.8404 10.7042 -6.8949
1847 3 16.0564 17.8404 12.4883 -6.45206
2845 1 16.0564 17.8404 8.92021 -8.21591
3541 2 16.0564 16.0564 10.7042 -6.97474
260 1 0 0 14.2723 -8.32488
541 1 1.78404 1.78404 14.2723 -8.42562
792 1 1.78404 0 16.0564 -8.27719
1041 1 0 1.78404 16.0564 -8.31048
1298 2 0 0 17.8404 -6.98942
1293 3 0 3.56808 14.2723 -6.46343
1292 1 3.56808 0 14.2723 -8.146
1548 2 1.78404 1.78404 17.8404 -7.01803
1793 3 1.78404 3.56808 16.0564 -6.63227
2042 3 3.56808 1.78404 16.0564 -6.5152
2300 3 0 3.56808 17.8404 -6.5255
2298 2 3.56808 0 17.8404 -6.94336
2292 2 3.56808 3.56808 14.2723 -7.04934
3300 2 3.56808 3.56808 17.8404 -7.1339
1542 2 5.35212 1.78404 14.2723 -6.95994
1792 1 5.35212 0 16.0564 -8.54159
2549 3 5.35212 1.78404 17.8404 -6.61945
2792 3 5.35212 3.56808 16.0564 -6.78611
262 1 10.7042 3.56808 14.2723 -8.25122
286 3 7.13617 3.56808 17.8404 -6.58241
284 2 10.7042 0 17.8404 -6.9727
26 1 10.7042 1.78404 16.0564 -8.29985
1302 1 10.7042 3.56808 17.8404 -8.32907
2291 3 7.13617 0 14.2723 -6.25795
2542 1 8.92021 1.78404 14.2723 -8.34925
2791 2 8.92021 0 16.0564 -6.96139
3042 2 7.13617 1.78404 16.0564 -6.93122
3298 2 7.13617 0 17.8404 -6.99873
3292 3 7.13617 3.56808 14.2723 -6.52673
3291 3 10.7042 0 14.2723 -6.37276
3549 1 8.92021 1.78404 17.8404 -8.33181
3793 3 8.92021 3.56808 16.0564 -6.37666
261 2 14.2723 0 14.2723 -7.05746
502 3 12.4883 1.78404 17.8404 -6.33745
794 2 12.4883 3.56808 16.0564 -7.05152
1042 1 14.2723 1.78404 16.0564 -8.22153
1300 1 14.2723 0 17.8404 -8.2612
1294 1 14.2723 3.56808 14.2723 -8.1821
2302 2 14.2723 3.56808 17.8404 -6.92444
3542 1 12.4883 1.78404 14.2723 -8.25082
3792 3 12.4883 0 16.0564 -6.36033
401 3 17.8404 0 14.2723 -6.46603
542 2 16.0564 1.78404 14.2723 -7.03724
793 2 16.0564 0 16.0564 -7.01151
1151 2 17.8404 1.78404 16.0564 -6.97277
1407 3 17.8404 0 17.8404 -6.39675
1402 2 17.8404 3.56808 14.2723 -7.00384
1550 1 16.0564 1.78404 17.8404 -8.39349
1794 1 16.0564 3.56808 16.0564 -8.19363
2410 1 17.8404 3.56808 17.8404 -8.37495
1543 3 1.78404 5.35212 14.2723 -6.76367
2043 2 0 5.35212 16.0564 -7.04402
2551 2 1.78404 5.35212 17.8404 -7.03926
3043 2 3.56808 5.35212 16.0564 -7.15423
2543 2 5.35212 5.35212 14.2723 -7.09069
3551 3 5.35212 5.35212 17.8404 -6.78247
27 2 7.13617 5.35212 16.0564 -7.06295
504 2 8.92021 5.35212 17.8404 -6.93833
1043 1 10.7042 5.35212 16.0564 -8.18864
3543 3 8.92021 5.35212 14.2723 -6.45742
543 2 12.4883 5.35212 14.2723 -7.00158
1552 1 12.4883 5.35212 17.8404 -8.27829
2044 2 14.2723 5.35212 16.0564 -7.05951
1544 2 16.0564 5.35212 14.2723 -7.09824
2152 2 17.8404 5.35212 16.0564 -7.16327
2553 2 16.0564 5.35212 17.8404 -7.10103
264 2 3.56808 10.7042 14.2723 -6.95015
290 1 0 10.7042 17.8404 -8.28493
288 2 3.56808 7.13617 17.8404 -7.01146
28 1 3.56808 8.92021 16.0564 -8.60416
1306 2 3.56808 10.7042 17.8404 -6.9596
2293 2 0 7.13617 14.2723 -7.03532
2544 1 1.78404 8.92021 14.2723 -8.3173
2793 3 1.78404 7.13617 16.0564 -6.62057
3044 2 0 8.92021 16.0564 -6.94972
3302 3 0 7.13617 17.8404 -6.44224
3294 1 0 10.7042 14.2723 -8.37038
3293 3 3.56808 7.13617 14.2723 -6.58566
3553 3 1.78404 8.92021 17.8404 -6.42176
3795 3 1.78404 10.7042 16.0564 -6.33442
506 3 5.35212 8.92021 17.8404 -6.56286
796 2 5.35212 10.7042 16.0564 -6.92322
3544 2 5.35212 8.92021 14.2723 -7.00169
3794 2 5.35212 7.13617 16.0564 -7.12537
263 2 7.13617 7.13617 14.2723 -6.98186
544 3 8.92021 8.92021 14.2723 -6.39648
795 1 8.92021 7.13617 16.0564 -8.52137
1044 3 7.13617 8.92021 16.0564 -6.52511
1304 2 7.13617 7.13617 17.8404 -7.09245
1296 1 7.13617 10.7042 14.2723 -8.71069
1295 1 10.7042 7.13617 14.2723 -8.58595
1554 2 8.92021 8.92021 17.8404 -6.95108
1796 3 8.92021 10.7042 16.0564 -6.36255
2045 3 10.7042 8.92021 16.0564 -6.45745
2306 1 7.13617 10.7042 17.8404 -8.59347
2304 3 10.7042 7.13617 17.8404 -6.36378
2295 3 10.7042 10.7042 14.2723 -6.68094
3306 1 10.7042 10.7042 17.8404 -8.31246
292 2 14.2723 10.7042 17.8404 -7.03102
1545 2 12.4883 8.92021 14.2723 -6.98529
1795 2 12.4883 7.13617 16.0564 -7.00605
2294 1 14.2723 7.13617 14.2723 -8.39781
2555 3 12.4883 8.92021 17.8404 -6.48653
2795 2 12.4883 10.7042 16.0564 -7.01648
3045 3 14.2723 8.92021 16.0564 -6.6906
3304 2 14.2723 7.13617 17.8404 -7.13536
3295 3 14.2723 10.7042 14.2723 -6.57229
415 2 17.8404 10.7042 17.8404 -7.01661
2262 2 17.8404 7.13617 14.2723 -7.06433
2545 3 16.0564 8.92021 14.2723 -6.39702
2794 2 16.0564 7.13617 16.0564 -7.12534
3169 1 17.8404 8.92021 16.0564 -8.34034
3427 2 17.8404 7.13617 17.8404 -7.16132
3419 2 17.8404 10.7042 14.2723 -6.95173
3555 2 16.0564 8.92021 17.8404 -7.17965
3796 3 16.0564 10.7042 16.0564 -6.58436
265 3 0 14.2723 14.2723 -6.50357
29 1 0 12.4883 16.0564 -8.32421
508 2 1.78404 12.4883 17.8404 -7.07532
797 1 1.78404 14.2723 16.0564 -8.24232
1045 1 3.56808 12.4883 16.0564 -8.50485
1308 2 0 14.2723 17.8404 -6.97205
1297 2 3.56808 14.2723 14.2723 -6.99342
2308 1 3.56808 14.2723 17.8404 -8.34554
3545 3 1.78404 12.4883 14.2723 -6.46727
545 3 5.35212 12.4883 14.2723 -6.38643
1556 3 5.35212 12.4883 17.8404 -6.32242
1797 2 5.35212 14.2723 16.0564 -6.92323
294 1 10.7042 14.2723 17.8404 -8.32513
1546 3 8.92021 12.4883 14.2723 -6.42907
2046 3 7.13617 12.4883 16.0564 -6.21768
2296 1 7.13617 14.2723 14.2723 -8.382
2557 1 8.92021 12.4883 17.8404 -8.24889
2796 1 8.92021 14.2723 16.0564 -8.20768
3046 2 10.7042 12.4883 16.0564 -7.01156
3308 1 7.13617 14.2723 17.8404 -8.3827
3296 3 10.7042 14.2723 14.2723 -6.49879
266 2 14.2723 14.2723 14.2723 -6.9966
30 2 14.2723 12.4883 16.0564 -7.03969
1310 1 14.2723 14.2723 17.8404 -8.39908
2546 3 12.4883 12.4883 14.2723 -6.73487
3557 1 12.4883 12.4883 17.8404 -8.23815
3797 2 12.4883 14.2723 16.0564 -7.0557
406 3 17.8404 14.2723 14.2723 -6.53221
154 3 17.8404 12.4883 16.0564 -6.39078
510 1 16.0564 12.4883 17.8404 -8.51338
798 3 16.0564 14.2723 16.0564 -6.48526
1417 3 17.8404 14.2723 17.8404 -6.40829
3546 3 16.0564 12.4883 14.2723 -6.60165
346 3 3.56808 17.8404 17.8404 -6.34291
546 2 1.78404 16.0564 14.2723 -7.03152
1046 1 0 16.0564 16.0564 -8.40005
1558 2 1.78404 16.0564 17.8404 -7.02435
2047 2 3.56808 16.0564 16.0564 -6.99688
2353 2 0 17.8404 14.2723 -7.00222
2853 2 1.78404 17.8404 16.0564 -6.94439
3359 3 0 17.8404 17.8404 -6.21858
3353 3 3.56808 17.8404 14.2723 -6.50727
1547 1 5.35212 16.0564 14.2723 -8.26332
2559 3 5.35212 16.0564 17.8404 -6.33232
3854 2 5.35212 17.8404 16.0564 -6.96694
339 1 7.13617 17.8404 14.2723 -7.97711
31 2 10.7042 16.0564 16.0564 -7.00942
839 1 8.92021 17.8404 16.0564 -8.39082
1261 2 10.7042 17.8404 14.2723 -6.97208
1346 3 7.13617 17.8404 17.8404 -6.38233
2361 2 10.7042 17.8404 17.8404 -6.9685
2547 1 8.92021 16.0564 14.2723 -8.0942
3047 1 7.13617 16.0564 16.0564 -8.16703
3559 3 8.92021 16.0564 17.8404 -6.30276
512 1 12.4883 16.0564 17.8404 -8.28319
1047 2 14.2723 16.0564 16.0564 -6.96372
1855 2 12.4883 17.8404 16.0564 -7.02864
2354 3 14.2723 17.8404 14.2723 -6.49336
3361 3 14.2723 17.8404 17.8404 -6.55197
3547 1 12.4883 16.0564 14.2723 -8.43489
547 1 16.0564 16.0564 14.2723 -8.63081
1156 2 17.8404 16.0564 16.0564 -7.00674
1560 3 16.0564 16.0564 17.8404 -6.65426
2463 2 17.8404 17.8404 14.2723 -6.9601
2854 3 16.0564 17.8404 16.0564 -6.4917
3469 2 17.8404 17.8404 17.8404 -7.02461
285 3 3.56808 3.56808 21.4085 -6.6181
1798 1 1.78404 0 19.6245 -8.58538
2048 3 0 1.78404 19.6245 -6.51431
2297 2 0 0 21.4085 -6.9929
2548 2 1.78404 1.78404 21.4085 -7.00753
2798 3 1.78404 3.56808 19.6245 -6.57311
3048 2 3.56808 1.78404 19.6245 -7.06148
3299 1 0 3.56808 21.4085 -8.23945
3297 2 3.56808 0 21.4085 -6.97927
2797 3 5.35212 0 19.6245 -6.5638
3548 3 5.35212 1.78404 21.4085 -6.59526
3799 3 5.35212 3.56808 19.6245 -6.60662
501 1 8.92021 1.78404 21.4085 -8.38155
32 1 7.13617 1.78404 19.6245 -8.49685
283 3 7.13617 0 21.4085 -6.30721
800 2 8.92021 3.56808 19.6245 -6.96657
1048 2 10.7042 1.78404 19.6245 -6.97655
1301 1 7.13617 3.56808 21.4085 -8.30718
1299 3 10.7042 0 21.4085 -6.31851
2301 2 10.7042 3.56808 21.4085 -6.93938
3798 2 8.92021 0 19.6245 -6.95574
799 1 12.4883 0 19.6245 -8.26421
1549 3 12.4883 1.78404 21.4085 -6.49739
1800 3 12.4883 3.56808 19.6245 -6.49318
2049 3 14.2723 1.78404 19.6245 -6.4147
2299 1 14.2723 0 21.4085 -8.35361
3301 2 14.2723 3.56808 21.4085 -7.01419
1799 3 16.0564 0 19.6245 -6.36208
2157 2 17.8404 1.78404 19.6245 -6.98499
2407 3 17.8404 0 21.4085 -6.35999
2550 2 16.0564 1.78404 21.4085 -6.98104
2799 3 16.0564 3.56808 19.6245 -6.55797
3424 2 17.8404 3.56808 21.4085 -7.0645
33 2 3.56808 5.35212 19.6245 -7.00876
3049 1 0 5.35212 19.6245 -8.38471
3550 1 1.78404 5.35212 21.4085 -8.27861
503 2 5.35212 5.35212 21.4085 -6.99642
1049 3 7.13617 5.35212 19.6245 -6.58907
1551 1 8.92021 5.35212 21.4085 -8.31865
2050 3 10.7042 5.35212 19.6245 -6.33304
2552 2 12.4883 5.35212 21.4085 -6.92851
3050 1 14.2723 5.35212 19.6245 -8.45081
3174 3 17.8404 5.35212 19.6245 -6.67245
3552 2 16.0564 5.35212 21.4085 -7.06217
505 3 1.78404 8.92021 21.4085 -6.38174
34 1 0 8.92021 19.6245 -8.22152
287 2 0 7.13617 21.4085 -6.83892
802 2 1.78404 10.7042 19.6245 -7.01674
1050 3 3.56808 8.92021 19.6245 -6.48803
1305 1 0 10.7042 21.4085 -8.32135
1303 1 3.56808 7.13617 21.4085 -8.3839
2305 3 3.56808 10.7042 21.4085 -6.58406
3800 1 1.78404 7.13617 19.6245 -8.26575
801 3 5.35212 7.13617 19.6245 -6.67815
1553 2 5.35212 8.92021 21.4085 -6.99317
1802 1 5.35212 10.7042 19.6245 -8.58274
291 3 10.7042 10.7042 21.4085 -6.28622
1801 3 8.92021 7.13617 19.6245 -6.50397
2051 2 7.13617 8.92021 19.6245 -7.03738
2303 2 7.13617 7.13617 21.4085 -6.99696
2554 2 8.92021 8.92021 21.4085 -6.94449
2801 2 8.92021 10.7042 19.6245 -6.91952
3051 1 10.7042 8.92021 19.6245 -8.33009
3305 1 7.13617 10.7042 21.4085 -8.32749
3303 1 10.7042 7.13617 21.4085 -8.13537
35 2 14.2723 8.92021 19.6245 -7.08098
289 3 14.2723 7.13617 21.4085 -6.60804
1307 2 14.2723 10.7042 21.4085 -7.02725
2800 1 12.4883 7.13617 19.6245 -8.30463
3554 3 12.4883 8.92021 21.4085 -6.29482
3802 1 12.4883 10.7042 19.6245 -8.50182
507 2 16.0564 8.92021 21.4085 -7.16896
159 3 17.8404 8.92021 19.6245 -6.7389
412 3 17.8404 7.13617 21.4085 -6.58645
803 2 16.0564 10.7042 19.6245 -7.09789
1414 2 17.8404 10.7042 21.4085 -7.00122
3801 2 16.0564 7.13617 19.6245 -7.16301
1051 1 0 12.4883 19.6245 -8.18943
1555 2 1.78404 12.4883 21.4085 -7.06737
1803 2 1.78404 14.2723 19.6245 -6.99841
2052 2 3.56808 12.4883 19.6245 -7.01215
2307 1 0 14.2723 21.4085 -8.31409
3307 1 3.56808 14.2723 21.4085 -8.35705
2556 3 5.35212 12.4883 21.4085 -6.31142
2802 2 5.35212 14.2723 19.6245 -6.93067
36 3 10.7042 12.4883 19.6245 -6.28134
293 1 7.13617 14.2723 21.4085 -8.42056
1309 1 10.7042 14.2723 21.4085 -8.40489
3052 3 7.13617 12.4883 19.6245 -6.21665
3556 3 8.92021 12.4883 21.4085 -6.25141
3803 3 8.92021 14.2723 19.6245 -6.08742
509 2 12.4883 12.4883 21.4085 -6.93859
804 2 12.4883 14.2723 19.6245 -6.92335
1052 3 14.2723 12.4883 19.6245 -6.49359
2309 3 14.2723 14.2723 21.4085 -6.54444
1161 1 17.8404 12.4883 19.6245 -8.31037
1557 3 16.0564 12.4883 21.4085 -6.41842
1804 3 16.0564 14.2723 19.6245 -6.46509
2417 3 17.8404 14.2723 21.4085 -6.23645
345 2 0 17.8404 21.4085 -6.91356
1345 3 3.56808 17.8404 21.4085 -6.13912
2053 1 0 16.0564 19.6245 -8.46353
2558 3 1.78404 16.0564 21.4085 -6.27526
3053 1 3.56808 16.0564 19.6245 -8.39471
3860 1 1.78404 17.8404 19.6245 -8.37303
845 2 5.35212 17.8404 19.6245 -6.8472
3558 2 5.35212 16.0564 21.4085 -7.00358
511 1 8.92021 16.0564 21.4085 -8.07713
37 1 7.13617 16.0564 19.6245 -8.33001
1053 3 10.7042 16.0564 19.6245 -6.25983
1861 2 8.92021 17.8404 19.6245 -6.90504
2360 1 7.13617 17.8404 21.4085 -8.39865
3360 1 10.7042 17.8404 21.4085 -8.32244
347 2 14.2723 17.8404 21.4085 -7.01116
1559 3 12.4883 16.0564 21.4085 -6.46302
2054 2 14.2723 16.0564 19.6245 -6.99658