ITEM: TIMESTEP
0
ITEM: NUMBER OF ATOMS
4000
ITEM: BOX BOUNDS pp pp pp
0.0000000000000000e+00 3.6030929999999998e+01
0.0000000000000000e+00 3.6030929999999998e+01
0.0000000000000000e+00 3.6030929999999998e+01
ITEM: ATOMS id type x y z c_peratom
267 2 0 0 0 -6.99196
516 1 1.80155 1.80155 0 -8.1278
767 1 1.80155 0 1.80155 -7.99766
1016 1 0 1.80155 1.80155 -8.16211
1270 3 0 3.60309 0 -6.43584
1268 1 3.60309 0 0 -8.07293
1267 1 0 0 3.60309 -8.12751
1517 3 1.80155 1.80155 3.60309 -6.35741
1768 1 1.80155 3.60309 1.80155 -8.14955
2017 3 3.60309 1.80155 1.80155 -6.29551
2269 2 3.60309 3.60309 0 -6.95961
2268 2 0 3.60309 3.60309 -6.95843
2266 2 3.60309 0 3.60309 -6.90386
3268 1 3.60309 3.60309 3.60309 -8.35479
1518 1 5.40464 1.80155 0 -8.42955
1767 2 5.40464 0 1.80155 -6.92787
2517 1 5.40464 1.80155 3.60309 -8.41863
2767 3 5.40464 3.60309 1.80155 -6.49262
270 3 7.20619 3.60309 3.60309 -6.65182
2267 3 7.20619 0 0 -6.60437
2518 2 9.00773 1.80155 0 -7.10591
2766 1 9.00773 0 1.80155 -8.43073
3017 3 7.20619 1.80155 1.80155 -6.55566
3269 2 7.20619 3.60309 0 -7.12504
3266 3 7.20619 0 3.60309 -6.42526
3517 3 9.00773 1.80155 3.60309 -6.53595
3768 2 9.00773 3.60309 1.80155 -7.20646
1 2 10.8093 1.80155 1.80155 -6.98464
271 2 10.8093 3.60309 0 -7.1467
268 1 10.8093 0 3.60309 -8.2373
517 3 12.6108 1.80155 3.60309 -6.44874
769 1 12.6108 3.60309 1.80155 -8.17211
1271 2 10.8093 3.60309 3.60309 -7.08985
3267 3 10.8093 0 0 -6.45432
3518 1 12.6108 1.80155 0 -8.00978
3767 2 12.6108 0 1.80155 -6.88314
269 1 14.4124 0 0 -7.91337
518 1 16.2139 1.80155 0 -8.26229
768 1 16.2139 0 1.80155 -8.04481
1017 1 14.4124 1.80155 1.80155 -8.02913
1272 1 14.4124 3.60309 0 -7.95727
1269 3 14.4124 0 3.60309 -6.32224
1519 1 16.2139 1.80155 3.60309 -8.03688
1769 1 16.2139 3.60309 1.80155 -8.03066
2270 2 14.4124 3.60309 3.60309 -7.07966
1520 3 1.80155 5.40464 0 -6.43578
2018 1 0 5.40464 1.80155 -8.24919
2519 3 1.80155 5.40464 3.60309 -6.42951
3018 1 3.60309 5.40464 1.80155 -8.34092
2520 3 5.40464 5.40464 0 -6.41835
3519 2 5.40464 5.40464 3.60309 -6.93885
2 2 7.20619 5.40464 1.80155 -7.06441
519 2 9.00773 5.40464 3.60309 -7.16147
3520 2 9.00773 5.40464 0 -7.12228
520 1 12.6108 5.40464 0 -8.14814
1018 2 10.8093 5.40464 1.80155 -7.14814
1521 2 12.6108 5.40464 3.60309 -7.03544
1522 2 16.2139 5.40464 0 -6.92929
2019 2 14.4124 5.40464 1.80155 -7.02126
2521 1 16.2139 5.40464 3.60309 -8.18738
3 1 3.60309 9.00773 1.80155 -8.41235
272 3 3.60309 7.20619 3.60309 -6.4452
2271 2 0 7.20619 0 -7.00658
2522 2 1.80155 9.00773 0 -7.03466
2768 3 1.80155 7.20619 1.80155 -6.32821
3019 1 0 9.00773 1.80155 -8.36665
3271 3 3.60309 7.20619 0 -6.25166
3270 1 0 7.20619 3.60309 -8.40818
3521 3 1.80155 9.00773 3.60309 -6.49838
521 2 5.40464 9.00773 3.60309 -7.01343
3522 1 5.40464 9.00773 0 -7.92129
3769 1 5.40464 7.20619 1.80155 -8.13663
273 3 7.20619 7.20619 0 -6.27047
522 3 9.00773 9.00773 0 -6.29712
770 2 9.00773 7.20619 1.80155 -6.98317
1019 1 7.20619 9.00773 1.80155 -8.12419
1273 1 7.20619 7.20619 3.60309 -8.09112
1523 3 9.00773 9.00773 3.60309 -6.39505
1274 3 10.8093 7.20619 0 -6.52107
1524 2 12.6108 9.00773 0 -7.0894
1770 2 12.6108 7.20619 1.80155 -7.03015
2020 1 10.8093 9.00773 1.80155 -8.4255
2272 3 10.8093 7.20619 3.60309 -6.56186
2523 2 12.6108 9.00773 3.60309 -6.95292
2273 3 14.4124 7.20619 0 -6.50751
2524 2 16.2139 9.00773 0 -6.99838
2769 1 16.2139 7.20619 1.80155 -8.26864
3020 3 14.4124 9.00773 1.80155 -6.55444
3272 3 14.4124 7.20619 3.60309 -6.45775
3523 1 16.2139 9.00773 3.60309 -8.29948
4 2 0 12.6108 1.80155 -6.93838
275 2 3.60309 10.8093 0 -7.03129
274 3 0 10.8093 3.60309 -6.58075
523 1 1.80155 12.6108 3.60309 -8.06587
1020 1 3.60309 12.6108 1.80155 -8.29636
1275 3 3.60309 10.8093 3.60309 -6.37616
3273 1 0 10.8093 0 -8.29344
3524 3 1.80155 12.6108 0 -6.48371
3770 2 1.80155 10.8093 1.80155 -6.98398
524 3 5.40464 12.6108 0 -6.43909
771 2 5.40464 10.8093 1.80155 -6.97497
1525 1 5.40464 12.6108 3.60309 -8.01045
1276 1 7.20619 10.8093 0 -8.01461
1526 1 9.00773 12.6108 0 -8.01839
1771 1 9.00773 10.8093 1.80155 -8.08854
2021 1 7.20619 12.6108 1.80155 -8.10611
2274 2 7.20619 10.8093 3.60309 -7.07066
2525 1 9.00773 12.6108 3.60309 -8.0381
2275 2 10.8093 10.8093 0 -7.04945
2526 2 12.6108 12.6108 0 -7.13307
2770 2 12.6108 10.8093 1.80155 -7.03624
3021 2 10.8093 12.6108 1.80155 -7.04755
3274 3 10.8093 10.8093 3.60309 -6.43642
3525 3 12.6108 12.6108 3.60309 -6.46609
5 1 14.4124 12.6108 1.80155 -8.22429
276 2 14.4124 10.8093 3.60309 -6.94495
525 1 16.2139 12.6108 3.60309 -8.10296
3275 1 14.4124 10.8093 0 -8.26702
3526 3 16.2139 12.6108 0 -6.37645
3771 3 16.2139 10.8093 1.80155 -6.44331
277 2 0 14.4124 0 -6.99923
526 1 1.80155 16.2139 0 -8.15068
772 2 1.80155 14.4124 1.80155 -7.05219
1021 1 0 16.2139 1.80155 -8.17968
1278 2 3.60309 14.4124 0 -7.03515
1277 1 0 14.4124 3.60309 -8.1088
1527 3 1.80155 16.2139 3.60309 -6.31959
2022 1 3.60309 16.2139 1.80155 -8.29628
2276 1 3.60309 14.4124 3.60309 -7.92446
1528 2 5.40464 16.2139 0 -6.99612
1772 3 5.40464 14.4124 1.80155 -6.33334
2527 1 5.40464 16.2139 3.60309 -8.23004
2277 3 7.20619 14.4124 0 -6.36921
2528 1 9.00773 16.2139 0 -8.03438
2771 1 9.00773 14.4124 1.80155 -8.05946
3022 2 7.20619 16.2139 1.80155 -6.94296
3276 3 7.20619 14.4124 3.60309 -6.26708
3527 3 9.00773 16.2139 3.60309 -6.41203
6 1 10.8093 16.2139 1.80155 -7.89431
278 1 10.8093 14.4124 3.60309 -8.25511
527 3 12.6108 16.2139 3.60309 -6.28071
3277 2 10.8093 14.4124 0 -7.12224
3528 1 12.6108 16.2139 0 -8.26103
3772 2 12.6108 14.4124 1.80155 -7.04763
279 2 14.4124 14.4124 0 -6.95531
528 3 16.2139 16.2139 0 -6.44784
773 3 16.2139 14.4124 1.80155 -6.35101
1022 1 14.4124 16.2139 1.80155 -8.20328
1279 1 14.4124 14.4124 3.60309 -8.16108
1529 3 16.2139 16.2139 3.60309 -6.21589
775 2 0 3.60309 7.20619 -7.10952
1284 2 1.80155 3.60309 9.00773 -7.05025
1280 3 3.60309 3.60309 7.20619 -6.61851
1773 3 1.80155 0 5.40464 -6.46075
2023 1 0 1.80155 5.40464 -8.27915
2278 2 0 0 7.20619 -6.92238
2529 3 1.80155 1.80155 7.20619 -6.59705
2781 3 1.80155 0 9.00773 -6.54627
2774 2 1.80155 3.60309 5.40464 -7.02317
2773 3 3.60309 0 7.20619 -6.49764
3032 1 0 1.80155 9.00773 -8.3786
3023 3 3.60309 1.80155 5.40464 -6.53693
3533 3 3.60309 1.80155 9.00773 -6.75889
1784 2 5.40464 3.60309 9.00773 -7.08105
2772 1 5.40464 0 5.40464 -8.42191
3024 2 5.40464 1.80155 7.20619 -7.00514
3282 2 5.40464 0 9.00773 -7.03427
3775 3 5.40464 3.60309 5.40464 -6.52841
7 3 7.20619 1.80155 5.40464 -6.55754
17 3 7.20619 1.80155 9.00773 -6.73267
776 2 9.00773 3.60309 5.40464 -7.07144
1775 2 7.20619 3.60309 7.20619 -7.14082
2283 1 9.00773 3.60309 9.00773 -8.26252
3278 2 7.20619 0 7.20619 -7.06984
3529 2 9.00773 1.80155 7.20619 -7.0692
3783 2 9.00773 0 9.00773 -7.15409
3773 1 9.00773 0 5.40464 -8.45605
8 2 12.6108 1.80155 7.20619 -7.03004
252 2 12.6108 0 9.00773 -7.10714
533 2 10.8093 1.80155 9.00773 -7.03609
774 3 12.6108 0 5.40464 -6.44202
1023 1 10.8093 1.80155 5.40464 -8.27721
1776 3 12.6108 3.60309 5.40464 -6.60442
2279 1 10.8093 3.60309 7.20619 -8.27884
2784 3 12.6108 3.60309 9.00773 -6.48418
3774 3 10.8093 0 7.20619 -6.614
280 2 14.4124 0 7.20619 -6.99675
529 1 16.2139 1.80155 7.20619 -8.11191
784 3 16.2139 0 9.00773 -6.19642
1033 1 14.4124 1.80155 9.00773 -8.19319
1774 2 16.2139 0 5.40464 -6.96832
2024 2 14.4124 1.80155 5.40464 -7.02344
2776 2 14.4124 3.60309 7.20619 -6.98118
2775 1 16.2139 3.60309 5.40464 -8.16274
3285 1 16.2139 3.60309 9.00773 -8.12848
9 3 3.60309 5.40464 5.40464 -6.53174
1024 2 1.80155 5.40464 7.20619 -7.08824
1534 3 0 5.40464 9.00773 -6.74008
2034 1 3.60309 5.40464 9.00773 -8.15569
3025 2 0 5.40464 5.40464 -7.12057
1530 1 5.40464 5.40464 7.20619 -8.32999
1025 2 7.20619 5.40464 5.40464 -7.13421
2025 2 9.00773 5.40464 7.20619 -7.06626
2534 2 7.20619 5.40464 9.00773 -7.07122
2026 3 10.8093 5.40464 5.40464 -6.51391
2530 3 12.6108 5.40464 7.20619 -6.40732
3035 1 10.8093 5.40464 9.00773 -8.1412
3027 3 16.2139 5.40464 7.20619 -6.37485
3026 3 14.4124 5.40464 5.40464 -6.45809
3536 3 14.4124 5.40464 9.00773 -6.41943
10 3 0 9.00773 5.40464 -6.62361
20 1 0 9.00773 9.00773 -8.32312
536 2 3.60309 9.00773 9.00773 -7.07101
1026 2 3.60309 9.00773 5.40464 -6.94403
3279 2 0 7.20619 7.20619 -7.07929
3530 3 1.80155 9.00773 7.20619 -6.62492
3786 2 1.80155 7.20619 9.00773 -7.0112
3777 3 3.60309 7.20619 7.20619 -6.60604
3776 3 1.80155 7.20619 5.40464 -6.62133
11 3 5.40464 9.00773 7.20619 -6.61111
255 2 5.40464 7.20619 9.00773 -7.10502
777 1 5.40464 7.20619 5.40464 -8.33411
281 2 7.20619 7.20619 7.20619 -7.02363
530 1 9.00773 9.00773 7.20619 -8.25593
787 1 9.00773 7.20619 9.00773 -7.98705
1036 2 7.20619 9.00773 9.00773 -7.15623
1777 1 9.00773 7.20619 5.40464 -8.27628
2027 3 7.20619 9.00773 5.40464 -6.41644
778 1 10.8093 7.20619 7.20619 -8.02922
1027 1 12.6108 9.00773 7.20619 -8.32227
1287 3 12.6108 7.20619 9.00773 -6.40981
1537 2 10.8093 9.00773 9.00773 -7.03451
2777 1 12.6108 7.20619 5.40464 -8.45405
3028 3 10.8093 9.00773 5.40464 -6.37866
12 3 14.4124 9.00773 5.40464 -6.33308
1281 3 14.4124 7.20619 7.20619 -6.39032
1531 1 16.2139 9.00773 7.20619 -8.19775
1787 1 16.2139 7.20619 9.00773 -8.19056
2037 2 14.4124 9.00773 9.00773 -7.03885
3778 2 16.2139 7.20619 5.40464 -6.87022
779 2 1.80155 10.8093 5.40464 -6.97632
1028 2 0 12.6108 5.40464 -7.01603
1778 1 0 10.8093 7.20619 -8.31585
2029 1 3.60309 12.6108 5.40464 -7.97498
2028 1 1.80155 12.6108 7.20619 -8.2249
2286 2 1.80155 10.8093 9.00773 -6.91925
2280 3 3.60309 10.8093 7.20619 -6.48561
2537 3 0 12.6108 9.00773 -6.46876
3038 3 3.60309 12.6108 9.00773 -6.4063
1779 1 5.40464 10.8093 5.40464 -8.30144
2531 1 5.40464 12.6108 7.20619 -8.19325
2787 3 5.40464 10.8093 9.00773 -6.58898
2779 2 7.20619 10.8093 7.20619 -7.046
2778 2 9.00773 10.8093 5.40464 -6.8965
3030 3 9.00773 12.6108 7.20619 -6.49461
3029 1 7.20619 12.6108 5.40464 -8.21951
3288 2 9.00773 10.8093 9.00773 -7.06211
3539 2 7.20619 12.6108 9.00773 -6.94871
13 3 10.8093 12.6108 5.40464 -6.46466
23 1 10.8093 12.6108 9.00773 -8.19527
3280 3 10.8093 10.8093 7.20619 -6.43764
3531 3 12.6108 12.6108 7.20619 -6.50675
3789 3 12.6108 10.8093 9.00773 -6.46669
3779 1 12.6108 10.8093 5.40464 -8.58427
14 2 16.2139 12.6108 7.20619 -6.9913
258 2 16.2139 10.8093 9.00773 -7.06989
539 3 14.4124 12.6108 9.00773 -6.49698
780 1 16.2139 10.8093 5.40464 -8.13862
1029 3 14.4124 12.6108 5.40464 -6.40165
3780 2 14.4124 10.8093 7.20619 -7.01009
282 3 0 14.4124 7.20619 -6.45287
531 1 1.80155 16.2139 7.20619 -8.13312
790 2 1.80155 14.4124 9.00773 -6.89979
781 1 3.60309 14.4124 7.20619 -8.07175
1039 3 0 16.2139 9.00773 -6.43985
1540 1 3.60309 16.2139 9.00773 -8.19005
1780 1 1.80155 14.4124 5.40464 -8.04662
2030 2 0 16.2139 5.40464 -7.00507
3031 2 3.60309 16.2139 5.40464 -6.90904
1030 3 5.40464 16.2139 7.20619 -6.38167
1290 3 5.40464 14.4124 9.00773 -6.44822
2780 2 5.40464 14.4124 5.40464 -7.01288
15 1 7.20619 16.2139 5.40464 -8.5305
1282 3 7.20619 14.4124 7.20619 -6.41643
1532 3 9.00773 16.2139 7.20619 -6.50025
1790 1 9.00773 14.4124 9.00773 -8.21185
2040 3 7.20619 16.2139 9.00773 -6.46646
3781 2 9.00773 14.4124 5.40464 -6.93292
782 2 12.6108 14.4124 5.40464 -6.9297
1031 2 10.8093 16.2139 5.40464 -7.01728
1781 1 10.8093 14.4124 7.20619 -8.32744
2031 2 12.6108 16.2139 7.20619 -7.06192
2289 2 12.6108 14.4124 9.00773 -6.95469
2540 2 10.8093 16.2139 9.00773 -7.03788
1782 1 16.2139 14.4124 5.40464 -8.20637
2032 1 14.4124 16.2139 5.40464 -8.14172
2281 3 14.4124 14.4124 7.20619 -6.51155
2532 2 16.2139 16.2139 7.20619 -7.05495
2790 1 16.2139 14.4124 9.00773 -8.31231
3041 3 14.4124 16.2139 9.00773 -6.41727
251 2 3.60309 0 10.8093 -7.09064
253 2 0 3.60309 10.8093 -7.10538
16 2 0 1.80155 12.6108 -7.06375
785 2 1.80155 3.60309 12.6108 -7.06243
1032 1 3.60309 1.80155 12.6108 -8.3209
1285 2 3.60309 3.60309 10.8093 -7.06888
3281 2 0 0 10.8093 -7.05527
3532 3 1.80155 1.80155 10.8093 -6.6595
3782 3 1.80155 0 12.6108 -6.56951
532 2 5.40464 1.80155 10.8093 -7.13918
783 2 5.40464 0 12.6108 -7.05902
1785 2 5.40464 3.60309 12.6108 -7.02211
1283 2 7.20619 0 10.8093 -7.12676
1533 3 9.00773 1.80155 10.8093 -6.50269
1783 1 9.00773 0 12.6108 -8.22349
2033 2 7.20619 1.80155 12.6108 -6.98469
2284 3 7.20619 3.60309 10.8093 -6.45374
2783 1 9.00773 3.60309 12.6108 -8.24817
2282 2 10.8093 0 10.8093 -7.04093
2533 2 12.6108 1.80155 10.8093 -6.95168
2782 3 12.6108 0 12.6108 -6.34257
3033 1 10.8093 1.80155 12.6108 -8.34324
3284 3 10.8093 3.60309 10.8093 -6.40069
3785 3 12.6108 3.60309 12.6108 -6.52432
254 3 14.4124 3.60309 10.8093 -6.46272
18 3 14.4124 1.80155 12.6108 -6.47549
786 3 16.2139 3.60309 12.6108 -6.5056
3283 1 14.4124 0 10.8093 -8.14826
3534 1 16.2139 1.80155 10.8093 -8.28553
3784 2 16.2139 0 12.6108 -7.03972
534 1 1.80155 5.40464 10.8093 -8.27951
1034 2 0 5.40464 12.6108 -7.1045
2035 3 3.60309 5.40464 12.6108 -6.45174
1535 1 5.40464 5.40464 10.8093 -8.19592
2535 1 9.00773 5.40464 10.8093 -7.92216
3034 1 7.20619 5.40464 12.6108 -8.01337
19 2 10.8093 5.40464 12.6108 -6.91409
3535 3 12.6108 5.40464 10.8093 -6.43638
535 1 16.2139 5.40464 10.8093 -8.36123
1035 2 14.4124 5.40464 12.6108 -6.92378
1286 3 0 7.20619 10.8093 -6.5337
1536 1 1.80155 9.00773 10.8093 -8.24619
1786 1 1.80155 7.20619 12.6108 -8.40715
2036 3 0 9.00773 12.6108 -6.49455
2285 2 3.60309 7.20619 10.8093 -7.0607
3036 3 3.60309 9.00773 12.6108 -6.48185
2536 2 5.40464 9.00773 10.8093 -7.04528
2785 2 5.40464 7.20619 12.6108 -7.04456
21 2 7.20619 9.00773 12.6108 -7.12157
3286 1 7.20619 7.20619 10.8093 -8.01854
3537 2 9.00773 9.00773 10.8093 -7.11127
3787 1 9.00773 7.20619 12.6108 -8.13362
256 1 10.8093 7.20619 10.8093 -8.00355
537 1 12.6108 9.00773 10.8093 -8.25572
788 1 12.6108 7.20619 12.6108 -8.1002
1037 2 10.8093 9.00773 12.6108 -7.05231
1288 2 14.4124 7.20619 10.8093 -6.93838
1538 2 16.2139 9.00773 10.8093 -7.03139
1788 3 16.2139 7.20619 12.6108 -6.42878
2038 1 14.4124 9.00773 12.6108 -8.19358
22 3 3.60309 12.6108 12.6108 -6.51826
2287 3 0 10.8093 10.8093 -6.46504
2538 3 1.80155 12.6108 10.8093 -6.44308
2786 2 1.80155 10.8093 12.6108 -6.91047
3037 1 0 12.6108 12.6108 -8.32181
3287 1 3.60309 10.8093 10.8093 -8.45877
3538 3 5.40464 12.6108 10.8093 -6.65593
3788 3 5.40464 10.8093 12.6108 -6.6009
257 3 7.20619 10.8093 10.8093 -6.7276
538 1 9.00773 12.6108 10.8093 -8.26862
789 2 9.00773 10.8093 12.6108 -7.16209
1038 2 7.20619 12.6108 12.6108 -7.13176
1289 2 10.8093 10.8093 10.8093 -7.07699
1539 1 12.6108 12.6108 10.8093 -8.16016
1789 3 12.6108 10.8093 12.6108 -6.32759
2039 2 10.8093 12.6108 12.6108 -7.05519
2288 2 14.4124 10.8093 10.8093 -6.99025
2539 3 16.2139 12.6108 10.8093 -6.26886
2788 3 16.2139 10.8093 12.6108 -6.23475
3039 1 14.4124 12.6108 12.6108 -8.1945
259 3 3.60309 14.4124 10.8093 -6.53049
24 1 0 16.2139 12.6108 -8.08909
1040 2 3.60309 16.2139 12.6108 -7.04746
3289 1 0 14.4124 10.8093 -8.30788
3540 1 1.80155 16.2139 10.8093 -8.11618
3790 3 1.80155 14.4124 12.6108 -6.30838
540 3 5.40464 16.2139 10.8093 -6.55101
791 2 5.40464 14.4124 12.6108 -7.1082
1291 2 7.20619 14.4124 10.8093 -7.02935
1541 1 9.00773 16.2139 10.8093 -8.11057
1791 3 9.00773 14.4124 12.6108 -6.4651
2041 2 7.20619 16.2139 12.6108 -7.06129
2290 2 10.8093 14.4124 10.8093 -7.01503
2541 1 12.6108 16.2139 10.8093 -8.13858
2789 1 12.6108 14.4124 12.6108 -7.85867
3040 1 10.8093 16.2139 12.6108 -8.04705
25 2 14.4124 16.2139 12.6108 -6.94151
3290 1 14.4124 14.4124 10.8093 -8.14212
3541 2 16.2139 16.2139 10.8093 -6.99811
3791 3 16.2139 14.4124 12.6108 -6.22799
260 3 0 0 14.4124 -6.58744
541 3 1.80155 1.80155 14.4124 -6.49049
792 1 1.80155 0 16.2139 -8.48532
1041 2 0 1.80155 16.2139 -6.91326
1293 1 0 3.60309 14.4124 -8.33414
1292 3 3.60309 0 14.4124 -6.5271
1793 3 1.80155 3.60309 16.2139 -6.35537
2042 3 3.60309 1.80155 16.2139 -6.40703
2292 1 3.60309 3.60309 14.4124 -8.20806
1542 1 5.40464 1.80155 14.4124 -8.32963
1792 3 5.40464 0 16.2139 -6.44118
2792 3 5.40464 3.60309 16.2139 -6.46314
2291 1 7.20619 0 14.4124 -8.15494
2542 3 9.00773 1.80155 14.4124 -6.40963
2791 2 9.00773 0 16.2139 -6.8308
3042 3 7.20619 1.80155 16.2139 -6.5301
3292 3 7.20619 3.60309 14.4124 -6.40038
3793 2 9.00773 3.60309 16.2139 -6.92621
262 3 10.8093 3.60309 14.4124 -6.45655
26 1 10.8093 1.80155 16.2139 -8.5205
794 3 12.6108 3.60309 16.2139 -6.51763
3291 1 10.8093 0 14.4124 -8.18633
3542 2 12.6108 1.80155 14.4124 -6.93593
3792 2 12.6108 0 16.2139 -6.96486
261 3 14.4124 0 14.4124 -6.53341
542 2 16.2139 1.80155 14.4124 -7.03201
793 2 16.2139 0 16.2139 -6.99061
1042 2 14.4124 1.80155 16.2139 -7.01648
1294 1 14.4124 3.60309 14.4124 -8.35084
1794 1 16.2139 3.60309 16.2139 -8.10461
1543 2 1.80155 5.40464 14.4124 -6.99088
2043 1 0 5.40464 16.2139 -8.03183
3043 1 3.60309 5.40464 16.2139 -8.17507
2543 1 5.40464 5.40464 14.4124 -8.29412
27 2 7.20619 5.40464 16.2139 -6.99533
3543 1 9.00773 5.40464 14.4124 -8.17779
543 3 12.6108 5.40464 14.4124 -6.43211
1043 2 10.8093 5.40464 16.2139 -6.9545
1544 2 16.2139 5.40464 14.4124 -6.96419
2044 1 14.4124 5.40464 16.2139 -8.25749
28 2 3.60309 9.00773 16.2139 -6.99562
2293 2 0 7.20619 14.4124 -7.08082
2544 2 1.80155 9.00773 14.4124 -6.97252
2793 2 1.80155 7.20619 16.2139 -7.13139
3044 3 0 9.00773 16.2139 -6.55169
3293 3 3.60309 7.20619 14.4124 -6.49964
3544 1 5.40464 9.00773 14.4124 -8.44328
3794 3 5.40464 7.20619 16.2139 -6.49776
263 2 7.20619 7.20619 14.4124 -7.04923
544 3 9.00773 9.00773 14.4124 -6.42907
795 1 9.00773 7.20619 16.2139 -8.1581
1044 3 7.20619 9.00773 16.2139 -6.51699
1295 3 10.8093 7.20619 14.4124 -6.29752
1545 1 12.6108 9.00773 14.4124 -8.0287
1795 3 12.6108 7.20619 16.2139 -6.34647
2045 1 10.8093 9.00773 16.2139 -7.97177
2294 1 14.4124 7.20619 14.4124 -8.23839
2545 2 16.2139 9.00773 14.4124 -6.93389
2794 3 16.2139 7.20619 16.2139 -6.50577
3045 3 14.4124 9.00773 16.2139 -6.40021
264 1 3.60309 10.8093 14.4124 -8.37178
29 1 0 12.6108 16.2139 -8.21953
1045 3 3.60309 12.6108 16.2139 -6.41362
3294 3 0 10.8093 14.4124 -6.4196
3545 1 1.80155 12.6108 14.4124 -8.3069
3795 3 1.80155 10.8093 16.2139 -6.41889
545 2 5.40464 12.6108 14.4124 -7.00269
796 2 5.40464 10.8093 16.2139 -6.98551
1296 2 7.20619 10.8093 14.4124 -7.0533
1546 2 9.00773 12.6108 14.4124 -7.02525
1796 1 9.00773 10.8093 16.2139 -8.3027
2046 3 7.20619 12.6108 16.2139 -6.57182
2295 1 10.8093 10.8093 14.4124 -8.22581
2546 2 12.6108 12.6108 14.4124 -7.0493
2795 1 12.6108 10.8093 16.2139 -8.05664
3046 3 10.8093 12.6108 16.2139 -6.34314
30 1 14.4124 12.6108 16.2139 -8.06986
3295 1 14.4124 10.8093 14.4124 -8.09026
3546 3 16.2139 12.6108 14.4124 -6.1931
3796 1 16.2139 10.8093 16.2139 -8.30977
265 1 0 14.4124 14.4124 -8.10136
546 1 1.80155 16.2139 14.4124 -8.11644
797 3 1.80155 14.4124 16.2139 -6.23859
1046 1 0 16.2139 16.2139 -8.10872
1297 2 3.60309 14.4124 14.4124 -6.93132
2047 3 3.60309 16.2139 16.2139 -6.39244
1547 3 5.40464 16.2139 14.4124 -6.4753
1797 1 5.40464 14.4124 16.2139 -8.47211
2296 1 7.20619 14.4124 14.4124 -8.40963
2547 2 9.00773 16.2139 14.4124 -7.00926
2796 3 9.00773 14.4124 16.2139 -6.54642
3047 2 7.20619 16.2139 16.2139 -7.02177
31 1 10.8093 16.2139 16.2139 -8.03643
3296 1 10.8093 14.4124 14.4124 -8.17514
3547 1 12.6108 16.2139 14.4124 -8.22293
3797 1 12.6108 14.4124 16.2139 -7.99258
266 1 14.4124 14.4124 14.4124 -8.19488
547 3 16.2139 16.2139 14.4124 -6.33898
798 3 16.2139 14.4124 16.2139 -6.26968
1047 3 14.4124 16.2139 16.2139 -6.36221
285 1 3.60309 3.60309 21.6186 -8.31833
1298 3 0 0 18.0155 -6.54191
1548 3 1.80155 1.80155 18.0155 -6.38576
1798 3 1.80155 0 19.817 -6.52065
2048 2 0 1.80155 19.817 -6.97107
2300 1 0 3.60309 18.0155 -8.18438
2298 1 3.60309 0 18.0155 -8.52415
2297 3 0 0 21.6186 -6.5428
2548 1 1.80155 1.80155 21.6186 -8.29935
2798 1 1.80155 3.60309 19.817 -8.09454
3048 3 3.60309 1.80155 19.817 -6.4288
3300 2 3.60309 3.60309 18.0155 -6.88714
3299 1 0 3.60309 21.6186 -8.07782
3297 2 3.60309 0 21.6186 -6.93773
2549 2 5.40464 1.80155 18.0155 -6.96196
2797 2 5.40464 0 19.817 -7.02634
3548 3 5.40464 1.80155 21.6186 -6.4443
3799 1 5.40464 3.60309 19.817 -8.28243
501 2 9.00773 1.80155 21.6186 -7.05734
32 1 7.20619 1.80155 19.817 -8.20326
286 3 7.20619 3.60309 18.0155 -6.52195
283 2 7.20619 0 21.6186 -7.01568
800 2 9.00773 3.60309 19.817 -6.95951
1301 1 7.20619 3.60309 21.6186 -8.14444
3298 3 7.20619 0 18.0155 -6.50654
3549 3 9.00773 1.80155 18.0155 -6.48252
3798 1 9.00773 0 19.817 -8.52961
502 3 12.6108 1.80155 18.0155 -6.60458
284 3 10.8093 0 18.0155 -6.5103
799 1 12.6108 0 19.817 -8.53214
1048 3 10.8093 1.80155 19.817 -6.59547
1302 3 10.8093 3.60309 18.0155 -6.60154
1299 2 10.8093 0 21.6186 -6.97625
1549 3 12.6108 1.80155 21.6186 -6.53711
1800 2 12.6108 3.60309 19.817 -7.09603
2301 2 10.8093 3.60309 21.6186 -7.08492
1300 3 14.4124 0 18.0155 -6.55101
1550 1 16.2139 1.80155 18.0155 -8.34319
1799 3 16.2139 0 19.817 -6.4502
2049 2 14.4124 1.80155 19.817 -7.02068
2302 2 14.4124 3.60309 18.0155 -7.07859
2299 1 14.4124 0 21.6186 -8.21354
2550 1 16.2139 1.80155 21.6186 -8.34855
2799 2 16.2139 3.60309 19.817 -7.04177
3301 3 14.4124 3.60309 21.6186 -6.65116
33 3 3.60309 5.40464 19.817 -6.31611
2551 1 1.80155 5.40464 18.0155 -8.13812
3049 3 0 5.40464 19.817 -6.35017
3550 2 1.80155 5.40464 21.6186 -6.97665
503 2 5.40464 5.40464 21.6186 -7.01929
3551 2 5.40464 5.40464 18.0155 -6.97853
504 1 9.00773 5.40464 18.0155 -8.4241
1049 3 7.20619 5.40464 19.817 -6.45461
1551 1 9.00773 5.40464 21.6186 -8.20745
1552 2 12.6108 5.40464 18.0155 -6.99542
2050 3 10.8093 5.40464 19.817 -6.5502
2552 3 12.6108 5.40464 21.6186 -6.63163
2553 1 16.2139 5.40464 18.0155 -8.25166
3050 2 14.4124 5.40464 19.817 -6.99595
3552 3 16.2139 5.40464 21.6186 -6.59931
505 1 1.80155 9.00773 21.6186 -8.07711
34 1 0 9.00773 19.817 -8.14786
288 1 3.60309 7.20619 18.0155 -8.20011
287 2 0 7.20619 21.6186 -7.03635
1050 1 3.60309 9.00773 19.817 -7.9459
1303 1 3.60309 7.20619 21.6186 -8.16345
3302 2 0 7.20619 18.0155 -7.01955
3553 2 1.80155 9.00773 18.0155 -7.00642
3800 3 1.80155 7.20619 19.817 -6.35948
506 3 5.40464 9.00773 18.0155 -6.46395
801 1 5.40464 7.20619 19.817 -8.24265
1553 3 5.40464 9.00773 21.6186 -6.22496
1304 2 7.20619 7.20619 18.0155 -6.99971
1554 2 9.00773 9.00773 18.0155 -7.04599
1801 3 9.00773 7.20619 19.817 -6.52528
2051 2 7.20619 9.00773 19.817 -6.99967
2303 2 7.20619 7.20619 21.6186 -6.96616
2554 3 9.00773 9.00773 21.6186 -6.48702
2304 1 10.8093 7.20619 18.0155 -8.16956
2555 2 12.6108 9.00773 18.0155 -7.01409
2800 1 12.6108 7.20619 19.817 -8.46015
3051 3 10.8093 9.00773 19.817 -6.56273
3303 2 10.8093 7.20619 21.6186 -6.98124
3554 2 12.6108 9.00773 21.6186 -7.02974
507 3 16.2139 9.00773 21.6186 -6.59736
35 2 14.4124 9.00773 19.817 -7.04075
289 3 14.4124 7.20619 21.6186 -6.65269
3304 3 14.4124 7.20619 18.0155 -6.53206
3555 3 16.2139 9.00773 18.0155 -6.59651
3801 3 16.2139 7.20619 19.817 -6.59164
508 1 1.80155 12.6108 18.0155 -8.25625
290 2 0 10.8093 18.0155 -6.96154
802 1 1.80155 10.8093 19.817 -8.0658
1051 2 0 12.6108 19.817 -6.92795
1306 1 3.60309 10.8093 18.0155 -8.21787
1305 3 0 10.8093 21.6186 -6.31423
1555 2 1.80155 12.6108 21.6186 -6.93132
2052 3 3.60309 12.6108 19.817 -6.417
2305 2 3.60309 10.8093 21.6186 -6.98688
1556 2 5.40464 12.6108 18.0155 -6.94628
1802 1 5.40464 10.8093 19.817 -8.25068
2556 3 5.40464 12.6108 21.6186 -6.40624
2306 3 7.20619 10.8093 18.0155 -6.53558
2557 2 9.00773 12.6108 18.0155 -7.04129
2801 2 9.00773 10.8093 19.817 -6.98471
3052 1 7.20619 12.6108 19.817 -8.38422
3305 1 7.20619 10.8093 21.6186 -8.10731
3556 3 9.00773 12.6108 21.6186 -6.5351
509 1 12.6108 12.6108 21.6186 -8.42892
36 2 10.8093 12.6108 19.817 -7.01779
291 3 10.8093 10.8093 21.6186 -6.63154
3306 1 10.8093 10.8093 18.0155 -8.2684
3557 3 12.6108 12.6108 18.0155 -6.36741
3802 2 12.6108 10.8093 19.817 -7.02938
510 3 16.2139 12.6108 18.0155 -6.40866
292 2 14.4124 10.8093 18.0155 -6.95698
803 2 16.2139 10.8093 19.817 -6.9235
1052 1 14.4124 12.6108 19.817 -8.39897
1307 3 14.4124 10.8093 21.6186 -6.55709
1557 3 16.2139 12.6108 21.6186 -6.40143
1308 3 0 14.4124 18.0155 -6.2161
1558 1 1.80155 16.2139 18.0155 -8.19623
1803 1 1.80155 14.4124 19.817 -8.23696
2053 3 0 16.2139 19.817 -6.18365
2308 3 3.60309 14.4124 18.0155 -6.35677
2307 3 0 14.4124 21.6186 -6.29908
2558 1 1.80155 16.2139 21.6186 -8.16456
3053 1 3.60309 16.2139 19.817 -8.0406
3307 2 3.60309 14.4124 21.6186 -7.0858
2559 2 5.40464 16.2139 18.0155 -6.97183
2802 2 5.40464 14.4124 19.817 -6.95895
3558 2 5.40464 16.2139 21.6186 -7.07588
511 1 9.00773 16.2139 21.6186 -8.21118
37 3 7.20619 16.2139 19.817 -6.59324
293 3 7.20619 14.4124 21.6186 -6.4651
3308 3 7.20619 14.4124 18.0155 -6.60976
3559 2 9.00773 16.2139 18.0155 -7.00639
3803 3 9.00773 14.4124 19.817 -6.50051
512 1 12.6108 16.2139 18.0155 -8.14592
294 2 10.8093 14.4124 18.0155 -7.00378
804 2 12.6108 14.4124 19.817 -6.94391
1053 1 10.8093 16.2139 19.817 -8.25456
1309 3 10.8093 14.4124 21.6186 -6.4693
1559 3 12.6108 16.2139 21.6186 -6.44431
1310 1 14.4124 14.4124 18.0155 -8.30414
1560 3 16.2139 16.2139 18.0155 -6.39543
1804 3 16.2139 14.4124 19.817 -6.43748
2054 3 14.4124 16.2139 19.817 -6.46825
2309 3 14.4124 14.4124 21.6186 -6.47041
2560 2 16.2139 16.2139 21.6186 -6.92991
38 3 3.60309 1.80155 23.4201 -6.40418
1806 3 0 3.60309 25.2217 -6.41659
2310 1 3.60309 3.60309 25.2217 -8.37337
2803 3 1.80155 0 23.4201 -6.35384
3054 1 0 1.80155 23.4201 -8.40272
3309 3 0 0 25.2217 -6.35882
3560 2 1.80155 1.80155 25.2217 -6.97657
3806 3 1.80155 3.60309 23.4201 -6.3996
3805 1 3.60309 0 25.2217 -8.16767
39 2 5.40464 1.80155 25.2217 -7.06628
807 3 5.40464 3.60309 23.4201 -6.40495
3804 2 5.40464 0 23.4201 -7.02489
513 2 9.00773 1.80155 25.2217 -7.1137
295 2 7.20619 0 25.2217 -7.06857
805 3 9.00773 0 23.4201 -6.5859
1054 1 7.20619 1.80155 23.4201 -8.2618
1807 2 9.00773 3.60309 23.4201 -7.06331
2805 1 7.20619 3.60309 25.2217 -8.22999
806 3 10.8093 0 25.2217 -6.53418
1055 2 12.6108 1.80155 25.2217 -7.00834
1805 1 12.6108 0 23.4201 -8.29228
2055 1 10.8093 1.80155 23.4201 -8.32801
2806 2 12.6108 3.60309 23.4201 -7.00744
3310 2 10.8093 3.60309 25.2217 -7.04126
1311 1 14.4124 0 25.2217 -8.41375
1561 3 16.2139 1.80155 25.2217 -6.51356
2804 3 16.2139 0 23.4201 -6.37741
3055 3 14.4124 1.80155 23.4201 -6.49472
3808 3 14.4124 3.60309 25.2217 -6.5995
3807 2 16.2139 3.60309 23.4201 -6.96864
40 1 0 5.40464 23.4201 -8.34232
1056 2 3.60309 5.40464 23.4201 -7.06312
2056 2 1.80155 5.40464 25.2217 -7.00613
2561 2 5.40464 5.40464 25.2217 -7.04371
2057 2 7.20619 5.40464 23.4201 -7.02849
3056 3 9.00773 5.40464 25.2217 -6.44317
3057 1 10.8093 5.40464 23.4201 -8.16418
3561 1 12.6108 5.40464 25.2217 -8.36332
42 2 16.2139 5.40464 25.2217 -6.94202
41 3 14.4124 5.40464 23.4201 -6.62768
514 1 1.80155 9.00773 25.2217 -8.14083
296 3 0 7.20619 25.2217 -6.42821
809 1 3.60309 7.20619 25.2217 -8.05623
808 2 1.80155 7.20619 23.4201 -7.05986
1057 2 0 9.00773 23.4201 -6.97474
2058 2 3.60309 9.00773 23.4201 -7.05306
1058 1 5.40464 9.00773 25.2217 -8.01777
1808 1 5.40464 7.20619 23.4201 -8.05328
1312 1 7.20619 7.20619 25.2217 -8.25185
1562 3 9.00773 9.00773 25.2217 -6.43813
2807 1 9.00773 7.20619 23.4201 -8.09399
3058 1 7.20619 9.00773 23.4201 -8.10511
43 1 10.8093 9.00773 23.4201 -8.39469
1809 2 10.8093 7.20619 25.2217 -7.04482
2059 2 12.6108 9.00773 25.2217 -7.08615
3809 2 12.6108 7.20619 23.4201 -6.98555
810 3 16.2139 7.20619 23.4201 -6.55882
1059 3 14.4124 9.00773 23.4201 -6.59117
2311 1 14.4124 7.20619 25.2217 -8.45276
2562 3 16.2139 9.00773 25.2217 -6.45588
1810 1 1.80155 10.8093 23.4201 -8.2006
2060 3 0 12.6108 23.4201 -6.4766
2808 3 0 10.8093 25.2217 -6.42039
3060 1 3.60309 12.6108 23.4201 -8.25203
3059 2 1.80155 12.6108 25.2217 -7.06618
3311 2 3.60309 10.8093 25.2217 -7.11543
2809 1 5.40464 10.8093 23.4201 -8.11078
3562 2 5.40464 12.6108 25.2217 -7.10437
45 1 9.00773 12.6108 25.2217 -8.119
44 1 7.20619 12.6108 23.4201 -8.25484
3811 3 7.20619 10.8093 25.2217 -6.35182
3810 2 9.00773 10.8093 23.4201 -6.90981
515 3 12.6108 12.6108 25.2217 -6.46908
297 2 10.8093 10.8093 25.2217 -7.00275
811 3 12.6108 10.8093 23.4201 -6.60535
1060 2 10.8093 12.6108 23.4201 -6.93869
812 2 14.4124 10.8093 25.2217 -6.93423
1061 3 16.2139 12.6108 25.2217 -6.20889
1811 1 16.2139 10.8093 23.4201 -8.63681
2061 3 14.4124 12.6108 23.4201 -6.44341
46 2 3.60309 16.2139 23.4201 -7.0303
1313 2 0 14.4124 25.2217 -7.11092
1563 2 1.80155 16.2139 25.2217 -7.0762
1812 2 3.60309 14.4124 25.2217 -7.12924
2810 3 1.80155 14.4124 23.4201 -6.58334
3061 1 0 16.2139 23.4201 -8.25895
2062 2 5.40464 16.2139 25.2217 -7.08643
3812 2 5.40464 14.4124 23.4201 -7.11985
813 2 9.00773 14.4124 23.4201 -6.9263
1062 1 7.20619 16.2139 23.4201 -8.23096
2312 2 7.20619 14.4124 25.2217 -7.07943
2563 3 9.00773 16.2139 25.2217 -6.27494
1813 2 12.6108 14.4124 23.4201 -6.88722
2063 1 10.8093 16.2139 23.4201 -8.24377
2811 3 10.8093 14.4124 25.2217 -6.31994
3062 1 12.6108 16.2139 25.2217 -8.20867
2812 1 16.2139 14.4124 23.4201 -8.38931
3063 3 14.4124 16.2139 23.4201 -6.39512
3312 1 14.4124 14.4124 25.2217 -8.17183
3563 2 16.2139 16.2139 25.2217 -6.94461
751 2 1.80155 0 30.6263 -7.1274
47 1 0 1.80155 27.0232 -8.12183
298 3 0 0 28.8247 -6.45762
549 2 3.60309 1.80155 27.0232 -7.01567
548 2 1.80155 1.80155 28.8247 -7.09799
1063 3 0 1.80155 30.6263 -6.65385
1316 1 0 3.60309 28.8247 -8.20899
1314 3 3.60309 0 28.8247 -6.49957
1816 1 1.80155 3.60309 30.6263 -8.21203
2064 2 3.60309 1.80155 30.6263 -7.14253
2315 1 3.60309 3.60309 28.8247 -8.15033
2314 1 1.80155 3.60309 27.0232 -8.11323
3813 1 1.80155 0 27.0232 -8.13786
299 1 5.40464 0 27.0232 -8.07312
1564 2 5.40464 1.80155 28.8247 -7.07216
1814 3 5.40464 0 30.6263 -6.59843
2815 2 5.40464 3.60309 30.6263 -7.06951
2814 3 5.40464 3.60309 27.0232 -6.456
752 2 9.00773 0 27.0232 -7.10062
1064 1 7.20619 1.80155 27.0232 -8.06889
2313 2 7.20619 0 28.8247 -7.07069
2564 1 9.00773 1.80155 28.8247 -7.88199
2813 1 9.00773 0 30.6263 -8.13512
3064 1 7.20619 1.80155 30.6263 -8.21974
3315 1 7.20619 3.60309 28.8247 -8.15001
3314 1 9.00773 3.60309 27.0232 -8.12528
3815 1 9.00773 3.60309 30.6263 -8.11329
754 2 12.6108 3.60309 30.6263 -6.98715
48 3 10.8093 1.80155 30.6263 -6.27956
301 1 10.8093 3.60309 28.8247 -8.03645
1315 2 12.6108 0 27.0232 -7.00319
1565 2 10.8093 1.80155 27.0232 -7.08483
3313 1 10.8093 0 28.8247 -7.97161
3564 1 12.6108 1.80155 28.8247 -8.31432
3816 3 12.6108 3.60309 27.0232 -6.41384