ITEM: TIMESTEP
0
ITEM: NUMBER OF ATOMS
4000
ITEM: BOX BOUNDS pp pp pp
0.0000000000000000e+00 3.6243159999999996e+01
0.0000000000000000e+00 3.6243159999999996e+01
0.0000000000000000e+00 3.6243159999999996e+01
ITEM: ATOMS id type x y z c_peratom
267 2 0 0 0 -6.97701
516 1 1.81216 1.81216 0 -8.17548
767 1 1.81216 0 1.81216 -8.18842
1016 3 0 1.81216 1.81216 -6.52089
1267 2 0 0 3.62432 -6.98025
1517 2 1.81216 1.81216 3.62432 -6.92731
1268 1 3.62432 0 0 -7.95832
1518 1 5.43647 1.81216 0 -8.15396
1767 3 5.43647 0 1.81216 -6.43571
2017 3 3.62432 1.81216 1.81216 -6.45538
2266 3 3.62432 0 3.62432 -6.51731
2267 3 7.24863 0 0 -6.24225
2517 2 5.43647 1.81216 3.62432 -6.92725
3017 1 7.24863 1.81216 1.81216 -8.11713
3266 2 7.24863 0 3.62432 -6.9486
1 1 10.8729 1.81216 1.81216 -7.91147
268 2 10.8729 0 3.62432 -7.04719
2518 1 9.06079 1.81216 0 -7.93793
2766 3 9.06079 0 1.81216 -6.33137
3267 1 10.8729 0 0 -8.10636
3517 1 9.06079 1.81216 3.62432 -7.97003
517 1 12.6851 1.81216 3.62432 -7.97045
3518 3 12.6851 1.81216 0 -6.50791
3767 1 12.6851 0 1.81216 -8.02802
269 2 14.4973 0 0 -7.00952
518 3 16.3094 1.81216 0 -6.57383
768 3 16.3094 0 1.81216 -6.54987
1017 2 14.4973 1.81216 1.81216 -6.97063
1269 2 14.4973 0 3.62432 -6.99057
1519 3 16.3094 1.81216 3.62432 -6.61235
1270 2 0 3.62432 0 -7.00247
1520 2 1.81216 5.43647 0 -7.00847
1768 3 1.81216 3.62432 1.81216 -6.55247
2018 3 0 5.43647 1.81216 -6.57644
2271 2 0 7.24863 0 -7.00353
2268 2 0 3.62432 3.62432 -7.03779
2519 2 1.81216 5.43647 3.62432 -7.00726
2768 1 1.81216 7.24863 1.81216 -8.27525
3270 3 0 7.24863 3.62432 -6.45901
2 1 7.24863 5.43647 1.81216 -8.23257
273 2 7.24863 7.24863 0 -7.02108
272 1 3.62432 7.24863 3.62432 -7.92967
270 1 7.24863 3.62432 3.62432 -8.07589
1273 2 7.24863 7.24863 3.62432 -6.98496
2269 3 3.62432 3.62432 0 -6.38914
2520 3 5.43647 5.43647 0 -6.44899
2767 3 5.43647 3.62432 1.81216 -6.36023
3018 1 3.62432 5.43647 1.81216 -8.21122
3271 1 3.62432 7.24863 0 -7.97038
3269 2 7.24863 3.62432 0 -7.05285
3268 3 3.62432 3.62432 3.62432 -6.46652
3519 3 5.43647 5.43647 3.62432 -6.24592
3769 1 5.43647 7.24863 1.81216 -7.96232
271 2 10.8729 3.62432 0 -6.94746
519 3 9.06079 5.43647 3.62432 -6.19303
770 3 9.06079 7.24863 1.81216 -6.38488
1018 3 10.8729 5.43647 1.81216 -6.28325
1274 1 10.8729 7.24863 0 -8.18913
1271 1 10.8729 3.62432 3.62432 -8.00221
2272 1 10.8729 7.24863 3.62432 -8.16287
3520 3 9.06079 5.43647 0 -6.46237
3768 1 9.06079 3.62432 1.81216 -7.97125
520 1 12.6851 5.43647 0 -8.04633
769 1 12.6851 3.62432 1.81216 -8.15419
1521 3 12.6851 5.43647 3.62432 -6.32491
1770 2 12.6851 7.24863 1.81216 -6.91849
1272 3 14.4973 3.62432 0 -6.51064
1522 2 16.3094 5.43647 0 -6.93386
1769 1 16.3094 3.62432 1.81216 -8.29148
2019 3 14.4973 5.43647 1.81216 -6.41102
2273 1 14.4973 7.24863 0 -8.1795
2270 2 14.4973 3.62432 3.62432 -6.94256
2521 3 16.3094 5.43647 3.62432 -6.51617
2769 1 16.3094 7.24863 1.81216 -8.3059
3272 2 14.4973 7.24863 3.62432 -6.92808
274 1 0 10.8729 3.62432 -8.29896
2522 3 1.81216 9.06079 0 -6.39887
3019 3 0 9.06079 1.81216 -6.43841
3273 1 0 10.8729 0 -8.06117
3521 3 1.81216 9.06079 3.62432 -6.36105
3770 2 1.81216 10.8729 1.81216 -6.96156
3 3 3.62432 9.06079 1.81216 -6.39446
275 3 3.62432 10.8729 0 -6.57503
521 1 5.43647 9.06079 3.62432 -8.02733
771 2 5.43647 10.8729 1.81216 -6.95589
1019 2 7.24863 9.06079 1.81216 -7.00849
1276 3 7.24863 10.8729 0 -6.49572
1275 3 3.62432 10.8729 3.62432 -6.51312
2274 1 7.24863 10.8729 3.62432 -8.18395
3522 1 5.43647 9.06079 0 -8.18544
522 3 9.06079 9.06079 0 -6.51676
1523 2 9.06079 9.06079 3.62432 -7.00523
1771 1 9.06079 10.8729 1.81216 -8.13513
2020 1 10.8729 9.06079 1.81216 -8.22185
2275 3 10.8729 10.8729 0 -6.44993
3274 3 10.8729 10.8729 3.62432 -6.36417
1524 3 12.6851 9.06079 0 -6.35726
2523 3 12.6851 9.06079 3.62432 -6.41024
2770 3 12.6851 10.8729 1.81216 -6.39751
276 1 14.4973 10.8729 3.62432 -8.25228
2524 3 16.3094 9.06079 0 -6.28828
3020 2 14.4973 9.06079 1.81216 -6.93363
3275 1 14.4973 10.8729 0 -8.14617
3523 3 16.3094 9.06079 3.62432 -6.45961
3771 1 16.3094 10.8729 1.81216 -7.99091
4 2 0 12.6851 1.81216 -7.02065
523 3 1.81216 12.6851 3.62432 -6.40926
3524 1 1.81216 12.6851 0 -8.29669
524 2 5.43647 12.6851 0 -7.01433
1020 3 3.62432 12.6851 1.81216 -6.56277
1525 3 5.43647 12.6851 3.62432 -6.41248
2021 3 7.24863 12.6851 1.81216 -6.42946
1526 1 9.06079 12.6851 0 -8.10763
2525 2 9.06079 12.6851 3.62432 -7.00604
3021 1 10.8729 12.6851 1.81216 -8.13334
2526 1 12.6851 12.6851 0 -8.3623
3525 2 12.6851 12.6851 3.62432 -6.9561
5 2 14.4973 12.6851 1.81216 -6.98918
525 2 16.3094 12.6851 3.62432 -7.0027
3526 1 16.3094 12.6851 0 -8.0728
277 2 0 14.4973 0 -7.0432
526 2 1.81216 16.3094 0 -7.0127
772 3 1.81216 14.4973 1.81216 -6.42537
1021 3 0 16.3094 1.81216 -6.49888
1277 1 0 14.4973 3.62432 -8.05985
1527 1 1.81216 16.3094 3.62432 -8.09118
1278 2 3.62432 14.4973 0 -7.06122
1528 2 5.43647 16.3094 0 -7.10216
1772 3 5.43647 14.4973 1.81216 -6.40489
2022 1 3.62432 16.3094 1.81216 -8.12392
2277 1 7.24863 14.4973 0 -8.04867
2276 1 3.62432 14.4973 3.62432 -8.21424
2527 2 5.43647 16.3094 3.62432 -7.01463
3022 1 7.24863 16.3094 1.81216 -8.03602
3276 1 7.24863 14.4973 3.62432 -8.22657
6 3 10.8729 16.3094 1.81216 -6.45599
278 1 10.8729 14.4973 3.62432 -8.01293
2528 3 9.06079 16.3094 0 -6.30318
2771 2 9.06079 14.4973 1.81216 -6.90834
3277 3 10.8729 14.4973 0 -6.37792
3527 3 9.06079 16.3094 3.62432 -6.23513
527 1 12.6851 16.3094 3.62432 -8.24499
3528 2 12.6851 16.3094 0 -6.93133
3772 3 12.6851 14.4973 1.81216 -6.44941
279 3 14.4973 14.4973 0 -6.42969
528 2 16.3094 16.3094 0 -6.99718
773 3 16.3094 14.4973 1.81216 -6.4537
1022 3 14.4973 16.3094 1.81216 -6.52796
1279 3 14.4973 14.4973 3.62432 -6.54447
1529 3 16.3094 16.3094 3.62432 -6.36432
1773 3 1.81216 0 5.43647 -6.47954
2023 1 0 1.81216 5.43647 -8.27934
2278 3 0 0 7.24863 -6.3668
2529 2 1.81216 1.81216 7.24863 -6.93961
7 1 7.24863 1.81216 5.43647 -8.17543
2773 3 3.62432 0 7.24863 -6.40599
2772 3 5.43647 0 5.43647 -6.44487
3024 3 5.43647 1.81216 7.24863 -6.48468
3023 3 3.62432 1.81216 5.43647 -6.57697
3278 1 7.24863 0 7.24863 -8.18349
1023 1 10.8729 1.81216 5.43647 -8.09821
3529 2 9.06079 1.81216 7.24863 -7.09532
3774 2 10.8729 0 7.24863 -7.04147
3773 3 9.06079 0 5.43647 -6.45292
8 3 12.6851 1.81216 7.24863 -6.50588
774 1 12.6851 0 5.43647 -8.14182
280 1 14.4973 0 7.24863 -8.11024
529 2 16.3094 1.81216 7.24863 -7.06627
1774 3 16.3094 0 5.43647 -6.60815
2024 3 14.4973 1.81216 5.43647 -6.53435
775 2 0 3.62432 7.24863 -6.99754
1024 3 1.81216 5.43647 7.24863 -6.41039
2774 1 1.81216 3.62432 5.43647 -8.22095
3025 2 0 5.43647 5.43647 -6.96456
3279 2 0 7.24863 7.24863 -6.99825
3776 1 1.81216 7.24863 5.43647 -8.13008
9 1 3.62432 5.43647 5.43647 -8.21166
281 3 7.24863 7.24863 7.24863 -6.39688
777 2 5.43647 7.24863 5.43647 -7.02957
1025 1 7.24863 5.43647 5.43647 -8.21615
1280 3 3.62432 3.62432 7.24863 -6.56139
1530 2 5.43647 5.43647 7.24863 -7.03383
1775 2 7.24863 3.62432 7.24863 -6.98551
3777 2 3.62432 7.24863 7.24863 -7.04281
3775 3 5.43647 3.62432 5.43647 -6.44865
778 1 10.8729 7.24863 7.24863 -8.03427
776 1 9.06079 3.62432 5.43647 -7.95583
1777 1 9.06079 7.24863 5.43647 -7.96519
2026 1 10.8729 5.43647 5.43647 -8.02996
2025 3 9.06079 5.43647 7.24863 -6.34121
2279 3 10.8729 3.62432 7.24863 -6.47913
1776 3 12.6851 3.62432 5.43647 -6.37147
2530 2 12.6851 5.43647 7.24863 -7.07328
2777 1 12.6851 7.24863 5.43647 -8.03266
1281 1 14.4973 7.24863 7.24863 -8.05605
2776 3 14.4973 3.62432 7.24863 -6.59787
2775 2 16.3094 3.62432 5.43647 -7.048
3027 2 16.3094 5.43647 7.24863 -7.08264
3026 1 14.4973 5.43647 5.43647 -8.31397
3778 3 16.3094 7.24863 5.43647 -6.59875
10 1 0 9.06079 5.43647 -8.17842
779 3 1.81216 10.8729 5.43647 -6.42638
1778 2 0 10.8729 7.24863 -7.00749
3530 3 1.81216 9.06079 7.24863 -6.36253
11 2 5.43647 9.06079 7.24863 -6.9728
1026 1 3.62432 9.06079 5.43647 -8.20995
1779 3 5.43647 10.8729 5.43647 -6.49623
2027 1 7.24863 9.06079 5.43647 -8.03275
2280 2 3.62432 10.8729 7.24863 -7.05335
2779 1 7.24863 10.8729 7.24863 -8.31307
530 1 9.06079 9.06079 7.24863 -8.11996
2778 3 9.06079 10.8729 5.43647 -6.34526
3028 1 10.8729 9.06079 5.43647 -8.18422
3280 3 10.8729 10.8729 7.24863 -6.48475
1027 3 12.6851 9.06079 7.24863 -6.48688
3779 2 12.6851 10.8729 5.43647 -7.00213
12 2 14.4973 9.06079 5.43647 -6.95037
780 1 16.3094 10.8729 5.43647 -8.35689
1531 2 16.3094 9.06079 7.24863 -7.07014
3780 3 14.4973 10.8729 7.24863 -6.66061
1028 1 0 12.6851 5.43647 -8.04885
2028 2 1.81216 12.6851 7.24863 -7.11154
2029 2 3.62432 12.6851 5.43647 -7.01402
2531 2 5.43647 12.6851 7.24863 -7.07097
3029 3 7.24863 12.6851 5.43647 -6.36404
13 1 10.8729 12.6851 5.43647 -8.16578
3030 2 9.06079 12.6851 7.24863 -6.9792
3531 1 12.6851 12.6851 7.24863 -8.15347
14 3 16.3094 12.6851 7.24863 -6.56679
1029 2 14.4973 12.6851 5.43647 -7.0307
282 1 0 14.4973 7.24863 -7.99173
531 3 1.81216 16.3094 7.24863 -6.32203
1780 1 1.81216 14.4973 5.43647 -7.93429
2030 1 0 16.3094 5.43647 -8.11126
15 1 7.24863 16.3094 5.43647 -7.85695
781 2 3.62432 14.4973 7.24863 -7.08666
1030 1 5.43647 16.3094 7.24863 -7.90167
1282 1 7.24863 14.4973 7.24863 -8.12619
2780 3 5.43647 14.4973 5.43647 -6.38516
3031 1 3.62432 16.3094 5.43647 -8.05536
1031 1 10.8729 16.3094 5.43647 -7.99962
1532 2 9.06079 16.3094 7.24863 -7.11231
1781 1 10.8729 14.4973 7.24863 -7.93629
3781 1 9.06079 14.4973 5.43647 -7.90266
782 3 12.6851 14.4973 5.43647 -6.45104
2031 2 12.6851 16.3094 7.24863 -7.05581
1782 1 16.3094 14.4973 5.43647 -8.35162
2032 2 14.4973 16.3094 5.43647 -7.04106
2281 2 14.4973 14.4973 7.24863 -7.08801
2532 2 16.3094 16.3094 7.24863 -7.09287
16 2 0 1.81216 12.6851 -6.97774
2781 3 1.81216 0 9.06079 -6.39757
3032 2 0 1.81216 9.06079 -6.9576
3281 3 0 0 10.8729 -6.38087
3532 3 1.81216 1.81216 10.8729 -6.38398
3782 1 1.81216 0 12.6851 -8.2547
251 1 3.62432 0 10.8729 -8.14704
17 2 7.24863 1.81216 9.06079 -7.03141
532 2 5.43647 1.81216 10.8729 -7.00061
783 1 5.43647 0 12.6851 -8.07194
1032 3 3.62432 1.81216 12.6851 -6.28813
1283 2 7.24863 0 10.8729 -7.00365
2033 1 7.24863 1.81216 12.6851 -8.1598
3282 3 5.43647 0 9.06079 -6.39764
3533 3 3.62432 1.81216 9.06079 -6.49694
533 2 10.8729 1.81216 9.06079 -7.06132
1533 3 9.06079 1.81216 10.8729 -6.58339
1783 2 9.06079 0 12.6851 -6.99109
2282 2 10.8729 0 10.8729 -7.02134
3033 1 10.8729 1.81216 12.6851 -8.28474
3783 3 9.06079 0 9.06079 -6.56859
252 1 12.6851 0 9.06079 -8.09955
2533 1 12.6851 1.81216 10.8729 -8.02466
2782 3 12.6851 0 12.6851 -6.47613
18 1 14.4973 1.81216 12.6851 -8.30001
784 2 16.3094 0 9.06079 -7.01936
1033 2 14.4973 1.81216 9.06079 -6.98724
3283 3 14.4973 0 10.8729 -6.33408
3534 1 16.3094 1.81216 10.8729 -8.14918
3784 3 16.3094 0 12.6851 -6.47127
253 1 0 3.62432 10.8729 -8.25826
534 1 1.81216 5.43647 10.8729 -7.93969
785 3 1.81216 3.62432 12.6851 -6.38667
1034 3 0 5.43647 12.6851 -6.38409
1286 1 0 7.24863 10.8729 -8.20877
1284 3 1.81216 3.62432 9.06079 -6.48788
1534 1 0 5.43647 9.06079 -8.06794
1786 1 1.81216 7.24863 12.6851 -8.18164
3786 1 1.81216 7.24863 9.06079 -8.13614
255 3 5.43647 7.24863 9.06079 -6.56588
1285 1 3.62432 3.62432 10.8729 -8.29504
1535 2 5.43647 5.43647 10.8729 -6.99212
1785 2 5.43647 3.62432 12.6851 -7.04175
1784 3 5.43647 3.62432 9.06079 -6.61948
2035 1 3.62432 5.43647 12.6851 -7.93798
2034 2 3.62432 5.43647 9.06079 -6.92145
2285 3 3.62432 7.24863 10.8729 -6.35976
2284 3 7.24863 3.62432 10.8729 -6.53792
2534 1 7.24863 5.43647 9.06079 -8.37145
2785 1 5.43647 7.24863 12.6851 -8.15607
3034 2 7.24863 5.43647 12.6851 -7.04374
3286 2 7.24863 7.24863 10.8729 -7.04068
256 2 10.8729 7.24863 10.8729 -7.07332
19 1 10.8729 5.43647 12.6851 -8.2721
787 3 9.06079 7.24863 9.06079 -6.4605
2283 2 9.06079 3.62432 9.06079 -7.03714
2535 1 9.06079 5.43647 10.8729 -8.12833
2783 1 9.06079 3.62432 12.6851 -8.11235
3035 3 10.8729 5.43647 9.06079 -6.50008
3284 3 10.8729 3.62432 10.8729 -6.47501
3787 2 9.06079 7.24863 12.6851 -7.10261
788 2 12.6851 7.24863 12.6851 -7.06154
1287 1 12.6851 7.24863 9.06079 -8.13785
2784 2 12.6851 3.62432 9.06079 -7.02108
3535 3 12.6851 5.43647 10.8729 -6.53084
3785 2 12.6851 3.62432 12.6851 -6.95867
254 1 14.4973 3.62432 10.8729 -8.04637
535 2 16.3094 5.43647 10.8729 -7.06738
786 3 16.3094 3.62432 12.6851 -6.53075
1035 2 14.4973 5.43647 12.6851 -6.97108
1288 2 14.4973 7.24863 10.8729 -7.07056
1788 1 16.3094 7.24863 12.6851 -8.11437
1787 3 16.3094 7.24863 9.06079 -6.67943
3285 2 16.3094 3.62432 9.06079 -7.1146
3536 1 14.4973 5.43647 9.06079 -8.16823
20 3 0 9.06079 9.06079 -6.21992
1536 3 1.81216 9.06079 10.8729 -6.27816
2036 2 0 9.06079 12.6851 -6.99541
2287 1 0 10.8729 10.8729 -8.19064
2286 1 1.81216 10.8729 9.06079 -8.11411
2786 1 1.81216 10.8729 12.6851 -8.11469
257 2 7.24863 10.8729 10.8729 -7.06323
21 2 7.24863 9.06079 12.6851 -7.12778
536 1 3.62432 9.06079 9.06079 -8.24185
1036 3 7.24863 9.06079 9.06079 -6.56337
2536 3 5.43647 9.06079 10.8729 -6.59815
2787 3 5.43647 10.8729 9.06079 -6.57276
3036 3 3.62432 9.06079 12.6851 -6.47285
3287 2 3.62432 10.8729 10.8729 -6.98497
3788 2 5.43647 10.8729 12.6851 -7.06869
789 2 9.06079 10.8729 12.6851 -7.16094
1037 2 10.8729 9.06079 12.6851 -7.16539
1289 2 10.8729 10.8729 10.8729 -7.17078
1537 2 10.8729 9.06079 9.06079 -7.06811
3288 3 9.06079 10.8729 9.06079 -6.57969
3537 3 9.06079 9.06079 10.8729 -6.7647
537 2 12.6851 9.06079 10.8729 -7.21194
1789 1 12.6851 10.8729 12.6851 -8.17898
3789 2 12.6851 10.8729 9.06079 -7.1282
258 2 16.3094 10.8729 9.06079 -7.07621
1538 2 16.3094 9.06079 10.8729 -7.14665
2038 2 14.4973 9.06079 12.6851 -7.0919
2037 2 14.4973 9.06079 9.06079 -7.10753
2288 1 14.4973 10.8729 10.8729 -8.10456
2788 1 16.3094 10.8729 12.6851 -8.08286
2538 1 1.81216 12.6851 10.8729 -8.00483
2537 1 0 12.6851 9.06079 -7.90693
3037 3 0 12.6851 12.6851 -6.37714
22 1 3.62432 12.6851 12.6851 -8.04602
1038 2 7.24863 12.6851 12.6851 -7.05379
3038 3 3.62432 12.6851 9.06079 -6.53074
3539 2 7.24863 12.6851 9.06079 -7.02059
3538 1 5.43647 12.6851 10.8729 -8.21443
23 2 10.8729 12.6851 9.06079 -7.07293
538 1 9.06079 12.6851 10.8729 -8.24267
2039 2 10.8729 12.6851 12.6851 -7.07662
1539 2 12.6851 12.6851 10.8729 -7.11706
539 2 14.4973 12.6851 9.06079 -7.14015
2539 2 16.3094 12.6851 10.8729 -7.17646
3039 3 14.4973 12.6851 12.6851 -6.5018
24 1 0 16.3094 12.6851 -8.16545
790 2 1.81216 14.4973 9.06079 -7.0214
1039 2 0 16.3094 9.06079 -6.98234
3289 2 0 14.4973 10.8729 -7.03994
3540 1 1.81216 16.3094 10.8729 -8.05588
3790 1 1.81216 14.4973 12.6851 -8.11706
259 3 3.62432 14.4973 10.8729 -6.2831
540 1 5.43647 16.3094 10.8729 -8.05519
791 3 5.43647 14.4973 12.6851 -6.29897
1040 2 3.62432 16.3094 12.6851 -6.96346
1291 1 7.24863 14.4973 10.8729 -8.07029
1290 2 5.43647 14.4973 9.06079 -7.12315
1540 1 3.62432 16.3094 9.06079 -8.01387
2041 3 7.24863 16.3094 12.6851 -6.4122
2040 1 7.24863 16.3094 9.06079 -8.01527
1541 3 9.06079 16.3094 10.8729 -6.42968
1791 2 9.06079 14.4973 12.6851 -7.02585
1790 3 9.06079 14.4973 9.06079 -6.39963
2290 2 10.8729 14.4973 10.8729 -7.00714
2540 1 10.8729 16.3094 9.06079 -8.1866
3040 1 10.8729 16.3094 12.6851 -8.14725
2289 1 12.6851 14.4973 9.06079 -8.11144
2541 3 12.6851 16.3094 10.8729 -6.41761
2789 3 12.6851 14.4973 12.6851 -6.50124
25 2 14.4973 16.3094 12.6851 -7.01317
2790 2 16.3094 14.4973 9.06079 -7.14783
3041 3 14.4973 16.3094 9.06079 -6.59311
3290 2 14.4973 14.4973 10.8729 -7.16422
3541 2 16.3094 16.3094 10.8729 -7.10059
3791 2 16.3094 14.4973 12.6851 -7.14815
260 3 0 0 14.4973 -6.56849
541 3 1.81216 1.81216 14.4973 -6.48628
792 3 1.81216 0 16.3094 -6.45986
1041 3 0 1.81216 16.3094 -6.57544
1292 1 3.62432 0 14.4973 -8.19325
1542 1 5.43647 1.81216 14.4973 -7.89375
1792 1 5.43647 0 16.3094 -8.0468
2042 2 3.62432 1.81216 16.3094 -7.05861
2291 3 7.24863 0 14.4973 -6.37762
3042 1 7.24863 1.81216 16.3094 -8.01829
26 3 10.8729 1.81216 16.3094 -6.50891
2542 3 9.06079 1.81216 14.4973 -6.50544
2791 3 9.06079 0 16.3094 -6.44491
3291 2 10.8729 0 14.4973 -6.98967
3542 3 12.6851 1.81216 14.4973 -6.50703
3792 1 12.6851 0 16.3094 -8.41218
261 3 14.4973 0 14.4973 -6.46363
542 2 16.3094 1.81216 14.4973 -6.95651
793 1 16.3094 0 16.3094 -8.25254
1042 3 14.4973 1.81216 16.3094 -6.47749
1293 3 0 3.62432 14.4973 -6.60993
1543 2 1.81216 5.43647 14.4973 -7.01526
1793 2 1.81216 3.62432 16.3094 -6.97537
2043 3 0 5.43647 16.3094 -6.55874
2293 2 0 7.24863 14.4973 -7.03421
2793 2 1.81216 7.24863 16.3094 -7.12869
263 1 7.24863 7.24863 14.4973 -8.11583
27 2 7.24863 5.43647 16.3094 -7.17064
2292 1 3.62432 3.62432 14.4973 -8.10939
2543 1 5.43647 5.43647 14.4973 -7.97194
2792 1 5.43647 3.62432 16.3094 -7.96385
3043 2 3.62432 5.43647 16.3094 -7.14105
3293 2 3.62432 7.24863 14.4973 -7.09885
3292 2 7.24863 3.62432 14.4973 -7.11076
3794 3 5.43647 7.24863 16.3094 -6.71063
262 2 10.8729 3.62432 14.4973 -7.05091
795 2 9.06079 7.24863 16.3094 -7.2072
1043 2 10.8729 5.43647 16.3094 -7.13415
1295 3 10.8729 7.24863 14.4973 -6.75251
3543 2 9.06079 5.43647 14.4973 -7.16133
3793 2 9.06079 3.62432 16.3094 -7.09128
543 3 12.6851 5.43647 14.4973 -6.62693
794 3 12.6851 3.62432 16.3094 -6.53513
1795 3 12.6851 7.24863 16.3094 -6.62679
1294 3 14.4973 3.62432 14.4973 -6.5872
1544 3 16.3094 5.43647 14.4973 -6.61387
1794 3 16.3094 3.62432 16.3094 -6.67892
2044 3 14.4973 5.43647 16.3094 -6.5704
2294 1 14.4973 7.24863 14.4973 -8.29075
2794 2 16.3094 7.24863 16.3094 -7.03739
2544 2 1.81216 9.06079 14.4973 -7.10111
3044 1 0 9.06079 16.3094 -8.0511
3294 1 0 10.8729 14.4973 -8.16769
3795 3 1.81216 10.8729 16.3094 -6.5692
264 2 3.62432 10.8729 14.4973 -7.08648
28 2 3.62432 9.06079 16.3094 -7.20042
796 2 5.43647 10.8729 16.3094 -7.14961
1044 2 7.24863 9.06079 16.3094 -7.15214
1296 3 7.24863 10.8729 14.4973 -6.72636
3544 3 5.43647 9.06079 14.4973 -6.70268
544 2 9.06079 9.06079 14.4973 -7.19293
1796 2 9.06079 10.8729 16.3094 -7.11451
2045 2 10.8729 9.06079 16.3094 -7.06496
2295 3 10.8729 10.8729 14.4973 -6.71074
1545 3 12.6851 9.06079 14.4973 -6.61227
2795 2 12.6851 10.8729 16.3094 -7.00904
2545 2 16.3094 9.06079 14.4973 -7.09332
3045 2 14.4973 9.06079 16.3094 -7.04285
3295 1 14.4973 10.8729 14.4973 -8.02521
3796 1 16.3094 10.8729 16.3094 -8.08478
29 2 0 12.6851 16.3094 -6.99602
3545 3 1.81216 12.6851 14.4973 -6.47977
545 1 5.43647 12.6851 14.4973 -8.11882
1045 2 3.62432 12.6851 16.3094 -7.06958
2046 3 7.24863 12.6851 16.3094 -6.48138
1546 3 9.06079 12.6851 14.4973 -6.57402
3046 3 10.8729 12.6851 16.3094 -6.4524
2546 3 12.6851 12.6851 14.4973 -6.41328
30 1 14.4973 12.6851 16.3094 -7.93607
3546 2 16.3094 12.6851 14.4973 -7.08019
265 3 0 14.4973 14.4973 -6.44511
546 2 1.81216 16.3094 14.4973 -6.95552
797 3 1.81216 14.4973 16.3094 -6.65439
1046 2 0 16.3094 16.3094 -6.94098
1297 3 3.62432 14.4973 14.4973 -6.43027
1547 1 5.43647 16.3094 14.4973 -8.29095
1797 1 5.43647 14.4973 16.3094 -8.03354
2047 3 3.62432 16.3094 16.3094 -6.4765
2296 1 7.24863 14.4973 14.4973 -8.02193
3047 2 7.24863 16.3094 16.3094 -7.09232
31 2 10.8729 16.3094 16.3094 -7.09486
2547 1 9.06079 16.3094 14.4973 -7.92664
2796 1 9.06079 14.4973 16.3094 -8.05598
3296 1 10.8729 14.4973 14.4973 -8.12019
3547 1 12.6851 16.3094 14.4973 -8.0987
3797 2 12.6851 14.4973 16.3094 -6.989
266 1 14.4973 14.4973 14.4973 -8.0658
547 1 16.3094 16.3094 14.4973 -8.09669
798 1 16.3094 14.4973 16.3094 -7.97446
1047 3 14.4973 16.3094 16.3094 -6.3702
1298 3 0 0 18.1216 -6.54194
1548 1 1.81216 1.81216 18.1216 -8.33774
1798 3 1.81216 0 19.9337 -6.42632
2048 2 0 1.81216 19.9337 -7.03612
2297 1 0 0 21.7459 -8.18855
2548 2 1.81216 1.81216 21.7459 -7.073
32 3 7.24863 1.81216 19.9337 -6.36105
283 3 7.24863 0 21.7459 -6.49529
2298 1 3.62432 0 18.1216 -8.10464
2549 1 5.43647 1.81216 18.1216 -8.07727
2797 3 5.43647 0 19.9337 -6.39433
3048 3 3.62432 1.81216 19.9337 -6.35709
3298 3 7.24863 0 18.1216 -6.25187
3297 1 3.62432 0 21.7459 -8.37411
3548 3 5.43647 1.81216 21.7459 -6.5052
501 3 9.06079 1.81216 21.7459 -6.36218
284 2 10.8729 0 18.1216 -6.92149
1048 1 10.8729 1.81216 19.9337 -8.11021
1299 3 10.8729 0 21.7459 -6.2283
3549 1 9.06079 1.81216 18.1216 -8.12308
3798 2 9.06079 0 19.9337 -6.90857
502 3 12.6851 1.81216 18.1216 -6.30865
799 3 12.6851 0 19.9337 -6.34102
1549 1 12.6851 1.81216 21.7459 -7.91342
1300 1 14.4973 0 18.1216 -8.14696
1550 2 16.3094 1.81216 18.1216 -6.98743
1799 2 16.3094 0 19.9337 -7.11098
2049 1 14.4973 1.81216 19.9337 -8.04805
2299 2 14.4973 0 21.7459 -7.01721
2550 2 16.3094 1.81216 21.7459 -7.14554
287 2 0 7.24863 21.7459 -7.10332
2300 3 0 3.62432 18.1216 -6.50311
2551 1 1.81216 5.43647 18.1216 -8.16594
2798 1 1.81216 3.62432 19.9337 -8.03302
3049 1 0 5.43647 19.9337 -8.01582
3302 3 0 7.24863 18.1216 -6.49425
3299 1 0 3.62432 21.7459 -7.87789
3550 1 1.81216 5.43647 21.7459 -7.97309
3800 1 1.81216 7.24863 19.9337 -7.96928
503 2 5.43647 5.43647 21.7459 -7.06412
33 2 3.62432 5.43647 19.9337 -7.12957
288 2 3.62432 7.24863 18.1216 -7.24035
286 1 7.24863 3.62432 18.1216 -7.97206
285 2 3.62432 3.62432 21.7459 -7.07416
801 2 5.43647 7.24863 19.9337 -7.12515
1049 3 7.24863 5.43647 19.9337 -6.47273
1304 2 7.24863 7.24863 18.1216 -7.12831
1303 2 3.62432 7.24863 21.7459 -7.10297
1301 3 7.24863 3.62432 21.7459 -6.41615
2303 1 7.24863 7.24863 21.7459 -8.06817
3300 3 3.62432 3.62432 18.1216 -6.3786
3551 2 5.43647 5.43647 18.1216 -7.11527
3799 1 5.43647 3.62432 19.9337 -8.25909
504 2 9.06079 5.43647 18.1216 -7.06111
800 1 9.06079 3.62432 19.9337 -8.07769
1302 1 10.8729 3.62432 18.1216 -8.20466
1551 1 9.06079 5.43647 21.7459 -8.22136
1801 3 9.06079 7.24863 19.9337 -6.48531
2050 3 10.8729 5.43647 19.9337 -6.45085
2304 3 10.8729 7.24863 18.1216 -6.56601
2301 2 10.8729 3.62432 21.7459 -7.02948
3303 2 10.8729 7.24863 21.7459 -7.05407
1552 2 12.6851 5.43647 18.1216 -6.99584
1800 1 12.6851 3.62432 19.9337 -7.8458
2552 1 12.6851 5.43647 21.7459 -8.20629
2800 3 12.6851 7.24863 19.9337 -6.5546
289 2 14.4973 7.24863 21.7459 -7.1298
2302 1 14.4973 3.62432 18.1216 -8.29141
2553 2 16.3094 5.43647 18.1216 -7.08959
2799 3 16.3094 3.62432 19.9337 -6.64843
3050 2 14.4973 5.43647 19.9337 -7.07286
3304 2 14.4973 7.24863 18.1216 -7.01909
3301 1 14.4973 3.62432 21.7459 -8.06521
3552 2 16.3094 5.43647 21.7459 -7.20452
3801 1 16.3094 7.24863 19.9337 -8.28192
505 1 1.81216 9.06079 21.7459 -8.02401
34 2 0 9.06079 19.9337 -7.09315
290 1 0 10.8729 18.1216 -7.9317
802 1 1.81216 10.8729 19.9337 -7.95588
1305 1 0 10.8729 21.7459 -7.99162
3553 1 1.81216 9.06079 18.1216 -8.0347
506 2 5.43647 9.06079 18.1216 -7.16701
1050 2 3.62432 9.06079 19.9337 -7.08079
1306 3 3.62432 10.8729 18.1216 -6.61472
1553 3 5.43647 9.06079 21.7459 -6.44812
1802 1 5.43647 10.8729 19.9337 -8.16248
2051 1 7.24863 9.06079 19.9337 -8.10557
2306 2 7.24863 10.8729 18.1216 -7.10403
2305 3 3.62432 10.8729 21.7459 -6.32622
3305 3 7.24863 10.8729 21.7459 -6.44437
291 3 10.8729 10.8729 21.7459 -6.55893
1554 1 9.06079 9.06079 18.1216 -8.19783
2554 2 9.06079 9.06079 21.7459 -6.98902
2801 3 9.06079 10.8729 19.9337 -6.43807
3051 1 10.8729 9.06079 19.9337 -8.14766
3306 1 10.8729 10.8729 18.1216 -8.15297
2555 1 12.6851 9.06079 18.1216 -8.18889
3554 2 12.6851 9.06079 21.7459 -7.01797
3802 1 12.6851 10.8729 19.9337 -8.11272
507 3 16.3094 9.06079 21.7459 -6.5921
35 3 14.4973 9.06079 19.9337 -6.48406
292 1 14.4973 10.8729 18.1216 -8.01149
803 3 16.3094 10.8729 19.9337 -6.40489
1307 3 14.4973 10.8729 21.7459 -6.52686
3555 3 16.3094 9.06079 18.1216 -6.42743
508 2 1.81216 12.6851 18.1216 -7.04549
1051 1 0 12.6851 19.9337 -8.11622
1555 2 1.81216 12.6851 21.7459 -7.02998
1556 2 5.43647 12.6851 18.1216 -7.01953
2052 2 3.62432 12.6851 19.9337 -6.96273
2556 1 5.43647 12.6851 21.7459 -8.15267
3052 1 7.24863 12.6851 19.9337 -8.1716
36 3 10.8729 12.6851 19.9337 -6.44031
2557 2 9.06079 12.6851 18.1216 -6.98628
3556 3 9.06079 12.6851 21.7459 -6.50786
509 3 12.6851 12.6851 21.7459 -6.36049
3557 2 12.6851 12.6851 18.1216 -7.06738
510 1 16.3094 12.6851 18.1216 -8.0841
1052 1 14.4973 12.6851 19.9337 -8.08228
1557 2 16.3094 12.6851 21.7459 -6.92492
1308 2 0 14.4973 18.1216 -7.00193
1558 3 1.81216 16.3094 18.1216 -6.57144
1803 3 1.81216 14.4973 19.9337 -6.61584
2053 3 0 16.3094 19.9337 -6.6787
2307 2 0 14.4973 21.7459 -7.09836
2558 3 1.81216 16.3094 21.7459 -6.53752
37 1 7.24863 16.3094 19.9337 -8.19414
293 3 7.24863 14.4973 21.7459 -6.39194
2308 3 3.62432 14.4973 18.1216 -6.51867
2559 1 5.43647 16.3094 18.1216 -8.11399
2802 1 5.43647 14.4973 19.9337 -8.13816
3053 3 3.62432 16.3094 19.9337 -6.39153
3308 1 7.24863 14.4973 18.1216 -8.01632
3307 3 3.62432 14.4973 21.7459 -6.33888
3558 3 5.43647 16.3094 21.7459 -6.29026
511 2 9.06079 16.3094 21.7459 -6.90777
294 1 10.8729 14.4973 18.1216 -8.29508
1053 3 10.8729 16.3094 19.9337 -6.4376
1309 3 10.8729 14.4973 21.7459 -6.44157
3559 3 9.06079 16.3094 18.1216 -6.35082
3803 3 9.06079 14.4973 19.9337 -6.44808
512 2 12.6851 16.3094 18.1216 -7.06296
804 1 12.6851 14.4973 19.9337 -8.20413
1559 3 12.6851 16.3094 21.7459 -6.25386
1310 1 14.4973 14.4973 18.1216 -8.00614
1560 2 16.3094 16.3094 18.1216 -6.98222
1804 3 16.3094 14.4973 19.9337 -6.4736
2054 1 14.4973 16.3094 19.9337 -8.137
2309 3 14.4973 14.4973 21.7459 -6.38666
2560 3 16.3094 16.3094 21.7459 -6.42205
2803 2 1.81216 0 23.5581 -7.06882
3054 1 0 1.81216 23.5581 -8.08732
3309 2 0 0 25.3702 -7.08837
3560 3 1.81216 1.81216 25.3702 -6.43654
39 3 5.43647 1.81216 25.3702 -6.39711
38 2 3.62432 1.81216 23.5581 -7.00647
295 2 7.24863 0 25.3702 -6.98434
1054 2 7.24863 1.81216 23.5581 -6.92367
3805 3 3.62432 0 25.3702 -6.44372
3804 3 5.43647 0 23.5581 -6.59549
513 1 9.06079 1.81216 25.3702 -7.93452
806 1 10.8729 0 25.3702 -8.0138
805 1 9.06079 0 23.5581 -8.10437
2055 1 10.8729 1.81216 23.5581 -7.9884
1055 1 12.6851 1.81216 25.3702 -7.90099
1805 1 12.6851 0 23.5581 -7.95411
1311 2 14.4973 0 25.3702 -7.04014
1561 3 16.3094 1.81216 25.3702 -6.62966
2804 3 16.3094 0 23.5581 -6.65152
3055 2 14.4973 1.81216 23.5581 -7.06913
40 2 0 5.43647 23.5581 -7.06585
296 2 0 7.24863 25.3702 -7.10012
808 3 1.81216 7.24863 23.5581 -6.39737
1806 1 0 3.62432 25.3702 -8.07692
2056 1 1.81216 5.43647 25.3702 -8.19802
3806 2 1.81216 3.62432 23.5581 -7.06199
809 2 3.62432 7.24863 25.3702 -7.0701
807 1 5.43647 3.62432 23.5581 -8.2198
1056 1 3.62432 5.43647 23.5581 -8.04559
1312 3 7.24863 7.24863 25.3702 -6.43761
1808 1 5.43647 7.24863 23.5581 -8.26159
2057 2 7.24863 5.43647 23.5581 -7.03947
2310 3 3.62432 3.62432 25.3702 -6.42171
2561 2 5.43647 5.43647 25.3702 -7.07381
2805 1 7.24863 3.62432 25.3702 -8.01794
1809 1 10.8729 7.24863 25.3702 -8.04734
1807 3 9.06079 3.62432 23.5581 -6.40562
2807 1 9.06079 7.24863 23.5581 -8.1603
3057 2 10.8729 5.43647 23.5581 -7.13671
3056 2 9.06079 5.43647 25.3702 -6.99021
3310 1 10.8729 3.62432 25.3702 -8.01098
2806 2 12.6851 3.62432 23.5581 -7.13392
3561 1 12.6851 5.43647 25.3702 -7.99799
3809 2 12.6851 7.24863 23.5581 -7.14555
42 2 16.3094 5.43647 25.3702 -7.12138
41 2 14.4973 5.43647 23.5581 -7.23736
810 2 16.3094 7.24863 23.5581 -7.18806
2311 2 14.4973 7.24863 25.3702 -7.10915
3808 1 14.4973 3.62432 25.3702 -8.00475
3807 2 16.3094 3.62432 23.5581 -7.18833
514 1 1.81216 9.06079 25.3702 -8.06759
1057 1 0 9.06079 23.5581 -8.08198
1810 1 1.81216 10.8729 23.5581 -8.00652
2808 2 0 10.8729 25.3702 -7.10212
1058 3 5.43647 9.06079 25.3702 -6.41038
2058 3 3.62432 9.06079 23.5581 -6.37687
2809 3 5.43647 10.8729 23.5581 -6.35123
3058 3 7.24863 9.06079 23.5581 -6.43124
3311 3 3.62432 10.8729 25.3702 -6.26128
3811 1 7.24863 10.8729 25.3702 -8.24359
43 2 10.8729 9.06079 23.5581 -7.14935
297 2 10.8729 10.8729 25.3702 -7.03727
1562 3 9.06079 9.06079 25.3702 -6.46624
3810 2 9.06079 10.8729 23.5581 -7.04171
811 3 12.6851 10.8729 23.5581 -6.63925
2059 2 12.6851 9.06079 25.3702 -7.03137
812 3 14.4973 10.8729 25.3702 -6.62723
1059 3 14.4973 9.06079 23.5581 -6.76248
1811 2 16.3094 10.8729 23.5581 -7.0087
2562 2 16.3094 9.06079 25.3702 -7.09586
2060 2 0 12.6851 23.5581 -7.11068
3059 2 1.81216 12.6851 25.3702 -7.08558
44 3 7.24863 12.6851 23.5581 -6.44764
3060 1 3.62432 12.6851 23.5581 -8.05989
3562 1 5.43647 12.6851 25.3702 -8.00391
45 2 9.06079 12.6851 25.3702 -7.01549
1060 3 10.8729 12.6851 23.5581 -6.60707
515 1 12.6851 12.6851 25.3702 -8.44273
1061 3 16.3094 12.6851 25.3702 -6.5124
2061 3 14.4973 12.6851 23.5581 -6.52379
1313 3 0 14.4973 25.3702 -6.61568
1563 3 1.81216 16.3094 25.3702 -6.43477
2810 1 1.81216 14.4973 23.5581 -8.19066
3061 2 0 16.3094 23.5581 -6.97592
46 1 3.62432 16.3094 23.5581 -8.14297
1062 3 7.24863 16.3094 23.5581 -6.39377
1812 1 3.62432 14.4973 25.3702 -7.87474
2062 1 5.43647 16.3094 25.3702 -8.06652
2312 3 7.24863 14.4973 25.3702 -6.30852
3812 1 5.43647 14.4973 23.5581 -8.13757
813 2 9.06079 14.4973 23.5581 -6.98029
2063 1 10.8729 16.3094 23.5581 -8.13358
2563 1 9.06079 16.3094 25.3702 -8.29203
2811 2 10.8729 14.4973 25.3702 -6.96881
1813 1 12.6851 14.4973 23.5581 -8.30074
3062 1 12.6851 16.3094 25.3702 -8.26734
2812 3 16.3094 14.4973 23.5581 -6.53365
3063 3 14.4973 16.3094 23.5581 -6.43316
3312 3 14.4973 14.4973 25.3702 -6.45229
3563 2 16.3094 16.3094 25.3702 -6.99447
751 1 1.81216 0 30.8067 -8.22277
47 1 0 1.81216 27.1824 -8.14424
298 3 0 0 28.9945 -6.41222
548 1 1.81216 1.81216 28.9945 -8.12173
1063 3 0 1.81216 30.8067 -6.46245
3813 3 1.81216 0 27.1824 -6.36454
299 1 5.43647 0 27.1824 -8.0443
549 1 3.62432 1.81216 27.1824 -8.21846
1064 1 7.24863 1.81216 27.1824 -8.00976
1314 3 3.62432 0 28.9945 -6.25815
1564 1 5.43647 1.81216 28.9945 -7.97871
1814 2 5.43647 0 30.8067 -6.96938
2064 1 3.62432 1.81216 30.8067 -8.11215
2313 2 7.24863 0 28.9945 -7.10179
3064 1 7.24863 1.81216 30.8067 -8.16786
752 3 9.06079 0 27.1824 -6.5187
48 3 10.8729 1.81216 30.8067 -6.59151
1565 3 10.8729 1.81216 27.1824 -6.47128
2564 2 9.06079 1.81216 28.9945 -6.97696
2813 1 9.06079 0 30.8067 -8.17996
3313 3 10.8729 0 28.9945 -6.6243
1315 2 12.6851 0 27.1824 -7.06808
3564 3 12.6851 1.81216 28.9945 -6.62243
3814 2 12.6851 0 30.8067 -6.98367
753 2 16.3094 0 30.8067 -7.04515
300 1 14.4973 0 28.9945 -8.09961
550 1 16.3094 1.81216 28.9945 -7.92849
1065 2 14.4973 1.81216 30.8067 -7.09811
1815 2 16.3094 0 27.1824 -7.16996
2065 1 14.4973 1.81216 27.1824 -7.97179
755 2 1.81216 7.24863 27.1824 -7.02202
1316 2 0 3.62432 28.9945 -7.0419
1566 3 1.81216 5.43647 28.9945 -6.65113
1816 2 1.81216 3.62432 30.8067 -6.98421
2066 2 0 5.43647 30.8067 -7.15421