ITEM: TIMESTEP
0
ITEM: NUMBER OF ATOMS
4000
ITEM: BOX BOUNDS pp pp pp
0.0000000000000000e+00 3.6243159999999996e+01
0.0000000000000000e+00 3.6243159999999996e+01
0.0000000000000000e+00 3.6243159999999996e+01
ITEM: ATOMS id type x y z c_peratom
267 3 0 0 0 -6.53346
516 2 1.81216 1.81216 0 -6.97691
767 1 1.81216 0 1.81216 -8.15485
1016 3 0 1.81216 1.81216 -6.4163
1267 1 0 0 3.62432 -7.9137
1517 1 1.81216 1.81216 3.62432 -8.12048
1268 3 3.62432 0 0 -6.53135
1518 3 5.43647 1.81216 0 -6.51514
1767 2 5.43647 0 1.81216 -7.05776
2017 3 3.62432 1.81216 1.81216 -6.48301
2266 1 3.62432 0 3.62432 -7.97685
2267 2 7.24863 0 0 -7.10574
2517 2 5.43647 1.81216 3.62432 -6.9728
3017 1 7.24863 1.81216 1.81216 -8.18059
3266 2 7.24863 0 3.62432 -7.03954
1 3 10.8729 1.81216 1.81216 -6.50599
268 2 10.8729 0 3.62432 -7.03575
2518 2 9.06079 1.81216 0 -7.02719
2766 2 9.06079 0 1.81216 -7.08808
3267 3 10.8729 0 0 -6.51201
3517 1 9.06079 1.81216 3.62432 -8.37916
517 2 12.6851 1.81216 3.62432 -6.97223
3518 1 12.6851 1.81216 0 -8.16481
3767 3 12.6851 0 1.81216 -6.40304
269 2 14.4973 0 0 -6.96473
518 1 16.3094 1.81216 0 -8.06257
768 1 16.3094 0 1.81216 -7.93137
1017 1 14.4973 1.81216 1.81216 -8.05266
1269 2 14.4973 0 3.62432 -6.9728
1519 3 16.3094 1.81216 3.62432 -6.44392
1270 3 0 3.62432 0 -6.53993
1520 2 1.81216 5.43647 0 -7.02819
1768 1 1.81216 3.62432 1.81216 -8.34669
2018 2 0 5.43647 1.81216 -7.14077
2271 1 0 7.24863 0 -8.08854
2268 2 0 3.62432 3.62432 -7.04141
2519 2 1.81216 5.43647 3.62432 -7.04194
2768 1 1.81216 7.24863 1.81216 -8.00477
3270 1 0 7.24863 3.62432 -7.99173
2 3 7.24863 5.43647 1.81216 -6.47882
273 2 7.24863 7.24863 0 -7.03048
272 1 3.62432 7.24863 3.62432 -7.95669
270 2 7.24863 3.62432 3.62432 -6.98085
1273 1 7.24863 7.24863 3.62432 -8.08714
2269 3 3.62432 3.62432 0 -6.57575
2520 1 5.43647 5.43647 0 -8.40601
2767 3 5.43647 3.62432 1.81216 -6.5288
3018 3 3.62432 5.43647 1.81216 -6.48554
3271 3 3.62432 7.24863 0 -6.51149
3269 1 7.24863 3.62432 0 -8.23253
3268 3 3.62432 3.62432 3.62432 -6.54528
3519 2 5.43647 5.43647 3.62432 -7.01336
3769 2 5.43647 7.24863 1.81216 -6.9809
271 3 10.8729 3.62432 0 -6.59332
519 1 9.06079 5.43647 3.62432 -8.34555
770 1 9.06079 7.24863 1.81216 -8.21796
1018 2 10.8729 5.43647 1.81216 -7.06992
1274 2 10.8729 7.24863 0 -7.07926
1271 3 10.8729 3.62432 3.62432 -6.39532
2272 2 10.8729 7.24863 3.62432 -7.01189
3520 2 9.06079 5.43647 0 -7.07762
3768 3 9.06079 3.62432 1.81216 -6.5375
520 2 12.6851 5.43647 0 -7.01313
769 3 12.6851 3.62432 1.81216 -6.44625
1521 1 12.6851 5.43647 3.62432 -8.23423
1770 3 12.6851 7.24863 1.81216 -6.51123
1272 1 14.4973 3.62432 0 -7.98821
1522 2 16.3094 5.43647 0 -7.00453
1769 2 16.3094 3.62432 1.81216 -6.95637
2019 3 14.4973 5.43647 1.81216 -6.40936
2273 3 14.4973 7.24863 0 -6.37473
2270 1 14.4973 3.62432 3.62432 -8.15643
2521 3 16.3094 5.43647 3.62432 -6.37436
2769 1 16.3094 7.24863 1.81216 -8.21848
3272 3 14.4973 7.24863 3.62432 -6.28294
274 1 0 10.8729 3.62432 -8.05844
2522 1 1.81216 9.06079 0 -8.0406
3019 2 0 9.06079 1.81216 -7.15845
3273 3 0 10.8729 0 -6.54686
3521 1 1.81216 9.06079 3.62432 -7.89629
3770 1 1.81216 10.8729 1.81216 -8.12634
3 2 3.62432 9.06079 1.81216 -7.1533
275 1 3.62432 10.8729 0 -7.95525
521 1 5.43647 9.06079 3.62432 -8.06181
771 1 5.43647 10.8729 1.81216 -8.04827
1019 3 7.24863 9.06079 1.81216 -6.38173
1276 1 7.24863 10.8729 0 -8.20242
1275 2 3.62432 10.8729 3.62432 -7.02958
2274 2 7.24863 10.8729 3.62432 -6.97173
3522 2 5.43647 9.06079 0 -7.03207
522 3 9.06079 9.06079 0 -6.45802
1523 3 9.06079 9.06079 3.62432 -6.50237
1771 1 9.06079 10.8729 1.81216 -8.24892
2020 2 10.8729 9.06079 1.81216 -7.07205
2275 1 10.8729 10.8729 0 -8.18097
3274 2 10.8729 10.8729 3.62432 -7.04649
1524 1 12.6851 9.06079 0 -8.07113
2523 2 12.6851 9.06079 3.62432 -7.03351
2770 1 12.6851 10.8729 1.81216 -8.17948
276 1 14.4973 10.8729 3.62432 -8.02674
2524 1 16.3094 9.06079 0 -8.05318
3020 3 14.4973 9.06079 1.81216 -6.29374
3275 2 14.4973 10.8729 0 -7.00246
3523 1 16.3094 9.06079 3.62432 -7.9704
3771 1 16.3094 10.8729 1.81216 -8.02104
4 3 0 12.6851 1.81216 -6.56225
523 2 1.81216 12.6851 3.62432 -6.99297
3524 2 1.81216 12.6851 0 -6.9817
524 1 5.43647 12.6851 0 -8.09623
1020 3 3.62432 12.6851 1.81216 -6.38988
1525 1 5.43647 12.6851 3.62432 -8.17696
2021 3 7.24863 12.6851 1.81216 -6.38121
1526 2 9.06079 12.6851 0 -6.90374
2525 3 9.06079 12.6851 3.62432 -6.5768
3021 2 10.8729 12.6851 1.81216 -7.07465
2526 2 12.6851 12.6851 0 -7.01466
3525 3 12.6851 12.6851 3.62432 -6.58036
5 3 14.4973 12.6851 1.81216 -6.46105
525 1 16.3094 12.6851 3.62432 -7.93451
3526 3 16.3094 12.6851 0 -6.51468
277 1 0 14.4973 0 -8.32283
526 2 1.81216 16.3094 0 -7.02576
772 2 1.81216 14.4973 1.81216 -7.05075
1021 2 0 16.3094 1.81216 -7.06281
1277 3 0 14.4973 3.62432 -6.63202
1527 1 1.81216 16.3094 3.62432 -8.36391
1278 1 3.62432 14.4973 0 -8.25028
1528 2 5.43647 16.3094 0 -6.98322
1772 1 5.43647 14.4973 1.81216 -8.07066
2022 2 3.62432 16.3094 1.81216 -7.05557
2277 3 7.24863 14.4973 0 -6.44144
2276 3 3.62432 14.4973 3.62432 -6.5343
2527 2 5.43647 16.3094 3.62432 -7.02171
3022 1 7.24863 16.3094 1.81216 -8.33577
3276 3 7.24863 14.4973 3.62432 -6.45699
6 3 10.8729 16.3094 1.81216 -6.52132
278 2 10.8729 14.4973 3.62432 -7.10244
2528 3 9.06079 16.3094 0 -6.40357
2771 3 9.06079 14.4973 1.81216 -6.54385
3277 1 10.8729 14.4973 0 -8.40497
3527 2 9.06079 16.3094 3.62432 -7.05754
527 2 12.6851 16.3094 3.62432 -7.07242
3528 3 12.6851 16.3094 0 -6.47569
3772 2 12.6851 14.4973 1.81216 -7.01865
279 3 14.4973 14.4973 0 -6.58058
528 3 16.3094 16.3094 0 -6.55736
773 2 16.3094 14.4973 1.81216 -6.93903
1022 2 14.4973 16.3094 1.81216 -7.06016
1279 1 14.4973 14.4973 3.62432 -8.31813
1529 3 16.3094 16.3094 3.62432 -6.49307
1773 1 1.81216 0 5.43647 -8.00585
2023 3 0 1.81216 5.43647 -6.47841
2278 2 0 0 7.24863 -7.02917
2529 2 1.81216 1.81216 7.24863 -7.10216
7 3 7.24863 1.81216 5.43647 -6.38376
2773 1 3.62432 0 7.24863 -8.01762
2772 1 5.43647 0 5.43647 -8.03834
3024 1 5.43647 1.81216 7.24863 -8.02032
3023 2 3.62432 1.81216 5.43647 -7.102
3278 1 7.24863 0 7.24863 -8.05689
1023 2 10.8729 1.81216 5.43647 -7.13348
3529 1 9.06079 1.81216 7.24863 -8.04419
3774 1 10.8729 0 7.24863 -8.10134
3773 2 9.06079 0 5.43647 -7.01065
8 1 12.6851 1.81216 7.24863 -8.04715
774 1 12.6851 0 5.43647 -8.06661
280 1 14.4973 0 7.24863 -8.32904
529 2 16.3094 1.81216 7.24863 -7.02114
1774 3 16.3094 0 5.43647 -6.42975
2024 2 14.4973 1.81216 5.43647 -7.06722
775 2 0 3.62432 7.24863 -7.12876
1024 3 1.81216 5.43647 7.24863 -6.49251
2774 2 1.81216 3.62432 5.43647 -7.0966
3025 2 0 5.43647 5.43647 -7.15919
3279 3 0 7.24863 7.24863 -6.50869
3776 1 1.81216 7.24863 5.43647 -8.10117
9 2 3.62432 5.43647 5.43647 -7.06481
281 1 7.24863 7.24863 7.24863 -7.99078
777 1 5.43647 7.24863 5.43647 -8.0994
1025 2 7.24863 5.43647 5.43647 -7.06802
1280 3 3.62432 3.62432 7.24863 -6.47288
1530 2 5.43647 5.43647 7.24863 -6.99932
1775 3 7.24863 3.62432 7.24863 -6.38794
3777 3 3.62432 7.24863 7.24863 -6.39128
3775 1 5.43647 3.62432 5.43647 -8.29357
778 1 10.8729 7.24863 7.24863 -8.02301
776 3 9.06079 3.62432 5.43647 -6.34569
1777 3 9.06079 7.24863 5.43647 -6.38122
2026 3 10.8729 5.43647 5.43647 -6.23013
2025 1 9.06079 5.43647 7.24863 -8.08331
2279 1 10.8729 3.62432 7.24863 -7.97088
1776 1 12.6851 3.62432 5.43647 -7.94531
2530 1 12.6851 5.43647 7.24863 -7.95732
2777 1 12.6851 7.24863 5.43647 -7.99234
1281 2 14.4973 7.24863 7.24863 -7.04645
2776 2 14.4973 3.62432 7.24863 -6.96927
2775 3 16.3094 3.62432 5.43647 -6.47539
3027 1 16.3094 5.43647 7.24863 -8.11685
3026 1 14.4973 5.43647 5.43647 -8.06501
3778 3 16.3094 7.24863 5.43647 -6.20854
10 2 0 9.06079 5.43647 -7.07529
779 1 1.81216 10.8729 5.43647 -8.00158
1778 3 0 10.8729 7.24863 -6.47625
3530 1 1.81216 9.06079 7.24863 -8.13653
11 2 5.43647 9.06079 7.24863 -6.89964
1026 3 3.62432 9.06079 5.43647 -6.27207
1779 2 5.43647 10.8729 5.43647 -7.01573
2027 1 7.24863 9.06079 5.43647 -8.18411
2280 1 3.62432 10.8729 7.24863 -8.16455
2779 3 7.24863 10.8729 7.24863 -6.35948
530 3 9.06079 9.06079 7.24863 -6.35797
2778 3 9.06079 10.8729 5.43647 -6.52695
3028 2 10.8729 9.06079 5.43647 -7.06462
3280 2 10.8729 10.8729 7.24863 -6.98109
1027 3 12.6851 9.06079 7.24863 -6.45334
3779 2 12.6851 10.8729 5.43647 -6.99295
12 1 14.4973 9.06079 5.43647 -8.06607
780 1 16.3094 10.8729 5.43647 -8.02492
1531 3 16.3094 9.06079 7.24863 -6.40877
3780 1 14.4973 10.8729 7.24863 -8.24124
1028 1 0 12.6851 5.43647 -8.19284
2028 1 1.81216 12.6851 7.24863 -8.24352
2029 2 3.62432 12.6851 5.43647 -7.06366
2531 1 5.43647 12.6851 7.24863 -8.16834
3029 1 7.24863 12.6851 5.43647 -8.17334
13 3 10.8729 12.6851 5.43647 -6.66859
3030 1 9.06079 12.6851 7.24863 -8.15825
3531 3 12.6851 12.6851 7.24863 -6.57925
14 2 16.3094 12.6851 7.24863 -6.96019
1029 3 14.4973 12.6851 5.43647 -6.45522
282 3 0 14.4973 7.24863 -6.55089
531 1 1.81216 16.3094 7.24863 -8.27611
1780 3 1.81216 14.4973 5.43647 -6.45904
2030 3 0 16.3094 5.43647 -6.50504
15 1 7.24863 16.3094 5.43647 -8.31621
781 2 3.62432 14.4973 7.24863 -7.01072
1030 2 5.43647 16.3094 7.24863 -7.10215
1282 2 7.24863 14.4973 7.24863 -7.04351
2780 3 5.43647 14.4973 5.43647 -6.50559
3031 2 3.62432 16.3094 5.43647 -7.1026
1031 3 10.8729 16.3094 5.43647 -6.545
1532 3 9.06079 16.3094 7.24863 -6.40156
1781 3 10.8729 14.4973 7.24863 -6.44971
3781 2 9.06079 14.4973 5.43647 -7.00621
782 2 12.6851 14.4973 5.43647 -7.04541
2031 1 12.6851 16.3094 7.24863 -8.17531
1782 2 16.3094 14.4973 5.43647 -6.96129
2032 2 14.4973 16.3094 5.43647 -7.05526
2281 3 14.4973 14.4973 7.24863 -6.51373
2532 1 16.3094 16.3094 7.24863 -8.29455
16 2 0 1.81216 12.6851 -7.0194
2781 1 1.81216 0 9.06079 -8.15528
3032 1 0 1.81216 9.06079 -8.09563
3281 2 0 0 10.8729 -7.02693
3532 3 1.81216 1.81216 10.8729 -6.48656
3782 1 1.81216 0 12.6851 -8.25848
251 2 3.62432 0 10.8729 -7.03121
17 2 7.24863 1.81216 9.06079 -7.09722
532 2 5.43647 1.81216 10.8729 -7.05069
783 3 5.43647 0 12.6851 -6.50374
1032 3 3.62432 1.81216 12.6851 -6.4787
1283 2 7.24863 0 10.8729 -7.12297
2033 1 7.24863 1.81216 12.6851 -8.26927
3282 2 5.43647 0 9.06079 -7.05322
3533 1 3.62432 1.81216 9.06079 -8.09324
533 2 10.8729 1.81216 9.06079 -7.10224
1533 2 9.06079 1.81216 10.8729 -7.06108
1783 3 9.06079 0 12.6851 -6.40374
2282 2 10.8729 0 10.8729 -7.03228
3033 1 10.8729 1.81216 12.6851 -8.04752
3783 1 9.06079 0 9.06079 -8.12164
252 3 12.6851 0 9.06079 -6.4013
2533 3 12.6851 1.81216 10.8729 -6.46398
2782 2 12.6851 0 12.6851 -7.06861
18 3 14.4973 1.81216 12.6851 -6.55576
784 2 16.3094 0 9.06079 -6.9731
1033 3 14.4973 1.81216 9.06079 -6.41561
3283 1 14.4973 0 10.8729 -8.28536
3534 3 16.3094 1.81216 10.8729 -6.50575
3784 2 16.3094 0 12.6851 -7.01133
253 2 0 3.62432 10.8729 -7.01105
534 3 1.81216 5.43647 10.8729 -6.41665
785 3 1.81216 3.62432 12.6851 -6.5031
1034 1 0 5.43647 12.6851 -8.15692
1286 2 0 7.24863 10.8729 -7.01498
1284 1 1.81216 3.62432 9.06079 -8.12564
1534 3 0 5.43647 9.06079 -6.52105
1786 1 1.81216 7.24863 12.6851 -8.05828
3786 3 1.81216 7.24863 9.06079 -6.48674
255 1 5.43647 7.24863 9.06079 -8.16422
1285 2 3.62432 3.62432 10.8729 -6.97061
1535 2 5.43647 5.43647 10.8729 -7.04624
1785 1 5.43647 3.62432 12.6851 -8.15852
1784 3 5.43647 3.62432 9.06079 -6.52799
2035 1 3.62432 5.43647 12.6851 -8.15661
2034 1 3.62432 5.43647 9.06079 -8.27713
2285 2 3.62432 7.24863 10.8729 -7.03124
2284 3 7.24863 3.62432 10.8729 -6.52118
2534 2 7.24863 5.43647 9.06079 -7.05824
2785 2 5.43647 7.24863 12.6851 -7.05088
3034 2 7.24863 5.43647 12.6851 -7.09888
3286 3 7.24863 7.24863 10.8729 -6.43109
256 3 10.8729 7.24863 10.8729 -6.47019
19 2 10.8729 5.43647 12.6851 -7.07388
787 1 9.06079 7.24863 9.06079 -7.99912
2283 1 9.06079 3.62432 9.06079 -7.98202
2535 1 9.06079 5.43647 10.8729 -8.17211
2783 2 9.06079 3.62432 12.6851 -7.06174
3035 2 10.8729 5.43647 9.06079 -7.07074
3284 1 10.8729 3.62432 10.8729 -8.12255
3787 2 9.06079 7.24863 12.6851 -7.01535
788 3 12.6851 7.24863 12.6851 -6.60876
1287 1 12.6851 7.24863 9.06079 -8.2313
2784 3 12.6851 3.62432 9.06079 -6.38931
3535 3 12.6851 5.43647 10.8729 -6.54484
3785 2 12.6851 3.62432 12.6851 -7.07681
254 1 14.4973 3.62432 10.8729 -8.47547
535 3 16.3094 5.43647 10.8729 -6.5901
786 3 16.3094 3.62432 12.6851 -6.5971
1035 2 14.4973 5.43647 12.6851 -7.01493
1288 3 14.4973 7.24863 10.8729 -6.6281
1788 3 16.3094 7.24863 12.6851 -6.56399
1787 2 16.3094 7.24863 9.06079 -7.0411
3285 3 16.3094 3.62432 9.06079 -6.50395
3536 2 14.4973 5.43647 9.06079 -6.97194
20 1 0 9.06079 9.06079 -8.22662
1536 2 1.81216 9.06079 10.8729 -7.02736
2036 2 0 9.06079 12.6851 -7.10618
2287 3 0 10.8729 10.8729 -6.56466
2286 2 1.81216 10.8729 9.06079 -6.96273
2786 2 1.81216 10.8729 12.6851 -7.06833
257 3 7.24863 10.8729 10.8729 -6.31854
21 3 7.24863 9.06079 12.6851 -6.4516
536 3 3.62432 9.06079 9.06079 -6.413
1036 3 7.24863 9.06079 9.06079 -6.30189
2536 1 5.43647 9.06079 10.8729 -8.24955
2787 3 5.43647 10.8729 9.06079 -6.35887
3036 3 3.62432 9.06079 12.6851 -6.47219
3287 1 3.62432 10.8729 10.8729 -8.3246
3788 1 5.43647 10.8729 12.6851 -8.02209
789 2 9.06079 10.8729 12.6851 -6.92771
1037 3 10.8729 9.06079 12.6851 -6.58037
1289 3 10.8729 10.8729 10.8729 -6.46636
1537 1 10.8729 9.06079 9.06079 -8.12941
3288 1 9.06079 10.8729 9.06079 -8.32402
3537 1 9.06079 9.06079 10.8729 -8.28138
537 3 12.6851 9.06079 10.8729 -6.56049
1789 3 12.6851 10.8729 12.6851 -6.54714
3789 2 12.6851 10.8729 9.06079 -6.97642
258 1 16.3094 10.8729 9.06079 -8.39961
1538 3 16.3094 9.06079 10.8729 -6.64427
2038 3 14.4973 9.06079 12.6851 -6.50484
2037 2 14.4973 9.06079 9.06079 -6.97304
2288 2 14.4973 10.8729 10.8729 -6.97873
2788 3 16.3094 10.8729 12.6851 -6.49759
2538 3 1.81216 12.6851 10.8729 -6.62676
2537 3 0 12.6851 9.06079 -6.54227
3037 1 0 12.6851 12.6851 -8.23441
22 2 3.62432 12.6851 12.6851 -7.09911
1038 1 7.24863 12.6851 12.6851 -8.10383
3038 3 3.62432 12.6851 9.06079 -6.4884
3539 3 7.24863 12.6851 9.06079 -6.39307
3538 3 5.43647 12.6851 10.8729 -6.44455
23 3 10.8729 12.6851 9.06079 -6.48337
538 3 9.06079 12.6851 10.8729 -6.40032
2039 1 10.8729 12.6851 12.6851 -8.22089
1539 2 12.6851 12.6851 10.8729 -7.06754
539 3 14.4973 12.6851 9.06079 -6.52847
2539 3 16.3094 12.6851 10.8729 -6.50038
3039 2 14.4973 12.6851 12.6851 -6.99583
24 1 0 16.3094 12.6851 -8.40216
790 2 1.81216 14.4973 9.06079 -7.04272
1039 3 0 16.3094 9.06079 -6.60129
3289 2 0 14.4973 10.8729 -6.98011
3540 2 1.81216 16.3094 10.8729 -7.11732
3790 3 1.81216 14.4973 12.6851 -6.69767
259 2 3.62432 14.4973 10.8729 -7.07825
540 2 5.43647 16.3094 10.8729 -7.14669
791 1 5.43647 14.4973 12.6851 -8.27211
1040 2 3.62432 16.3094 12.6851 -7.1503
1291 2 7.24863 14.4973 10.8729 -7.03408
1290 1 5.43647 14.4973 9.06079 -8.29355
1540 3 3.62432 16.3094 9.06079 -6.59133
2041 3 7.24863 16.3094 12.6851 -6.71468
2040 2 7.24863 16.3094 9.06079 -7.12903
1541 2 9.06079 16.3094 10.8729 -7.20192
1791 2 9.06079 14.4973 12.6851 -7.04691
1790 1 9.06079 14.4973 9.06079 -8.20442
2290 1 10.8729 14.4973 10.8729 -8.08211
2540 1 10.8729 16.3094 9.06079 -7.93438
3040 1 10.8729 16.3094 12.6851 -8.08783
2289 3 12.6851 14.4973 9.06079 -6.39663
2541 2 12.6851 16.3094 10.8729 -7.02637
2789 2 12.6851 14.4973 12.6851 -7.10857
25 1 14.4973 16.3094 12.6851 -7.97901
2790 3 16.3094 14.4973 9.06079 -6.4145
3041 1 14.4973 16.3094 9.06079 -8.05419
3290 1 14.4973 14.4973 10.8729 -8.21299
3541 1 16.3094 16.3094 10.8729 -7.95187
3791 2 16.3094 14.4973 12.6851 -7.068
260 2 0 0 14.4973 -7.04516
541 3 1.81216 1.81216 14.4973 -6.4954
792 3 1.81216 0 16.3094 -6.39183
1041 1 0 1.81216 16.3094 -8.09286
1292 3 3.62432 0 14.4973 -6.39617
1542 3 5.43647 1.81216 14.4973 -6.3555
1792 1 5.43647 0 16.3094 -8.1479
2042 2 3.62432 1.81216 16.3094 -6.99714
2291 3 7.24863 0 14.4973 -6.26961
3042 1 7.24863 1.81216 16.3094 -8.00142
26 2 10.8729 1.81216 16.3094 -7.06994
2542 1 9.06079 1.81216 14.4973 -7.92053
2791 1 9.06079 0 16.3094 -7.85058
3291 1 10.8729 0 14.4973 -7.918
3542 1 12.6851 1.81216 14.4973 -7.99022
3792 1 12.6851 0 16.3094 -7.94721
261 2 14.4973 0 14.4973 -7.09559
542 2 16.3094 1.81216 14.4973 -6.99875
793 3 16.3094 0 16.3094 -6.48698
1042 1 14.4973 1.81216 16.3094 -8.10394
1293 2 0 3.62432 14.4973 -7.05646
1543 3 1.81216 5.43647 14.4973 -6.37381
1793 2 1.81216 3.62432 16.3094 -7.03456
2043 1 0 5.43647 16.3094 -8.03988
2293 1 0 7.24863 14.4973 -7.9189
2793 1 1.81216 7.24863 16.3094 -7.984
263 2 7.24863 7.24863 14.4973 -7.08646
27 3 7.24863 5.43647 16.3094 -6.49415
2292 1 3.62432 3.62432 14.4973 -8.23811
2543 2 5.43647 5.43647 14.4973 -7.09819
2792 1 5.43647 3.62432 16.3094 -8.23151
3043 2 3.62432 5.43647 16.3094 -7.04026
3293 2 3.62432 7.24863 14.4973 -7.05349
3292 3 7.24863 3.62432 14.4973 -6.42601
3794 3 5.43647 7.24863 16.3094 -6.51834
262 1 10.8729 3.62432 14.4973 -8.05007
795 2 9.06079 7.24863 16.3094 -7.06542
1043 2 10.8729 5.43647 16.3094 -7.08729
1295 3 10.8729 7.24863 14.4973 -6.686
3543 1 9.06079 5.43647 14.4973 -8.30537
3793 2 9.06079 3.62432 16.3094 -7.04701
543 2 12.6851 5.43647 14.4973 -7.06261
794 3 12.6851 3.62432 16.3094 -6.52948
1795 2 12.6851 7.24863 16.3094 -7.01514
1294 2 14.4973 3.62432 14.4973 -7.0583
1544 2 16.3094 5.43647 14.4973 -7.05319
1794 2 16.3094 3.62432 16.3094 -6.97657
2044 3 14.4973 5.43647 16.3094 -6.54415
2294 1 14.4973 7.24863 14.4973 -8.29705
2794 1 16.3094 7.24863 16.3094 -7.92767
2544 1 1.81216 9.06079 14.4973 -8.13464
3044 2 0 9.06079 16.3094 -7.03476
3294 3 0 10.8729 14.4973 -6.55066
3795 2 1.81216 10.8729 16.3094 -7.11011
264 2 3.62432 10.8729 14.4973 -7.14441
28 2 3.62432 9.06079 16.3094 -7.10681
796 3 5.43647 10.8729 16.3094 -6.54513
1044 1 7.24863 9.06079 16.3094 -8.17743
1296 1 7.24863 10.8729 14.4973 -7.96175
3544 1 5.43647 9.06079 14.4973 -8.17716
544 2 9.06079 9.06079 14.4973 -6.98778
1796 3 9.06079 10.8729 16.3094 -6.29978
2045 1 10.8729 9.06079 16.3094 -8.33138
2295 3 10.8729 10.8729 14.4973 -6.47386
1545 2 12.6851 9.06079 14.4973 -6.9469
2795 2 12.6851 10.8729 16.3094 -6.98009
2545 1 16.3094 9.06079 14.4973 -8.13019
3045 3 14.4973 9.06079 16.3094 -6.39097
3295 1 14.4973 10.8729 14.4973 -8.36168
3796 3 16.3094 10.8729 16.3094 -6.33443
29 3 0 12.6851 16.3094 -6.45103
3545 2 1.81216 12.6851 14.4973 -7.10646
545 2 5.43647 12.6851 14.4973 -7.05714
1045 2 3.62432 12.6851 16.3094 -7.1406
2046 1 7.24863 12.6851 16.3094 -8.10558
1546 1 9.06079 12.6851 14.4973 -8.09126
3046 1 10.8729 12.6851 16.3094 -8.11245
2546 3 12.6851 12.6851 14.4973 -6.48251
30 3 14.4973 12.6851 16.3094 -6.50041
3546 1 16.3094 12.6851 14.4973 -8.17094
265 2 0 14.4973 14.4973 -7.05334
546 2 1.81216 16.3094 14.4973 -7.12852
797 1 1.81216 14.4973 16.3094 -8.12028
1046 1 0 16.3094 16.3094 -8.14305
1297 2 3.62432 14.4973 14.4973 -7.09433
1547 3 5.43647 16.3094 14.4973 -6.64186
1797 1 5.43647 14.4973 16.3094 -8.21224
2047 3 3.62432 16.3094 16.3094 -6.55834
2296 3 7.24863 14.4973 14.4973 -6.4579
3047 3 7.24863 16.3094 16.3094 -6.5678
31 1 10.8729 16.3094 16.3094 -8.11618
2547 2 9.06079 16.3094 14.4973 -7.07374
2796 3 9.06079 14.4973 16.3094 -6.34635
3296 2 10.8729 14.4973 14.4973 -7.02527
3547 2 12.6851 16.3094 14.4973 -7.00435
3797 2 12.6851 14.4973 16.3094 -7.09472
266 1 14.4973 14.4973 14.4973 -8.13878
547 1 16.3094 16.3094 14.4973 -8.00586
798 3 16.3094 14.4973 16.3094 -6.44577
1047 1 14.4973 16.3094 16.3094 -8.11109
1298 3 0 0 18.1216 -6.41493
1548 1 1.81216 1.81216 18.1216 -8.16124
1798 2 1.81216 0 19.9337 -7.11204
2048 2 0 1.81216 19.9337 -7.03666
2297 1 0 0 21.7459 -8.10854
2548 1 1.81216 1.81216 21.7459 -8.01173
32 2 7.24863 1.81216 19.9337 -7.09784
283 2 7.24863 0 21.7459 -6.98792
2298 1 3.62432 0 18.1216 -8.04425
2549 2 5.43647 1.81216 18.1216 -7.10147
2797 1 5.43647 0 19.9337 -7.98612
3048 2 3.62432 1.81216 19.9337 -7.17026
3298 1 7.24863 0 18.1216 -7.85461
3297 1 3.62432 0 21.7459 -7.9902
3548 3 5.43647 1.81216 21.7459 -6.55567
501 3 9.06079 1.81216 21.7459 -6.51355
284 2 10.8729 0 18.1216 -7.08732
1048 2 10.8729 1.81216 19.9337 -7.05524
1299 1 10.8729 0 21.7459 -8.16145
3549 1 9.06079 1.81216 18.1216 -8.14054
3798 2 9.06079 0 19.9337 -7.06285
502 1 12.6851 1.81216 18.1216 -8.20968
799 3 12.6851 0 19.9337 -6.53266
1549 2 12.6851 1.81216 21.7459 -7.10063
1300 2 14.4973 0 18.1216 -6.9889
1550 1 16.3094 1.81216 18.1216 -8.22522
1799 2 16.3094 0 19.9337 -7.12617
2049 2 14.4973 1.81216 19.9337 -7.03362
2299 1 14.4973 0 21.7459 -8.12079
2550 2 16.3094 1.81216 21.7459 -7.09892
287 2 0 7.24863 21.7459 -7.07007
2300 3 0 3.62432 18.1216 -6.41825
2551 1 1.81216 5.43647 18.1216 -8.0771
2798 2 1.81216 3.62432 19.9337 -7.06186
3049 2 0 5.43647 19.9337 -7.07495
3302 3 0 7.24863 18.1216 -6.57501
3299 3 0 3.62432 21.7459 -6.46188
3550 3 1.81216 5.43647 21.7459 -6.63886
3800 2 1.81216 7.24863 19.9337 -7.05468
503 2 5.43647 5.43647 21.7459 -7.15897
33 2 3.62432 5.43647 19.9337 -7.11723
288 1 3.62432 7.24863 18.1216 -8.0679
286 2 7.24863 3.62432 18.1216 -7.03669
285 2 3.62432 3.62432 21.7459 -7.15521
801 1 5.43647 7.24863 19.9337 -7.94693
1049 1 7.24863 5.43647 19.9337 -7.9192
1304 1 7.24863 7.24863 18.1216 -8.09554
1303 2 3.62432 7.24863 21.7459 -7.01669
1301 2 7.24863 3.62432 21.7459 -7.05606
2303 1 7.24863 7.24863 21.7459 -8.10161
3300 2 3.62432 3.62432 18.1216 -7.11335
3551 3 5.43647 5.43647 18.1216 -6.43608
3799 1 5.43647 3.62432 19.9337 -8.22941
504 1 9.06079 5.43647 18.1216 -8.25116
800 3 9.06079 3.62432 19.9337 -6.5023
1302 2 10.8729 3.62432 18.1216 -7.02527
1551 1 9.06079 5.43647 21.7459 -8.12731
1801 3 9.06079 7.24863 19.9337 -6.47813
2050 3 10.8729 5.43647 19.9337 -6.54998
2304 3 10.8729 7.24863 18.1216 -6.59782
2301 3 10.8729 3.62432 21.7459 -6.47305
3303 2 10.8729 7.24863 21.7459 -6.99962
1552 3 12.6851 5.43647 18.1216 -6.64095
1800 3 12.6851 3.62432 19.9337 -6.64868
2552 3 12.6851 5.43647 21.7459 -6.61863
2800 2 12.6851 7.24863 19.9337 -6.97722
289 1 14.4973 7.24863 21.7459 -8.17947
2302 3 14.4973 3.62432 18.1216 -6.53759
2553 3 16.3094 5.43647 18.1216 -6.40793
2799 3 16.3094 3.62432 19.9337 -6.49736
3050 2 14.4973 5.43647 19.9337 -6.95328
3304 1 14.4973 7.24863 18.1216 -8.25681
3301 2 14.4973 3.62432 21.7459 -7.10323
3552 1 16.3094 5.43647 21.7459 -8.16986
3801 3 16.3094 7.24863 19.9337 -6.29404
505 1 1.81216 9.06079 21.7459 -8.14237
34 2 0 9.06079 19.9337 -7.06589
290 3 0 10.8729 18.1216 -6.58497
802 3 1.81216 10.8729 19.9337 -6.49809
1305 3 0 10.8729 21.7459 -6.55289
3553 2 1.81216 9.06079 18.1216 -7.06679
506 2 5.43647 9.06079 18.1216 -7.04447
1050 1 3.62432 9.06079 19.9337 -8.14192
1306 2 3.62432 10.8729 18.1216 -7.08842
1553 3 5.43647 9.06079 21.7459 -6.3855
1802 3 5.43647 10.8729 19.9337 -6.52511
2051 2 7.24863 9.06079 19.9337 -6.94914
2306 3 7.24863 10.8729 18.1216 -6.47759
2305 1 3.62432 10.8729 21.7459 -8.29526
3305 1 7.24863 10.8729 21.7459 -8.21166
291 3 10.8729 10.8729 21.7459 -6.38814
1554 2 9.06079 9.06079 18.1216 -6.94321
2554 2 9.06079 9.06079 21.7459 -7.06151
2801 3 9.06079 10.8729 19.9337 -6.45129
3051 3 10.8729 9.06079 19.9337 -6.51352
3306 1 10.8729 10.8729 18.1216 -8.06799
2555 3 12.6851 9.06079 18.1216 -6.42586
3554 3 12.6851 9.06079 21.7459 -6.4886
3802 1 12.6851 10.8729 19.9337 -8.1107
507 1 16.3094 9.06079 21.7459 -7.99353
35 1 14.4973 9.06079 19.9337 -7.93624
292 2 14.4973 10.8729 18.1216 -6.93618
803 1 16.3094 10.8729 19.9337 -8.10229
1307 1 14.4973 10.8729 21.7459 -7.91903
3555 1 16.3094 9.06079 18.1216 -8.10372
508 1 1.81216 12.6851 18.1216 -8.1445
1051 1 0 12.6851 19.9337 -8.30726
1555 2 1.81216 12.6851 21.7459 -6.95173
1556 3 5.43647 12.6851 18.1216 -6.52676
2052 2 3.62432 12.6851 19.9337 -6.98196
2556 3 5.43647 12.6851 21.7459 -6.53809
3052 2 7.24863 12.6851 19.9337 -7.02244
36 2 10.8729 12.6851 19.9337 -6.96526
2557 1 9.06079 12.6851 18.1216 -8.13932
3556 1 9.06079 12.6851 21.7459 -8.07258
509 1 12.6851 12.6851 21.7459 -7.93814
3557 3 12.6851 12.6851 18.1216 -6.48534
510 3 16.3094 12.6851 18.1216 -6.56829
1052 2 14.4973 12.6851 19.9337 -7.08793
1557 1 16.3094 12.6851 21.7459 -8.21401
1308 3 0 14.4973 18.1216 -6.29672
1558 2 1.81216 16.3094 18.1216 -6.91612
1803 1 1.81216 14.4973 19.9337 -8.06852
2053 1 0 16.3094 19.9337 -8.02318
2307 2 0 14.4973 21.7459 -7.09869
2558 1 1.81216 16.3094 21.7459 -8.07213
37 3 7.24863 16.3094 19.9337 -6.34384
293 2 7.24863 14.4973 21.7459 -6.95233
2308 1 3.62432 14.4973 18.1216 -8.09594
2559 3 5.43647 16.3094 18.1216 -6.43384
2802 1 5.43647 14.4973 19.9337 -8.31153
3053 3 3.62432 16.3094 19.9337 -6.307
3308 2 7.24863 14.4973 18.1216 -6.97225
3307 3 3.62432 14.4973 21.7459 -6.40311
3558 1 5.43647 16.3094 21.7459 -8.21916
511 3 9.06079 16.3094 21.7459 -6.31477
294 1 10.8729 14.4973 18.1216 -8.03506
1053 1 10.8729 16.3094 19.9337 -7.87376
1309 1 10.8729 14.4973 21.7459 -7.98254
3559 1 9.06079 16.3094 18.1216 -8.08017
3803 2 9.06079 14.4973 19.9337 -7.0613
512 1 12.6851 16.3094 18.1216 -8.05083
804 3 12.6851 14.4973 19.9337 -6.3457
1559 1 12.6851 16.3094 21.7459 -8.03046
1310 2 14.4973 14.4973 18.1216 -6.98753
1560 1 16.3094 16.3094 18.1216 -8.23333
1804 3 16.3094 14.4973 19.9337 -6.58542
2054 3 14.4973 16.3094 19.9337 -6.47519
2309 2 14.4973 14.4973 21.7459 -6.98912
2560 2 16.3094 16.3094 21.7459 -7.0465
2803 1 1.81216 0 23.5581 -8.04149
3054 3 0 1.81216 23.5581 -6.29437
3309 3 0 0 25.3702 -6.32981
3560 1 1.81216 1.81216 25.3702 -7.96361
39 1 5.43647 1.81216 25.3702 -8.1771
38 2 3.62432 1.81216 23.5581 -7.12483
295 2 7.24863 0 25.3702 -7.0059
1054 2 7.24863 1.81216 23.5581 -6.97414
3805 2 3.62432 0 25.3702 -7.00259
3804 1 5.43647 0 23.5581 -8.01447
513 3 9.06079 1.81216 25.3702 -6.3632
806 1 10.8729 0 25.3702 -7.9791
805 1 9.06079 0 23.5581 -8.02499
2055 1 10.8729 1.81216 23.5581 -8.02694
1055 2 12.6851 1.81216 25.3702 -7.10291
1805 1 12.6851 0 23.5581 -7.94045
1311 2 14.4973 0 25.3702 -7.09799
1561 3 16.3094 1.81216 25.3702 -6.47513
2804 2 16.3094 0 23.5581 -7.10129
3055 2 14.4973 1.81216 23.5581 -7.11883
40 3 0 5.43647 23.5581 -6.45104
296 2 0 7.24863 25.3702 -6.88846
808 1 1.81216 7.24863 23.5581 -8.18957
1806 1 0 3.62432 25.3702 -8.14214
2056 1 1.81216 5.43647 25.3702 -7.92388
3806 1 1.81216 3.62432 23.5581 -8.11821
809 1 3.62432 7.24863 25.3702 -8.27373
807 2 5.43647 3.62432 23.5581 -7.10568
1056 2 3.62432 5.43647 23.5581 -7.14063
1312 2 7.24863 7.24863 25.3702 -6.90259
1808 3 5.43647 7.24863 23.5581 -6.48837
2057 3 7.24863 5.43647 23.5581 -6.51093
2310 2 3.62432 3.62432 25.3702 -7.05681
2561 3 5.43647 5.43647 25.3702 -6.61212
2805 3 7.24863 3.62432 25.3702 -6.53211
1809 1 10.8729 7.24863 25.3702 -8.12241
1807 1 9.06079 3.62432 23.5581 -8.29465
2807 1 9.06079 7.24863 23.5581 -8.14137
3057 3 10.8729 5.43647 23.5581 -6.42024
3056 3 9.06079 5.43647 25.3702 -6.42904
3310 3 10.8729 3.62432 25.3702 -6.37573
2806 1 12.6851 3.62432 23.5581 -8.21884
3561 2 12.6851 5.43647 25.3702 -7.02859
3809 2 12.6851 7.24863 23.5581 -7.00039
42 3 16.3094 5.43647 25.3702 -6.49153
41 2 14.4973 5.43647 23.5581 -7.08386
810 2 16.3094 7.24863 23.5581 -7.10445
2311 3 14.4973 7.24863 25.3702 -6.58599
3808 1 14.4973 3.62432 25.3702 -8.16624
3807 2 16.3094 3.62432 23.5581 -7.09748
514 3 1.81216 9.06079 25.3702 -6.50252
1057 3 0 9.06079 23.5581 -6.51225
1810 2 1.81216 10.8729 23.5581 -6.97219
2808 3 0 10.8729 25.3702 -6.33524
1058 3 5.43647 9.06079 25.3702 -6.39949
2058 2 3.62432 9.06079 23.5581 -7.01545
2809 2 5.43647 10.8729 23.5581 -6.93902
3058 1 7.24863 9.06079 23.5581 -8.08992
3311 2 3.62432 10.8729 25.3702 -6.95286
3811 1 7.24863 10.8729 25.3702 -8.08203
43 2 10.8729 9.06079 23.5581 -6.99859
297 2 10.8729 10.8729 25.3702 -7.03082
1562 3 9.06079 9.06079 25.3702 -6.33339
3810 1 9.06079 10.8729 23.5581 -8.06008
811 1 12.6851 10.8729 23.5581 -8.18867
2059 3 12.6851 9.06079 25.3702 -6.50779
812 2 14.4973 10.8729 25.3702 -7.08391
1059 2 14.4973 9.06079 23.5581 -7.08191
1811 2 16.3094 10.8729 23.5581 -7.11927
2562 1 16.3094 9.06079 25.3702 -8.12401
2060 1 0 12.6851 23.5581 -8.19551
3059 1 1.81216 12.6851 25.3702 -8.15234
44 3 7.24863 12.6851 23.5581 -6.44966
3060 3 3.62432 12.6851 23.5581 -6.53411
3562 3 5.43647 12.6851 25.3702 -6.43984
45 2 9.06079 12.6851 25.3702 -7.09069
1060 1 10.8729 12.6851 23.5581 -7.93914
515 3 12.6851 12.6851 25.3702 -6.43339
1061 2 16.3094 12.6851 25.3702 -7.13838
2061 2 14.4973 12.6851 23.5581 -7.12602
1313 2 0 14.4973 25.3702 -7.10568
1563 2 1.81216 16.3094 25.3702 -7.04446
2810 1 1.81216 14.4973 23.5581 -8.12678
3061 1 0 16.3094 23.5581 -7.97298
46 2 3.62432 16.3094 23.5581 -7.01142
1062 3 7.24863 16.3094 23.5581 -6.45766
1812 3 3.62432 14.4973 25.3702 -6.44614
2062 2 5.43647 16.3094 25.3702 -7.02106
2312 3 7.24863 14.4973 25.3702 -6.45933
3812 2 5.43647 14.4973 23.5581 -6.93313
813 1 9.06079 14.4973 23.5581 -8.26482
2063 3 10.8729 16.3094 23.5581 -6.37979
2563 2 9.06079 16.3094 25.3702 -7.03017
2811 2 10.8729 14.4973 25.3702 -7.04957
1813 1 12.6851 14.4973 23.5581 -8.02479
3062 2 12.6851 16.3094 25.3702 -7.0563
2812 2 16.3094 14.4973 23.5581 -7.06394
3063 3 14.4973 16.3094 23.5581 -6.39884
3312 1 14.4973 14.4973 25.3702 -8.17438
3563 3 16.3094 16.3094 25.3702 -6.40055
751 2 1.81216 0 30.8067 -7.09441
47 1 0 1.81216 27.1824 -7.9611
298 2 0 0 28.9945 -7.12369
548 1 1.81216 1.81216 28.9945 -7.88793
1063 3 0 1.81216 30.8067 -6.4376
3813 1 1.81216 0 27.1824 -7.90369
299 3 5.43647 0 27.1824 -6.46729
549 3 3.62432 1.81216 27.1824 -6.385
1064 1 7.24863 1.81216 27.1824 -8.3766
1314 1 3.62432 0 28.9945 -8.00439
1564 2 5.43647 1.81216 28.9945 -7.02827
1814 2 5.43647 0 30.8067 -7.10342
2064 1 3.62432 1.81216 30.8067 -7.89197
2313 3 7.24863 0 28.9945 -6.64826
3064 1 7.24863 1.81216 30.8067 -8.17525
752 3 9.06079 0 27.1824 -6.59616
48 2 10.8729 1.81216 30.8067 -7.11786
1565 1 10.8729 1.81216 27.1824 -8.36271
2564 2 9.06079 1.81216 28.9945 -7.02624
2813 2 9.06079 0 30.8067 -7.13558
3313 2 10.8729 0 28.9945 -7.17305
1315 2 12.6851 0 27.1824 -7.06241
3564 2 12.6851 1.81216 28.9945 -7.08816
3814 1 12.6851 0 30.8067 -8.16866
753 3 16.3094 0 30.8067 -6.469
300 3 14.4973 0 28.9945 -6.48944
550 3 16.3094 1.81216 28.9945 -6.45136
1065 3 14.4973 1.81216 30.8067 -6.54793
1815 1 16.3094 0 27.1824 -8.2239
2065 2 14.4973 1.81216 27.1824 -7.01131
755 2 1.81216 7.24863 27.1824 -6.892
1316 1 0 3.62432 28.9945 -7.91757
1566 3 1.81216 5.43647 28.9945 -6.25587
1816 1 1.81216 3.62432 30.8067 -7.99625
2066 1 0 5.43647 30.8067 -7.91669