ITEM: TIMESTEP
0
ITEM: NUMBER OF ATOMS
4000
ITEM: BOX BOUNDS pp pp pp
0.0000000000000000e+00 3.5848190000000002e+01
0.0000000000000000e+00 3.5848190000000002e+01
0.0000000000000000e+00 3.5848190000000002e+01
ITEM: ATOMS id type x y z c_peratom
267 1 0 0 0 -8.40269
517 1 1.79241 1.79241 0 -8.19627
768 2 1.79241 0 1.79241 -7.02342
1016 3 0 1.79241 1.79241 -6.26574
1267 3 0 0 3.58482 -6.46707
1517 1 1.79241 1.79241 3.58482 -8.56176
1268 3 3.58482 0 0 -6.54935
1518 2 5.37723 1.79241 0 -6.93576
1766 2 5.37723 0 1.79241 -7.09956
2017 3 3.58482 1.79241 1.79241 -6.44196
2266 2 3.58482 0 3.58482 -7.01985
2518 1 5.37723 1.79241 3.58482 -8.44235
2267 2 7.16964 0 0 -6.96155
2519 3 8.96205 1.79241 0 -6.3558
2767 3 8.96205 0 1.79241 -6.32022
3017 1 7.16964 1.79241 1.79241 -8.50379
3266 1 7.16964 0 3.58482 -8.18058
3517 2 8.96205 1.79241 3.58482 -6.95518
1 2 10.7545 1.79241 1.79241 -6.95895
268 1 10.7545 0 3.58482 -8.1834
518 1 12.5469 1.79241 3.58482 -8.04255
3267 1 10.7545 0 0 -8.41122
3518 3 12.5469 1.79241 0 -6.56522
3768 2 12.5469 0 1.79241 -7.02245
269 3 14.3393 0 0 -6.41381
519 3 16.1317 1.79241 0 -6.40958
769 1 16.1317 0 1.79241 -8.33302
1017 2 14.3393 1.79241 1.79241 -6.95796
1269 1 14.3393 0 3.58482 -7.95145
1519 3 16.1317 1.79241 3.58482 -6.23793
1270 1 0 3.58482 0 -8.23091
1520 3 1.79241 5.37723 0 -6.49343
1767 1 1.79241 3.58482 1.79241 -8.25546
2018 1 0 5.37723 1.79241 -8.29237
2268 2 0 3.58482 3.58482 -6.99657
2520 1 1.79241 5.37723 3.58482 -8.38351
2269 3 3.58482 3.58482 0 -6.48881
2521 2 5.37723 5.37723 0 -7.06751
2768 3 5.37723 3.58482 1.79241 -6.54112
3018 2 3.58482 5.37723 1.79241 -6.98128
3268 3 3.58482 3.58482 3.58482 -6.33517
3519 2 5.37723 5.37723 3.58482 -6.97924
2 2 7.16964 5.37723 1.79241 -6.97781
270 3 7.16964 3.58482 3.58482 -6.43221
520 1 8.96205 5.37723 3.58482 -8.57347
3269 3 7.16964 3.58482 0 -6.47618
3520 2 8.96205 5.37723 0 -6.90947
3769 3 8.96205 3.58482 1.79241 -6.48483
271 1 10.7545 3.58482 0 -8.41734
521 1 12.5469 5.37723 0 -8.55223
770 2 12.5469 3.58482 1.79241 -6.92948
1018 3 10.7545 5.37723 1.79241 -6.43057
1271 3 10.7545 3.58482 3.58482 -6.40129
1521 1 12.5469 5.37723 3.58482 -8.33716
1272 3 14.3393 3.58482 0 -6.65971
1522 2 16.1317 5.37723 0 -7.04714
1768 2 16.1317 3.58482 1.79241 -6.98006
2019 3 14.3393 5.37723 1.79241 -6.45653
2270 1 14.3393 3.58482 3.58482 -8.17733
2522 1 16.1317 5.37723 3.58482 -8.44928
2271 3 0 7.16964 0 -6.60154
2523 3 1.79241 8.96205 0 -6.51525
2769 2 1.79241 7.16964 1.79241 -6.91573
3019 3 0 8.96205 1.79241 -6.44558
3270 3 0 7.16964 3.58482 -6.39374
3521 1 1.79241 8.96205 3.58482 -8.20684
3 1 3.58482 8.96205 1.79241 -8.36072
272 3 3.58482 7.16964 3.58482 -6.3345
522 2 5.37723 8.96205 3.58482 -7.01958
3271 2 3.58482 7.16964 0 -7.08042
3522 2 5.37723 8.96205 0 -7.01265
3770 3 5.37723 7.16964 1.79241 -6.58324
273 3 7.16964 7.16964 0 -6.50281
523 3 8.96205 8.96205 0 -6.45958
771 3 8.96205 7.16964 1.79241 -6.54444
1019 1 7.16964 8.96205 1.79241 -8.46
1273 2 7.16964 7.16964 3.58482 -7.01008
1523 3 8.96205 8.96205 3.58482 -6.42657
1274 3 10.7545 7.16964 0 -6.52303
1524 1 12.5469 8.96205 0 -8.71609
1769 2 12.5469 7.16964 1.79241 -6.89754
2020 3 10.7545 8.96205 1.79241 -6.54153
2272 2 10.7545 7.16964 3.58482 -7.01052
2524 1 12.5469 8.96205 3.58482 -8.40118
2273 2 14.3393 7.16964 0 -7.03065
2525 3 16.1317 8.96205 0 -6.44204
2770 3 16.1317 7.16964 1.79241 -6.55081
3020 3 14.3393 8.96205 1.79241 -6.53953
3272 2 14.3393 7.16964 3.58482 -6.9594
3523 3 16.1317 8.96205 3.58482 -6.45673
4 3 0 12.5469 1.79241 -6.32856
274 2 0 10.7545 3.58482 -6.92606
524 3 1.79241 12.5469 3.58482 -6.35787
3273 1 0 10.7545 0 -8.44232
3524 1 1.79241 12.5469 0 -8.36978
3771 1 1.79241 10.7545 1.79241 -8.21862
275 3 3.58482 10.7545 0 -6.40087
525 2 5.37723 12.5469 0 -7.05169
772 2 5.37723 10.7545 1.79241 -7.03696
1020 1 3.58482 12.5469 1.79241 -8.22034
1275 1 3.58482 10.7545 3.58482 -8.13636
1525 2 5.37723 12.5469 3.58482 -7.09912
1276 1 7.16964 10.7545 0 -8.28179
1526 2 8.96205 12.5469 0 -7.00286
1770 3 8.96205 10.7545 1.79241 -6.46054
2021 2 7.16964 12.5469 1.79241 -7.00659
2274 1 7.16964 10.7545 3.58482 -8.22625
2526 1 8.96205 12.5469 3.58482 -8.16319
2275 3 10.7545 10.7545 0 -6.53152
2527 2 12.5469 12.5469 0 -6.85612
2771 3 12.5469 10.7545 1.79241 -6.49306
3021 2 10.7545 12.5469 1.79241 -7.00606
3274 2 10.7545 10.7545 3.58482 -6.93668
3525 2 12.5469 12.5469 3.58482 -6.89359
5 1 14.3393 12.5469 1.79241 -8.64669
276 3 14.3393 10.7545 3.58482 -6.35579
526 1 16.1317 12.5469 3.58482 -8.26301
3275 3 14.3393 10.7545 0 -6.41624
3526 3 16.1317 12.5469 0 -6.27113
3772 2 16.1317 10.7545 1.79241 -6.95329
277 3 0 14.3393 0 -6.36075
527 3 1.79241 16.1317 0 -6.41771
773 3 1.79241 14.3393 1.79241 -6.35928
1021 2 0 16.1317 1.79241 -6.93024
1277 1 0 14.3393 3.58482 -8.30938
1527 1 1.79241 16.1317 3.58482 -8.27733
1278 1 3.58482 14.3393 0 -8.21869
1528 2 5.37723 16.1317 0 -7.13294
1771 2 5.37723 14.3393 1.79241 -7.09864
2022 2 3.58482 16.1317 1.79241 -7.02145
2276 2 3.58482 14.3393 3.58482 -7.05308
2528 2 5.37723 16.1317 3.58482 -7.10562
2277 1 7.16964 14.3393 0 -8.21962
2529 2 8.96205 16.1317 0 -6.99215
2772 2 8.96205 14.3393 1.79241 -7.07574
3022 1 7.16964 16.1317 1.79241 -7.97388
3276 1 7.16964 14.3393 3.58482 -8.00365
3527 1 8.96205 16.1317 3.58482 -8.12502
6 3 10.7545 16.1317 1.79241 -6.35073
278 3 10.7545 14.3393 3.58482 -6.28797
528 1 12.5469 16.1317 3.58482 -8.27109
3277 3 10.7545 14.3393 0 -6.50183
3528 1 12.5469 16.1317 0 -8.30289
3773 3 12.5469 14.3393 1.79241 -6.39067
279 3 14.3393 14.3393 0 -6.23364
529 1 16.1317 16.1317 0 -8.03749
774 2 16.1317 14.3393 1.79241 -6.98704
1022 1 14.3393 16.1317 1.79241 -8.20696
1279 3 14.3393 14.3393 3.58482 -6.41537
1529 2 16.1317 16.1317 3.58482 -7.05313
1772 2 1.79241 0 5.37723 -7.04675
2023 3 0 1.79241 5.37723 -6.60896
2278 2 0 0 7.16964 -7.03802
2530 3 1.79241 1.79241 7.16964 -6.66552
2774 3 3.58482 0 7.16964 -6.61981
2773 3 5.37723 0 5.37723 -6.43979
3024 2 5.37723 1.79241 7.16964 -7.11224
3023 3 3.58482 1.79241 5.37723 -6.55428
7 3 7.16964 1.79241 5.37723 -6.58264
3278 2 7.16964 0 7.16964 -7.11606
3529 2 8.96205 1.79241 7.16964 -7.15396
3774 2 8.96205 0 5.37723 -7.04735
8 1 12.5469 1.79241 7.16964 -8.21176
775 1 12.5469 0 5.37723 -8.05327
1023 1 10.7545 1.79241 5.37723 -8.13626
3775 3 10.7545 0 7.16964 -6.48354
280 3 14.3393 0 7.16964 -6.20206
530 1 16.1317 1.79241 7.16964 -8.15965
1773 1 16.1317 0 5.37723 -8.05825
2024 1 14.3393 1.79241 5.37723 -7.9446
776 3 0 3.58482 7.16964 -6.5505
1024 3 1.79241 5.37723 7.16964 -6.48433
2775 2 1.79241 3.58482 5.37723 -6.96693
3025 2 0 5.37723 5.37723 -6.89397
9 1 3.58482 5.37723 5.37723 -8.35378
1280 2 3.58482 3.58482 7.16964 -7.02653
1530 2 5.37723 5.37723 7.16964 -7.04189
3776 1 5.37723 3.58482 5.37723 -8.27038
777 2 8.96205 3.58482 5.37723 -7.04469
1025 1 7.16964 5.37723 5.37723 -8.21217
1774 2 7.16964 3.58482 7.16964 -7.1894
2025 2 8.96205 5.37723 7.16964 -7.08095
1775 1 12.5469 3.58482 5.37723 -8.01484
2026 2 10.7545 5.37723 5.37723 -6.96521
2279 1 10.7545 3.58482 7.16964 -8.14179
2531 3 12.5469 5.37723 7.16964 -6.38013
2777 1 14.3393 3.58482 7.16964 -8.37078
2776 3 16.1317 3.58482 5.37723 -6.29454
3027 2 16.1317 5.37723 7.16964 -6.9409
3026 3 14.3393 5.37723 5.37723 -6.27117
10 1 0 8.96205 5.37723 -8.26197
3279 3 0 7.16964 7.16964 -6.29382
3530 1 1.79241 8.96205 7.16964 -8.30148
3777 3 1.79241 7.16964 5.37723 -6.25138
11 2 5.37723 8.96205 7.16964 -6.93105
778 1 5.37723 7.16964 5.37723 -8.2887
1026 1 3.58482 8.96205 5.37723 -8.11196
3778 3 3.58482 7.16964 7.16964 -6.3594
281 2 7.16964 7.16964 7.16964 -7.04603
531 1 8.96205 8.96205 7.16964 -8.23612
1776 2 8.96205 7.16964 5.37723 -6.95961
2027 3 7.16964 8.96205 5.37723 -6.42555
779 3 10.7545 7.16964 7.16964 -6.2784
1027 3 12.5469 8.96205 7.16964 -6.23418
2778 1 12.5469 7.16964 5.37723 -8.2933
3028 1 10.7545 8.96205 5.37723 -8.19676
12 1 14.3393 8.96205 5.37723 -8.1895
1281 2 14.3393 7.16964 7.16964 -7.00603
1531 1 16.1317 8.96205 7.16964 -8.02448
3779 1 16.1317 7.16964 5.37723 -8.24642
780 2 1.79241 10.7545 5.37723 -7.04961
1028 1 0 12.5469 5.37723 -8.20546
1777 2 0 10.7545 7.16964 -7.07775
2028 1 1.79241 12.5469 7.16964 -8.0874
1778 2 5.37723 10.7545 5.37723 -7.01303
2029 2 3.58482 12.5469 5.37723 -7.03916
2280 1 3.58482 10.7545 7.16964 -7.94426
2532 1 5.37723 12.5469 7.16964 -8.12657
2780 3 7.16964 10.7545 7.16964 -6.28976
2779 1 8.96205 10.7545 5.37723 -8.06968
3030 3 8.96205 12.5469 7.16964 -6.25333
3029 1 7.16964 12.5469 5.37723 -8.04021
13 1 10.7545 12.5469 5.37723 -8.26185
3280 1 10.7545 10.7545 7.16964 -8.27192
3531 3 12.5469 12.5469 7.16964 -6.37834
3780 3 12.5469 10.7545 5.37723 -6.35768
14 2 16.1317 12.5469 7.16964 -7.07777
781 1 16.1317 10.7545 5.37723 -8.09834
1029 2 14.3393 12.5469 5.37723 -6.96509
3781 2 14.3393 10.7545 7.16964 -7.01968
282 3 0 14.3393 7.16964 -6.51062
532 2 1.79241 16.1317 7.16964 -7.02446
1779 2 1.79241 14.3393 5.37723 -7.05843
2030 1 0 16.1317 5.37723 -8.27749
782 2 3.58482 14.3393 7.16964 -6.99153
1030 3 5.37723 16.1317 7.16964 -6.36668
2781 2 5.37723 14.3393 5.37723 -7.08343
3031 1 3.58482 16.1317 5.37723 -8.27566
15 1 7.16964 16.1317 5.37723 -8.04976
1282 1 7.16964 14.3393 7.16964 -8.20572
1532 1 8.96205 16.1317 7.16964 -8.33642
3782 1 8.96205 14.3393 5.37723 -7.97379
783 1 12.5469 14.3393 5.37723 -8.24636
1031 1 10.7545 16.1317 5.37723 -8.07017
1780 3 10.7545 14.3393 7.16964 -6.25658
2031 1 12.5469 16.1317 7.16964 -8.28625
1781 2 16.1317 14.3393 5.37723 -7.1679
2032 2 14.3393 16.1317 5.37723 -7.12022
2281 2 14.3393 14.3393 7.16964 -7.14963
2533 2 16.1317 16.1317 7.16964 -7.25043
16 3 0 1.79241 12.5469 -6.18437
2782 1 1.79241 0 8.96205 -8.35359
3032 2 0 1.79241 8.96205 -6.95952
3281 1 0 0 10.7545 -7.99409
3532 1 1.79241 1.79241 10.7545 -8.24246
3783 1 1.79241 0 12.5469 -8.13793
251 2 3.58482 0 10.7545 -7.00796
533 3 5.37723 1.79241 10.7545 -6.6481
784 2 5.37723 0 12.5469 -6.99739
1032 3 3.58482 1.79241 12.5469 -6.336
3282 2 5.37723 0 8.96205 -7.15504
3533 2 3.58482 1.79241 8.96205 -7.06344
17 2 7.16964 1.79241 8.96205 -7.22323
1283 2 7.16964 0 10.7545 -7.11893
1533 1 8.96205 1.79241 10.7545 -8.4128
1782 1 8.96205 0 12.5469 -8.18448
2033 3 7.16964 1.79241 12.5469 -6.40226
3784 2 8.96205 0 8.96205 -7.10138
252 2 12.5469 0 8.96205 -6.96595
534 2 10.7545 1.79241 8.96205 -6.9977
2282 2 10.7545 0 10.7545 -7.05208
2534 1 12.5469 1.79241 10.7545 -8.37269
2783 3 12.5469 0 12.5469 -6.38902
3033 2 10.7545 1.79241 12.5469 -7.03079
18 2 14.3393 1.79241 12.5469 -7.01448
785 1 16.1317 0 8.96205 -8.35324
1033 3 14.3393 1.79241 8.96205 -6.26369
3283 1 14.3393 0 10.7545 -8.48845
3534 3 16.1317 1.79241 10.7545 -6.43591
3785 2 16.1317 0 12.5469 -6.89074
253 3 0 3.58482 10.7545 -6.36007
535 1 1.79241 5.37723 10.7545 -8.42361
786 2 1.79241 3.58482 12.5469 -6.90871
1034 3 0 5.37723 12.5469 -6.35671
1284 3 1.79241 3.58482 8.96205 -6.46554
1534 1 0 5.37723 8.96205 -8.44365
1285 1 3.58482 3.58482 10.7545 -8.28922
1535 1 5.37723 5.37723 10.7545 -8.27104
1784 1 5.37723 3.58482 12.5469 -8.2366
1783 3 5.37723 3.58482 8.96205 -6.65896
2035 2 3.58482 5.37723 12.5469 -6.98507
2034 3 3.58482 5.37723 8.96205 -6.42505
2284 2 7.16964 3.58482 10.7545 -7.04872
2283 2 8.96205 3.58482 8.96205 -7.15652
2536 2 8.96205 5.37723 10.7545 -7.05917
2535 2 7.16964 5.37723 8.96205 -7.13419
2784 2 8.96205 3.58482 12.5469 -7.03881
3034 2 7.16964 5.37723 12.5469 -7.02812
19 1 10.7545 5.37723 12.5469 -8.14263
2785 3 12.5469 3.58482 8.96205 -6.41158
3035 1 10.7545 5.37723 8.96205 -8.43115
3284 3 10.7545 3.58482 10.7545 -6.44822
3535 2 12.5469 5.37723 10.7545 -7.01401
3786 1 12.5469 3.58482 12.5469 -8.00803
254 2 14.3393 3.58482 10.7545 -7.01126
536 1 16.1317 5.37723 10.7545 -8.33522
787 1 16.1317 3.58482 12.5469 -8.3778
1035 1 14.3393 5.37723 12.5469 -8.16107
3285 3 16.1317 3.58482 8.96205 -6.45636
3536 2 14.3393 5.37723 8.96205 -6.98956
20 3 0 8.96205 8.96205 -6.44476
1286 3 0 7.16964 10.7545 -6.40293
1536 2 1.79241 8.96205 10.7545 -6.93218
1785 1 1.79241 7.16964 12.5469 -8.19308
2036 3 0 8.96205 12.5469 -6.30431
3787 3 1.79241 7.16964 8.96205 -6.39324
255 1 5.37723 7.16964 8.96205 -8.33488
537 2 3.58482 8.96205 8.96205 -6.9801
2285 3 3.58482 7.16964 10.7545 -6.2561
2537 1 5.37723 8.96205 10.7545 -8.27736
2786 3 5.37723 7.16964 12.5469 -6.22947
3036 1 3.58482 8.96205 12.5469 -8.05957
21 3 7.16964 8.96205 12.5469 -6.304
788 1 8.96205 7.16964 8.96205 -8.08778
1036 3 7.16964 8.96205 8.96205 -6.2328
3286 1 7.16964 7.16964 10.7545 -8.05814
3537 1 8.96205 8.96205 10.7545 -8.16101
3788 1 8.96205 7.16964 12.5469 -8.09511
256 2 10.7545 7.16964 10.7545 -7.0409
538 1 12.5469 8.96205 10.7545 -8.13131
789 2 12.5469 7.16964 12.5469 -7.0294
1037 1 10.7545 8.96205 12.5469 -8.1109
1287 3 12.5469 7.16964 8.96205 -6.38799
1537 1 10.7545 8.96205 8.96205 -8.1284
1288 2 14.3393 7.16964 10.7545 -6.97265
1538 3 16.1317 8.96205 10.7545 -6.57538
1787 2 16.1317 7.16964 12.5469 -7.01976
1786 3 16.1317 7.16964 8.96205 -6.52876
2038 3 14.3393 8.96205 12.5469 -6.50394
2037 1 14.3393 8.96205 8.96205 -8.29707
2287 2 0 10.7545 10.7545 -7.07549
2286 1 1.79241 10.7545 8.96205 -8.12263
2539 2 1.79241 12.5469 10.7545 -7.04808
2538 2 0 12.5469 8.96205 -7.07898
2787 1 1.79241 10.7545 12.5469 -8.23273
3037 2 0 12.5469 12.5469 -7.12013
22 3 3.58482 12.5469 12.5469 -6.37168
2788 1 5.37723 10.7545 8.96205 -8.18958
3038 1 3.58482 12.5469 8.96205 -7.95014
3287 1 3.58482 10.7545 10.7545 -8.04715
3538 2 5.37723 12.5469 10.7545 -6.95346
3789 3 5.37723 10.7545 12.5469 -6.26983
257 3 7.16964 10.7545 10.7545 -6.44284
539 3 8.96205 12.5469 10.7545 -6.51689
790 2 8.96205 10.7545 12.5469 -6.98357
1038 2 7.16964 12.5469 12.5469 -6.98333
3288 3 8.96205 10.7545 8.96205 -6.36345
3539 2 7.16964 12.5469 8.96205 -6.93287
23 2 10.7545 12.5469 8.96205 -6.93954
1289 1 10.7545 10.7545 10.7545 -8.32204
1539 2 12.5469 12.5469 10.7545 -7.09071
1788 3 12.5469 10.7545 12.5469 -6.42656
2039 2 10.7545 12.5469 12.5469 -7.06413
3790 2 12.5469 10.7545 8.96205 -7.00837
258 1 16.1317 10.7545 8.96205 -8.12364
540 1 14.3393 12.5469 8.96205 -8.30709
2288 1 14.3393 10.7545 10.7545 -8.35638
2540 3 16.1317 12.5469 10.7545 -6.64882
2789 3 16.1317 10.7545 12.5469 -6.66358
3039 2 14.3393 12.5469 12.5469 -7.08829
24 2 0 16.1317 12.5469 -7.03448
791 1 1.79241 14.3393 8.96205 -8.33014
1039 2 0 16.1317 8.96205 -7.03126
3289 3 0 14.3393 10.7545 -6.62574
3540 3 1.79241 16.1317 10.7545 -6.45539
3791 3 1.79241 14.3393 12.5469 -6.67384
259 1 3.58482 14.3393 10.7545 -8.45945
541 2 5.37723 16.1317 10.7545 -6.99523
792 2 5.37723 14.3393 12.5469 -7.00191
1040 3 3.58482 16.1317 12.5469 -6.65915
1290 3 5.37723 14.3393 8.96205 -6.35925
1540 3 3.58482 16.1317 8.96205 -6.43009
1291 1 7.16964 14.3393 10.7545 -8.37726
1541 1 8.96205 16.1317 10.7545 -8.34691
1790 1 8.96205 14.3393 12.5469 -8.35023
1789 3 8.96205 14.3393 8.96205 -6.43175
2041 1 7.16964 16.1317 12.5469 -8.24834
2040 2 7.16964 16.1317 8.96205 -6.90231
2290 2 10.7545 14.3393 10.7545 -6.99771
2289 1 12.5469 14.3393 8.96205 -8.38186
2542 3 12.5469 16.1317 10.7545 -6.70605
2541 3 10.7545 16.1317 8.96205 -6.39398
2790 2 12.5469 14.3393 12.5469 -7.10465
3040 2 10.7545 16.1317 12.5469 -6.97403
25 2 14.3393 16.1317 12.5469 -7.13388
2791 2 16.1317 14.3393 8.96205 -7.17154
3041 2 14.3393 16.1317 8.96205 -7.0924
3290 2 14.3393 14.3393 10.7545 -7.14178
3541 3 16.1317 16.1317 10.7545 -6.74017
3792 2 16.1317 14.3393 12.5469 -7.13306
260 1 0 0 14.3393 -8.04344
542 1 1.79241 1.79241 14.3393 -8.27282
793 1 1.79241 0 16.1317 -7.97288
1041 3 0 1.79241 16.1317 -6.26844
1292 1 3.58482 0 14.3393 -8.19884
1542 2 5.37723 1.79241 14.3393 -6.91831
1791 3 5.37723 0 16.1317 -6.3005
2042 2 3.58482 1.79241 16.1317 -6.98438
2291 1 7.16964 0 14.3393 -8.38039
2543 1 8.96205 1.79241 14.3393 -8.10368
2792 3 8.96205 0 16.1317 -6.3291
3042 3 7.16964 1.79241 16.1317 -6.27004
26 1 10.7545 1.79241 16.1317 -8.26336
3291 1 10.7545 0 14.3393 -8.15106
3542 1 12.5469 1.79241 14.3393 -8.09053
3793 1 12.5469 0 16.1317 -8.11013
261 1 14.3393 0 14.3393 -8.41199
543 3 16.1317 1.79241 14.3393 -6.40974
794 3 16.1317 0 16.1317 -6.25373
1042 3 14.3393 1.79241 16.1317 -6.23093
1293 1 0 3.58482 14.3393 -8.40512
1543 2 1.79241 5.37723 14.3393 -6.93386
1792 3 1.79241 3.58482 16.1317 -6.31635
2043 3 0 5.37723 16.1317 -6.17682
2292 2 3.58482 3.58482 14.3393 -6.97017
2544 1 5.37723 5.37723 14.3393 -8.26308
2793 2 5.37723 3.58482 16.1317 -7.06326
3043 1 3.58482 5.37723 16.1317 -8.10894
27 2 7.16964 5.37723 16.1317 -7.03265
3292 1 7.16964 3.58482 14.3393 -8.18673
3543 1 8.96205 5.37723 14.3393 -8.1451
3794 2 8.96205 3.58482 16.1317 -7.03362
262 1 10.7545 3.58482 14.3393 -8.00693
544 2 12.5469 5.37723 14.3393 -7.06099
795 3 12.5469 3.58482 16.1317 -6.494
1043 2 10.7545 5.37723 16.1317 -7.02854
1294 2 14.3393 3.58482 14.3393 -6.94681
1544 3 16.1317 5.37723 14.3393 -6.43693
1793 1 16.1317 3.58482 16.1317 -8.50159
2044 2 14.3393 5.37723 16.1317 -6.98074
2293 1 0 7.16964 14.3393 -8.14675
2545 1 1.79241 8.96205 14.3393 -8.13321
2794 1 1.79241 7.16964 16.1317 -7.96507
3044 3 0 8.96205 16.1317 -6.3068
28 1 3.58482 8.96205 16.1317 -8.25403
3293 1 3.58482 7.16964 14.3393 -8.02769
3544 2 5.37723 8.96205 14.3393 -6.83806
3795 3 5.37723 7.16964 16.1317 -6.34191
263 3 7.16964 7.16964 14.3393 -6.42906
545 2 8.96205 8.96205 14.3393 -6.93452
796 2 8.96205 7.16964 16.1317 -6.98241
1044 1 7.16964 8.96205 16.1317 -8.49128
1295 1 10.7545 7.16964 14.3393 -8.2553
1545 3 12.5469 8.96205 14.3393 -6.41739
1794 2 12.5469 7.16964 16.1317 -7.01073
2045 3 10.7545 8.96205 16.1317 -6.55345
2294 1 14.3393 7.16964 14.3393 -8.4579
2546 2 16.1317 8.96205 14.3393 -6.99192
2795 3 16.1317 7.16964 16.1317 -6.55644
3045 1 14.3393 8.96205 16.1317 -8.29559
29 2 0 12.5469 16.1317 -7.01274
3294 3 0 10.7545 14.3393 -6.41297
3545 2 1.79241 12.5469 14.3393 -6.96472
3796 3 1.79241 10.7545 16.1317 -6.49262
264 1 3.58482 10.7545 14.3393 -8.21545
546 1 5.37723 12.5469 14.3393 -8.30531
797 3 5.37723 10.7545 16.1317 -6.30759
1045 2 3.58482 12.5469 16.1317 -6.97146
1296 1 7.16964 10.7545 14.3393 -8.36919
1546 3 8.96205 12.5469 14.3393 -6.44264
1795 3 8.96205 10.7545 16.1317 -6.41234
2046 1 7.16964 12.5469 16.1317 -8.14896
2295 2 10.7545 10.7545 14.3393 -6.93421
2547 1 12.5469 12.5469 14.3393 -8.36231
2796 1 12.5469 10.7545 16.1317 -8.48374
3046 3 10.7545 12.5469 16.1317 -6.40242
30 3 14.3393 12.5469 16.1317 -6.45496
3295 2 14.3393 10.7545 14.3393 -6.9396
3546 3 16.1317 12.5469 14.3393 -6.61746
3797 3 16.1317 10.7545 16.1317 -6.46733
265 3 0 14.3393 14.3393 -6.60563
547 2 1.79241 16.1317 14.3393 -7.02976
798 1 1.79241 14.3393 16.1317 -8.45449
1046 2 0 16.1317 16.1317 -7.0093
1297 2 3.58482 14.3393 14.3393 -6.98733
1547 3 5.37723 16.1317 14.3393 -6.42009
1796 3 5.37723 14.3393 16.1317 -6.3652
2047 1 3.58482 16.1317 16.1317 -8.4482
2296 1 7.16964 14.3393 14.3393 -8.15115
2548 3 8.96205 16.1317 14.3393 -6.31731
2797 2 8.96205 14.3393 16.1317 -6.9947
3047 1 7.16964 16.1317 16.1317 -8.17317
31 2 10.7545 16.1317 16.1317 -7.02385
3296 3 10.7545 14.3393 14.3393 -6.46024
3547 1 12.5469 16.1317 14.3393 -8.2969
3798 1 12.5469 14.3393 16.1317 -8.42666
266 2 14.3393 14.3393 14.3393 -7.11885
548 2 16.1317 16.1317 14.3393 -7.11211
799 2 16.1317 14.3393 16.1317 -7.00999
1047 2 14.3393 16.1317 16.1317 -7.0114
1298 1 0 0 17.9241 -8.22424
1548 2 1.79241 1.79241 17.9241 -6.86351
1797 3 1.79241 0 19.7165 -6.27396
2048 1 0 1.79241 19.7165 -8.28676
2297 1 0 0 21.5089 -8.33468
2549 1 1.79241 1.79241 21.5089 -8.15976
2298 3 3.58482 0 17.9241 -6.36007
2550 1 5.37723 1.79241 17.9241 -8.34438
2798 2 5.37723 0 19.7165 -6.93846
3048 2 3.58482 1.79241 19.7165 -6.93935
3297 2 3.58482 0 21.5089 -6.87201
3548 3 5.37723 1.79241 21.5089 -6.5225
501 3 8.96205 1.79241 21.5089 -6.39519
32 3 7.16964 1.79241 19.7165 -6.42232
283 3 7.16964 0 21.5089 -6.63316
3298 1 7.16964 0 17.9241 -8.59123
3549 2 8.96205 1.79241 17.9241 -6.94429
3799 2 8.96205 0 19.7165 -6.94015
502 3 12.5469 1.79241 17.9241 -6.41958
284 2 10.7545 0 17.9241 -6.90251
800 1 12.5469 0 19.7165 -8.5774
1048 3 10.7545 1.79241 19.7165 -6.51252
1299 3 10.7545 0 21.5089 -6.57997
1549 2 12.5469 1.79241 21.5089 -6.91483
1300 1 14.3393 0 17.9241 -8.30589
1550 1 16.1317 1.79241 17.9241 -8.05944
1798 1 16.1317 0 19.7165 -8.25964
2049 2 14.3393 1.79241 19.7165 -6.99737
2299 3 14.3393 0 21.5089 -6.56715
2551 2 16.1317 1.79241 21.5089 -7.03256
2300 3 0 3.58482 17.9241 -6.389
2552 1 1.79241 5.37723 17.9241 -8.12447
2799 3 1.79241 3.58482 19.7165 -6.27726
3049 1 0 5.37723 19.7165 -8.26188
3299 1 0 3.58482 21.5089 -8.23547
3550 3 1.79241 5.37723 21.5089 -6.32633
503 1 5.37723 5.37723 21.5089 -8.57709
33 2 3.58482 5.37723 19.7165 -6.94858
285 3 3.58482 3.58482 21.5089 -6.38991
3300 1 3.58482 3.58482 17.9241 -8.25716
3551 2 5.37723 5.37723 17.9241 -6.9841
3800 2 5.37723 3.58482 19.7165 -6.98523
504 3 8.96205 5.37723 17.9241 -6.6236
286 1 7.16964 3.58482 17.9241 -8.33973
801 1 8.96205 3.58482 19.7165 -8.42538
1049 2 7.16964 5.37723 19.7165 -7.05134
1301 1 7.16964 3.58482 21.5089 -8.33117
1551 1 8.96205 5.37723 21.5089 -8.30824
1302 3 10.7545 3.58482 17.9241 -6.58054
1552 3 12.5469 5.37723 17.9241 -6.72645
1799 3 12.5469 3.58482 19.7165 -6.68487
2050 2 10.7545 5.37723 19.7165 -6.98116
2301 3 10.7545 3.58482 21.5089 -6.34894
2553 2 12.5469 5.37723 21.5089 -6.9559
2302 3 14.3393 3.58482 17.9241 -6.48731
2554 3 16.1317 5.37723 17.9241 -6.42976
2800 1 16.1317 3.58482 19.7165 -8.28088
3050 3 14.3393 5.37723 19.7165 -6.53967
3301 2 14.3393 3.58482 21.5089 -6.99709
3552 1 16.1317 5.37723 21.5089 -8.21575
505 1 1.79241 8.96205 21.5089 -8.11444
34 1 0 8.96205 19.7165 -8.14753
287 2 0 7.16964 21.5089 -6.99494
3302 1 0 7.16964 17.9241 -8.11023
3553 3 1.79241 8.96205 17.9241 -6.2954
3801 1 1.79241 7.16964 19.7165 -8.09818
506 2 5.37723 8.96205 17.9241 -7.00152
288 1 3.58482 7.16964 17.9241 -8.18638
802 3 5.37723 7.16964 19.7165 -6.50516
1050 2 3.58482 8.96205 19.7165 -6.93357
1303 3 3.58482 7.16964 21.5089 -6.32331
1553 1 5.37723 8.96205 21.5089 -8.42032
1304 3 7.16964 7.16964 17.9241 -6.65747
1554 3 8.96205 8.96205 17.9241 -6.60904
1800 3 8.96205 7.16964 19.7165 -6.58998
2051 2 7.16964 8.96205 19.7165 -7.04059
2303 2 7.16964 7.16964 21.5089 -6.92728
2555 1 8.96205 8.96205 21.5089 -8.48367
2304 3 10.7545 7.16964 17.9241 -6.72003
2556 3 12.5469 8.96205 17.9241 -6.62227
2801 2 12.5469 7.16964 19.7165 -7.05644
3051 3 10.7545 8.96205 19.7165 -6.6212
3303 2 10.7545 7.16964 21.5089 -6.94993
3554 1 12.5469 8.96205 21.5089 -8.55164
507 3 16.1317 8.96205 21.5089 -6.39004
35 2 14.3393 8.96205 19.7165 -6.93242
289 3 14.3393 7.16964 21.5089 -6.38067
3304 2 14.3393 7.16964 17.9241 -7.00944
3555 1 16.1317 8.96205 17.9241 -8.33044
3802 1 16.1317 7.16964 19.7165 -8.28273
508 3 1.79241 12.5469 17.9241 -6.48573
290 2 0 10.7545 17.9241 -7.03324
803 3 1.79241 10.7545 19.7165 -6.30746
1051 1 0 12.5469 19.7165 -8.33991
1305 3 0 10.7545 21.5089 -6.20795
1555 1 1.79241 12.5469 21.5089 -8.05984
1306 2 3.58482 10.7545 17.9241 -6.97548
1556 2 5.37723 12.5469 17.9241 -7.0397
1801 2 5.37723 10.7545 19.7165 -7.10926
2052 1 3.58482 12.5469 19.7165 -8.38614
2305 1 3.58482 10.7545 21.5089 -8.03426
2557 3 5.37723 12.5469 21.5089 -6.46876
2306 1 7.16964 10.7545 17.9241 -8.28756
2558 1 8.96205 12.5469 17.9241 -8.36275
2802 2 8.96205 10.7545 19.7165 -7.06757
3052 2 7.16964 12.5469 19.7165 -7.15426
3305 2 7.16964 10.7545 21.5089 -7.13018
3556 2 8.96205 12.5469 21.5089 -7.20876
509 3 12.5469 12.5469 21.5089 -6.52957
36 2 10.7545 12.5469 19.7165 -7.03109
291 2 10.7545 10.7545 21.5089 -7.05844
3306 3 10.7545 10.7545 17.9241 -6.5306
3557 3 12.5469 12.5469 17.9241 -6.49174
3803 3 12.5469 10.7545 19.7165 -6.57615
510 1 16.1317 12.5469 17.9241 -8.48335
292 2 14.3393 10.7545 17.9241 -6.92008
804 3 16.1317 10.7545 19.7165 -6.31706
1052 1 14.3393 12.5469 19.7165 -8.43336
1307 2 14.3393 10.7545 21.5089 -6.872
1557 1 16.1317 12.5469 21.5089 -8.20887
1308 3 0 14.3393 17.9241 -6.37205
1558 2 1.79241 16.1317 17.9241 -6.98129
1802 2 1.79241 14.3393 19.7165 -6.91783
2053 1 0 16.1317 19.7165 -8.35235
2307 3 0 14.3393 21.5089 -6.20099
2559 2 1.79241 16.1317 21.5089 -6.94146
2308 3 3.58482 14.3393 17.9241 -6.4521
2560 2 5.37723 16.1317 17.9241 -6.99687
2803 2 5.37723 14.3393 19.7165 -7.06425
3053 1 3.58482 16.1317 19.7165 -8.29148
3307 1 3.58482 14.3393 21.5089 -7.94471
3558 1 5.37723 16.1317 21.5089 -8.0214
511 1 8.96205 16.1317 21.5089 -8.43466
37 2 7.16964 16.1317 19.7165 -7.04117
293 2 7.16964 14.3393 21.5089 -7.09412
3308 1 7.16964 14.3393 17.9241 -8.22773
3559 2 8.96205 16.1317 17.9241 -7.03173
3804 2 8.96205 14.3393 19.7165 -7.09246
512 1 12.5469 16.1317 17.9241 -8.24734
294 3 10.7545 14.3393 17.9241 -6.42684
805 3 12.5469 14.3393 19.7165 -6.3281
1053 1 10.7545 16.1317 19.7165 -8.32295
1309 3 10.7545 14.3393 21.5089 -6.49657
1559 1 12.5469 16.1317 21.5089 -8.28422
1310 3 14.3393 14.3393 17.9241 -6.34984
1560 3 16.1317 16.1317 17.9241 -6.51365
1803 3 16.1317 14.3393 19.7165 -6.30493
2054 3 14.3393 16.1317 19.7165 -6.25239
2309 1 14.3393 14.3393 21.5089 -8.19111
2561 1 16.1317 16.1317 21.5089 -8.24748
38 2 0 1.79241 26.8861 -6.97581
2804 3 1.79241 0 23.3013 -6.33172
3054 1 0 1.79241 23.3013 -8.29957
3309 2 0 0 25.0937 -6.95053
3560 1 1.79241 1.79241 25.0937 -8.28536
3805 3 1.79241 0 26.8861 -6.50771
513 3 5.37723 1.79241 25.0937 -6.46656
39 1 3.58482 1.79241 23.3013 -8.45748
295 2 3.58482 0 25.0937 -6.96021
806 2 5.37723 0 26.8861 -7.0137
1054 2 3.58482 1.79241 26.8861 -6.9815
3806 3 5.37723 0 23.3013 -6.50575
807 3 8.96205 0 23.3013 -6.50278
1055 3 7.16964 1.79241 23.3013 -6.38695
1311 3 7.16964 0 25.0937 -6.50199
1561 1 8.96205 1.79241 25.0937 -8.20567
1804 3 8.96205 0 26.8861 -6.30899
2055 1 7.16964 1.79241 26.8861 -8.32788
1805 3 12.5469 0 23.3013 -6.55053
2056 1 10.7545 1.79241 23.3013 -8.30633
2310 2 10.7545 0 25.0937 -6.95896
2562 1 12.5469 1.79241 25.0937 -8.25779
2805 2 12.5469 0 26.8861 -7.05212
3055 1 10.7545 1.79241 26.8861 -8.14408
40 2 14.3393 1.79241 26.8861 -7.0095
2806 2 16.1317 0 23.3013 -6.99513
3056 3 14.3393 1.79241 23.3013 -6.56466
3310 2 14.3393 0 25.0937 -7.05657
3561 3 16.1317 1.79241 25.0937 -6.52467
3807 1 16.1317 0 26.8861 -8.32592
514 2 1.79241 5.37723 25.0937 -7.0234
41 2 0 5.37723 23.3013 -6.99074
296 2 0 3.58482 25.0937 -7.00578
808 2 1.79241 3.58482 26.8861 -7.06855
1056 1 0 5.37723 26.8861 -8.39169
3808 1 1.79241 3.58482 23.3013 -8.20768
809 3 5.37723 3.58482 23.3013 -6.33295
1057 3 3.58482 5.37723 23.3013 -6.38287
1312 2 3.58482 3.58482 25.0937 -6.98553
1562 1 5.37723 5.37723 25.0937 -8.52143
1806 2 5.37723 3.58482 26.8861 -6.91311
2057 1 3.58482 5.37723 26.8861 -8.42419
1807 1 8.96205 3.58482 23.3013 -8.04691
2058 3 7.16964 5.37723 23.3013 -6.19577
2311 1 7.16964 3.58482 25.0937 -8.19259
2563 1 8.96205 5.37723 25.0937 -8.18427
2807 1 8.96205 3.58482 26.8861 -8.30176
3057 3 7.16964 5.37723 26.8861 -6.21941
42 3 10.7545 5.37723 26.8861 -6.2527
2808 1 12.5469 3.58482 23.3013 -8.24829
3058 1 10.7545 5.37723 23.3013 -8.1996
3311 3 10.7545 3.58482 25.0937 -6.07007
3562 3 12.5469 5.37723 25.0937 -6.21309
3809 1 12.5469 3.58482 26.8861 -8.2861
515 1 16.1317 5.37723 25.0937 -8.31912
43 1 14.3393 5.37723 23.3013 -8.40042
297 3 14.3393 3.58482 25.0937 -6.29915
810 2 16.1317 3.58482 26.8861 -7.00843
1058 1 14.3393 5.37723 26.8861 -8.34737
3810 3 16.1317 3.58482 23.3013 -6.37873
811 1 1.79241 7.16964 23.3013 -8.38533
1059 3 0 8.96205 23.3013 -6.39145
1313 1 0 7.16964 25.0937 -8.30496
1563 2 1.79241 8.96205 25.0937 -6.95369
1808 2 1.79241 7.16964 26.8861 -6.93679
2059 2 0 8.96205 26.8861 -7.00752
1809 2 5.37723 7.16964 23.3013 -6.85793
2060 1 3.58482 8.96205 23.3013 -8.10296
2312 3 3.58482 7.16964 25.0937 -6.34292
2564 1 5.37723 8.96205 25.0937 -8.57962
2809 3 5.37723 7.16964 26.8861 -6.18201
3059 3 3.58482 8.96205 26.8861 -6.30296
44 1 7.16964 8.96205 26.8861 -8.0566
2810 3 8.96205 7.16964 23.3013 -6.22126
3060 3 7.16964 8.96205 23.3013 -6.37845
3312 3 7.16964 7.16964 25.0937 -6.16889
3563 1 8.96205 8.96205 25.0937 -8.28149
3811 1 8.96205 7.16964 26.8861 -8.09313
516 2 12.5469 8.96205 25.0937 -6.8605
45 1 10.7545 8.96205 23.3013 -8.11721
298 1 10.7545 7.16964 25.0937 -8.27061
812 3 12.5469 7.16964 26.8861 -6.42446
1060 3 10.7545 8.96205 26.8861 -6.2941
3812 3 12.5469 7.16964 23.3013 -6.34291
813 3 16.1317 7.16964 23.3013 -6.3747
1061 3 14.3393 8.96205 23.3013 -6.5237
1314 3 14.3393 7.16964 25.0937 -6.31466
1564 3 16.1317 8.96205 25.0937 -6.42836
1810 1 16.1317 7.16964 26.8861 -8.27036
2061 1 14.3393 8.96205 26.8861 -8.58172
1811 1 1.79241 10.7545 23.3013 -8.22237
2062 2 0 12.5469 23.3013 -6.90634
2313 2 0 10.7545 25.0937 -6.96551
2565 2 1.79241 12.5469 25.0937 -6.96313
2811 1 1.79241 10.7545 26.8861 -8.48145
3061 3 0 12.5469 26.8861 -6.49961
46 3 3.58482 12.5469 26.8861 -6.38075
2812 3 5.37723 10.7545 23.3013 -6.32814
3062 1 3.58482 12.5469 23.3013 -8.07399
3313 3 3.58482 10.7545 25.0937 -6.27905
3564 1 5.37723 12.5469 25.0937 -8.44314
3813 3 5.37723 10.7545 26.8861 -6.227
549 2 8.96205 12.5469 25.0937 -7.0124
47 2 7.16964 12.5469 23.3013 -7.11767
299 2 7.16964 10.7545 25.0937 -6.94749
751 3 8.96205 10.7545 26.8861 -6.24043
1062 1 7.16964 12.5469 26.8861 -8.34493
3814 2 8.96205 10.7545 23.3013 -7.14667
752 3 12.5469 10.7545 23.3013 -6.54274
1063 2 10.7545 12.5469 23.3013 -7.05834
1315 1 10.7545 10.7545 25.0937 -8.51274
1565 2 12.5469 12.5469 25.0937 -7.0086
1812 3 12.5469 10.7545 26.8861 -6.4414
2063 3 10.7545 12.5469 26.8861 -6.36653
1813 1 16.1317 10.7545 23.3013 -8.5135
2064 3 14.3393 12.5469 23.3013 -6.43527
2314 2 14.3393 10.7545 25.0937 -6.9557
2566 2 16.1317 12.5469 25.0937 -6.93896
2813 3 16.1317 10.7545 26.8861 -6.42564
3063 1 14.3393 12.5469 26.8861 -8.47529
48 2 0 16.1317 26.8861 -7.09254
2814 1 1.79241 14.3393 23.3013 -8.2611
3064 1 0 16.1317 23.3013 -8.31837
3314 2 0 14.3393 25.0937 -7.09539
3565 2 1.79241 16.1317 25.0937 -7.04435
3815 2 1.79241 14.3393 26.8861 -6.99468
550 2 5.37723 16.1317 25.0937 -6.95194
49 3 3.58482 16.1317 23.3013 -6.27547
300 3 3.58482 14.3393 25.0937 -6.35441
753 3 5.37723 14.3393 26.8861 -6.40427
1064 1 3.58482 16.1317 26.8861 -8.31434
3816 1 5.37723 14.3393 23.3013 -8.19098
754 3 8.96205 14.3393 23.3013 -6.61969