ITEM: TIMESTEP
0
ITEM: NUMBER OF ATOMS
4000
ITEM: BOX BOUNDS pp pp pp
0.0000000000000000e+00 3.5384799999999998e+01
0.0000000000000000e+00 3.5384799999999998e+01
0.0000000000000000e+00 3.5384799999999998e+01
ITEM: ATOMS id type x y z c_peratom
267 1 0 0 0 -8.32442
516 3 1.76924 1.76924 0 -6.24238
767 2 1.76924 0 1.76924 -6.84522
1016 1 0 1.76924 1.76924 -8.23643
1267 1 0 0 3.53848 -8.37935
1517 2 1.76924 1.76924 3.53848 -6.84763
1268 3 3.53848 0 0 -6.5161
1518 3 5.30772 1.76924 0 -6.28258
1767 1 5.30772 0 1.76924 -8.44469
2017 1 3.53848 1.76924 1.76924 -8.48956
2266 1 3.53848 0 3.53848 -8.32927
2517 3 5.30772 1.76924 3.53848 -6.04263
1 3 10.6154 1.76924 1.76924 -6.39015
268 1 10.6154 0 3.53848 -8.48996
2267 2 7.07696 0 0 -6.92443
2518 1 8.8462 1.76924 0 -8.64172
2766 1 8.8462 0 1.76924 -8.41009
3017 1 7.07696 1.76924 1.76924 -8.28863
3266 3 7.07696 0 3.53848 -6.246
3267 2 10.6154 0 0 -6.87079
3517 2 8.8462 1.76924 3.53848 -6.89561
269 2 14.1539 0 0 -6.97985
517 1 12.3847 1.76924 3.53848 -8.58628
1017 3 14.1539 1.76924 1.76924 -6.48949
1269 3 14.1539 0 3.53848 -6.43274
3518 3 12.3847 1.76924 0 -6.65944
3767 2 12.3847 0 1.76924 -6.91939
518 3 15.9232 1.76924 0 -6.66052
768 2 15.9232 0 1.76924 -7.00566
1519 3 15.9232 1.76924 3.53848 -6.56015
1270 2 0 3.53848 0 -6.91033
1520 2 1.76924 5.30772 0 -7.00165
1768 3 1.76924 3.53848 1.76924 -6.14616
2018 1 0 5.30772 1.76924 -8.51613
2268 1 0 3.53848 3.53848 -8.43673
2519 1 1.76924 5.30772 3.53848 -8.71017
2269 1 3.53848 3.53848 0 -8.63262
2520 2 5.30772 5.30772 0 -6.92358
2767 3 5.30772 3.53848 1.76924 -6.14521
3018 3 3.53848 5.30772 1.76924 -6.3752
3268 1 3.53848 3.53848 3.53848 -8.51934
3519 2 5.30772 5.30772 3.53848 -6.8308
2 3 7.07696 5.30772 1.76924 -6.38995
271 3 10.6154 3.53848 0 -6.54752
270 1 7.07696 3.53848 3.53848 -8.59433
519 2 8.8462 5.30772 3.53848 -7.02591
1018 2 10.6154 5.30772 1.76924 -7.05138
1271 2 10.6154 3.53848 3.53848 -6.90464
3269 1 7.07696 3.53848 0 -8.52902
3520 1 8.8462 5.30772 0 -8.78691
3768 3 8.8462 3.53848 1.76924 -6.3352
520 3 12.3847 5.30772 0 -6.65349
769 2 12.3847 3.53848 1.76924 -6.97557
1272 2 14.1539 3.53848 0 -6.93613
1521 3 12.3847 5.30772 3.53848 -6.47067
2019 3 14.1539 5.30772 1.76924 -6.19971
2270 1 14.1539 3.53848 3.53848 -8.79282
1522 1 15.9232 5.30772 0 -8.4123
1769 1 15.9232 3.53848 1.76924 -8.65735
2521 3 15.9232 5.30772 3.53848 -6.13432
274 3 0 10.6154 3.53848 -6.46768
2271 2 0 7.07696 0 -7.12741
2522 2 1.76924 8.8462 0 -7.08787
2768 3 1.76924 7.07696 1.76924 -6.57422
3019 2 0 8.8462 1.76924 -7.04289
3273 3 0 10.6154 0 -6.39573
3270 2 0 7.07696 3.53848 -6.91549
3521 3 1.76924 8.8462 3.53848 -6.43456
3770 1 1.76924 10.6154 1.76924 -8.49561
3 2 3.53848 8.8462 1.76924 -6.91762
275 1 3.53848 10.6154 0 -8.20934
272 3 3.53848 7.07696 3.53848 -6.28766
521 1 5.30772 8.8462 3.53848 -8.42861
771 3 5.30772 10.6154 1.76924 -6.24964
1275 2 3.53848 10.6154 3.53848 -6.92845
3271 3 3.53848 7.07696 0 -6.63001
3522 1 5.30772 8.8462 0 -8.52172
3769 1 5.30772 7.07696 1.76924 -8.65089
273 3 7.07696 7.07696 0 -6.43129
522 2 8.8462 8.8462 0 -7.00284
770 2 8.8462 7.07696 1.76924 -7.07091
1019 2 7.07696 8.8462 1.76924 -7.00096
1276 1 7.07696 10.6154 0 -8.342
1274 3 10.6154 7.07696 0 -6.53383
1273 2 7.07696 7.07696 3.53848 -7.0022
1523 3 8.8462 8.8462 3.53848 -6.6986
1771 1 8.8462 10.6154 1.76924 -8.51169
2020 2 10.6154 8.8462 1.76924 -6.99207
2275 2 10.6154 10.6154 0 -6.97517
2274 2 7.07696 10.6154 3.53848 -6.97241
2272 3 10.6154 7.07696 3.53848 -6.60427
3274 3 10.6154 10.6154 3.53848 -6.38133
276 3 14.1539 10.6154 3.53848 -6.0943
1524 1 12.3847 8.8462 0 -8.51758
1770 2 12.3847 7.07696 1.76924 -6.94266
2273 1 14.1539 7.07696 0 -8.51503
2523 1 12.3847 8.8462 3.53848 -8.58722
2770 1 12.3847 10.6154 1.76924 -8.25998
3020 3 14.1539 8.8462 1.76924 -6.1929
3275 2 14.1539 10.6154 0 -6.94211
3272 1 14.1539 7.07696 3.53848 -8.55277
2524 2 15.9232 8.8462 0 -6.85228
2769 1 15.9232 7.07696 1.76924 -8.4629
3523 3 15.9232 8.8462 3.53848 -6.20162
3771 2 15.9232 10.6154 1.76924 -6.89625
4 2 0 12.3847 1.76924 -6.93622
277 2 0 14.1539 0 -6.98642
523 2 1.76924 12.3847 3.53848 -6.92022
772 1 1.76924 14.1539 1.76924 -8.29955
1277 3 0 14.1539 3.53848 -6.4682
3524 1 1.76924 12.3847 0 -8.11707
524 3 5.30772 12.3847 0 -6.18814
1020 1 3.53848 12.3847 1.76924 -8.23665
1278 1 3.53848 14.1539 0 -8.42432
1525 1 5.30772 12.3847 3.53848 -8.46556
1772 3 5.30772 14.1539 1.76924 -6.20906
2276 1 3.53848 14.1539 3.53848 -8.43141
278 2 10.6154 14.1539 3.53848 -6.92121
1526 2 8.8462 12.3847 0 -6.99422
2021 2 7.07696 12.3847 1.76924 -6.94384
2277 2 7.07696 14.1539 0 -6.93357
2525 2 8.8462 12.3847 3.53848 -6.96756
2771 3 8.8462 14.1539 1.76924 -6.42626
3021 1 10.6154 12.3847 1.76924 -8.38146
3277 3 10.6154 14.1539 0 -6.43169
3276 2 7.07696 14.1539 3.53848 -6.88934
5 1 14.1539 12.3847 1.76924 -8.04251
279 1 14.1539 14.1539 0 -8.35457
1279 2 14.1539 14.1539 3.53848 -6.97413
2526 1 12.3847 12.3847 0 -8.26119
3525 1 12.3847 12.3847 3.53848 -8.35146
3772 2 12.3847 14.1539 1.76924 -6.89848
525 1 15.9232 12.3847 3.53848 -8.28044
773 1 15.9232 14.1539 1.76924 -8.55
3526 1 15.9232 12.3847 0 -8.34067
526 2 1.76924 15.9232 0 -6.87594
1021 2 0 15.9232 1.76924 -6.9606
1527 2 1.76924 15.9232 3.53848 -6.99797
1528 3 5.30772 15.9232 0 -6.41058
2022 1 3.53848 15.9232 1.76924 -8.52297
2527 3 5.30772 15.9232 3.53848 -6.13757
6 1 10.6154 15.9232 1.76924 -8.72105
2528 3 8.8462 15.9232 0 -6.35821
3022 1 7.07696 15.9232 1.76924 -8.77594
3527 3 8.8462 15.9232 3.53848 -6.23339
527 3 12.3847 15.9232 3.53848 -6.39905
1022 3 14.1539 15.9232 1.76924 -6.50709
3528 3 12.3847 15.9232 0 -6.44014
528 2 15.9232 15.9232 0 -6.95282
1529 3 15.9232 15.9232 3.53848 -6.29683
1773 3 1.76924 0 5.30772 -6.05874
2023 3 0 1.76924 5.30772 -6.13609
2278 1 0 0 7.07696 -8.44675
2529 2 1.76924 1.76924 7.07696 -6.92495
2773 1 3.53848 0 7.07696 -8.54038
2772 2 5.30772 0 5.30772 -6.94339
3024 2 5.30772 1.76924 7.07696 -6.89224
3023 1 3.53848 1.76924 5.30772 -8.41898
7 1 7.07696 1.76924 5.30772 -8.43064
1023 3 10.6154 1.76924 5.30772 -6.27455
3278 2 7.07696 0 7.07696 -6.98574
3529 1 8.8462 1.76924 7.07696 -8.29801
3774 2 10.6154 0 7.07696 -6.85429
3773 2 8.8462 0 5.30772 -6.92235
8 3 12.3847 1.76924 7.07696 -6.2121
280 3 14.1539 0 7.07696 -6.33666
774 1 12.3847 0 5.30772 -8.63288
2024 3 14.1539 1.76924 5.30772 -6.34575
529 3 15.9232 1.76924 7.07696 -6.4959
1774 2 15.9232 0 5.30772 -6.93891
775 1 0 3.53848 7.07696 -8.8434
1024 2 1.76924 5.30772 7.07696 -6.92687
2774 2 1.76924 3.53848 5.30772 -6.9292
3025 3 0 5.30772 5.30772 -6.37759
9 3 3.53848 5.30772 5.30772 -6.3351
1280 3 3.53848 3.53848 7.07696 -6.47717
1530 1 5.30772 5.30772 7.07696 -8.63799
3775 2 5.30772 3.53848 5.30772 -6.91454
776 1 8.8462 3.53848 5.30772 -8.42948
1025 3 7.07696 5.30772 5.30772 -6.38899
1775 2 7.07696 3.53848 7.07696 -6.90367
2026 1 10.6154 5.30772 5.30772 -8.83109
2025 3 8.8462 5.30772 7.07696 -6.42159
2279 3 10.6154 3.53848 7.07696 -6.12614
1776 3 12.3847 3.53848 5.30772 -6.32976
2530 3 12.3847 5.30772 7.07696 -6.33758
2776 1 14.1539 3.53848 7.07696 -8.71238
3026 3 14.1539 5.30772 5.30772 -6.3071
2775 2 15.9232 3.53848 5.30772 -6.88933
3027 2 15.9232 5.30772 7.07696 -6.89058
10 3 0 8.8462 5.30772 -6.36185
779 1 1.76924 10.6154 5.30772 -8.5017
1778 1 0 10.6154 7.07696 -8.38181
3279 2 0 7.07696 7.07696 -6.90531
3530 1 1.76924 8.8462 7.07696 -8.39002
3776 3 1.76924 7.07696 5.30772 -6.40176
11 2 5.30772 8.8462 7.07696 -6.82251
777 1 5.30772 7.07696 5.30772 -8.64757
1026 1 3.53848 8.8462 5.30772 -8.40372
1779 1 5.30772 10.6154 5.30772 -8.56595
2280 3 3.53848 10.6154 7.07696 -6.22833
3777 3 3.53848 7.07696 7.07696 -6.19972
281 3 7.07696 7.07696 7.07696 -6.43381
530 2 8.8462 8.8462 7.07696 -7.02794
778 3 10.6154 7.07696 7.07696 -6.4989
1777 2 8.8462 7.07696 5.30772 -7.05224
2027 3 7.07696 8.8462 5.30772 -6.50813
2779 3 7.07696 10.6154 7.07696 -6.47925
2778 2 8.8462 10.6154 5.30772 -7.07421
3028 2 10.6154 8.8462 5.30772 -7.03218
3280 2 10.6154 10.6154 7.07696 -6.98985
12 2 14.1539 8.8462 5.30772 -6.91057
1027 1 12.3847 8.8462 7.07696 -8.60167
1281 2 14.1539 7.07696 7.07696 -6.92376
2777 2 12.3847 7.07696 5.30772 -6.94692
3780 1 14.1539 10.6154 7.07696 -8.00492
3779 3 12.3847 10.6154 5.30772 -6.26388
780 1 15.9232 10.6154 5.30772 -8.19147
1531 1 15.9232 8.8462 7.07696 -8.32554
3778 1 15.9232 7.07696 5.30772 -8.44485
282 3 0 14.1539 7.07696 -6.44013
1028 1 0 12.3847 5.30772 -8.7721
1780 2 1.76924 14.1539 5.30772 -6.90756
2028 3 1.76924 12.3847 7.07696 -6.14192
781 1 3.53848 14.1539 7.07696 -8.3707
2029 2 3.53848 12.3847 5.30772 -6.86646
2531 3 5.30772 12.3847 7.07696 -6.33368
2780 3 5.30772 14.1539 5.30772 -6.36878
13 3 10.6154 12.3847 5.30772 -6.47447
1282 3 7.07696 14.1539 7.07696 -6.35514
1781 3 10.6154 14.1539 7.07696 -6.45533
3030 2 8.8462 12.3847 7.07696 -6.93812
3029 3 7.07696 12.3847 5.30772 -6.45639
3781 1 8.8462 14.1539 5.30772 -8.82638
782 1 12.3847 14.1539 5.30772 -8.48085
1029 1 14.1539 12.3847 5.30772 -8.06272
2281 1 14.1539 14.1539 7.07696 -8.05746
3531 2 12.3847 12.3847 7.07696 -6.938
14 1 15.9232 12.3847 7.07696 -8.19258
1782 1 15.9232 14.1539 5.30772 -8.42203
531 1 1.76924 15.9232 7.07696 -8.50077
2030 3 0 15.9232 5.30772 -6.51168
1030 2 5.30772 15.9232 7.07696 -6.94637
3031 2 3.53848 15.9232 5.30772 -6.90054
15 1 7.07696 15.9232 5.30772 -8.72518
1031 3 10.6154 15.9232 5.30772 -6.49577
1532 3 8.8462 15.9232 7.07696 -6.41307
2032 1 14.1539 15.9232 5.30772 -8.37243
2031 2 12.3847 15.9232 7.07696 -7.00727
2532 3 15.9232 15.9232 7.07696 -6.38575
16 2 0 1.76924 12.3847 -7.06254
2781 3 1.76924 0 8.8462 -6.26141
3032 2 0 1.76924 8.8462 -6.99513
3281 1 0 0 10.6154 -8.46221
3532 2 1.76924 1.76924 10.6154 -6.95058
3782 3 1.76924 0 12.3847 -6.3727
251 3 3.53848 0 10.6154 -6.29097
532 1 5.30772 1.76924 10.6154 -8.55209
783 3 5.30772 0 12.3847 -6.06991
1032 2 3.53848 1.76924 12.3847 -6.86417
3282 3 5.30772 0 8.8462 -6.3287
3533 3 3.53848 1.76924 8.8462 -6.44717
17 1 7.07696 1.76924 8.8462 -8.31252
533 1 10.6154 1.76924 8.8462 -8.60472
1283 3 7.07696 0 10.6154 -6.16369
1533 1 8.8462 1.76924 10.6154 -8.27415
1783 3 8.8462 0 12.3847 -6.18612
2033 1 7.07696 1.76924 12.3847 -8.21202
2282 3 10.6154 0 10.6154 -6.32479
3033 1 10.6154 1.76924 12.3847 -8.53781
3783 1 8.8462 0 8.8462 -8.47086
252 3 12.3847 0 8.8462 -6.2986
18 2 14.1539 1.76924 12.3847 -6.91876
1033 1 14.1539 1.76924 8.8462 -8.73423
2533 3 12.3847 1.76924 10.6154 -6.25392
2782 2 12.3847 0 12.3847 -6.86046
3283 2 14.1539 0 10.6154 -6.92502
784 3 15.9232 0 8.8462 -6.47491
3534 2 15.9232 1.76924 10.6154 -6.92426
3784 2 15.9232 0 12.3847 -6.95678
253 3 0 3.53848 10.6154 -6.60712
534 1 1.76924 5.30772 10.6154 -8.51057
785 1 1.76924 3.53848 12.3847 -8.51001
1034 3 0 5.30772 12.3847 -6.65102
1284 2 1.76924 3.53848 8.8462 -6.98593
1534 3 0 5.30772 8.8462 -6.54682
1285 3 3.53848 3.53848 10.6154 -6.22197
1535 3 5.30772 5.30772 10.6154 -6.24978
1785 1 5.30772 3.53848 12.3847 -8.22116
1784 1 5.30772 3.53848 8.8462 -8.57886
2035 1 3.53848 5.30772 12.3847 -8.52268
2034 2 3.53848 5.30772 8.8462 -6.88108
19 2 10.6154 5.30772 12.3847 -6.7937
2284 2 7.07696 3.53848 10.6154 -6.96144
2283 3 8.8462 3.53848 8.8462 -6.23267
2535 3 8.8462 5.30772 10.6154 -6.2851
2534 3 7.07696 5.30772 8.8462 -6.4294
2783 1 8.8462 3.53848 12.3847 -8.20853
3035 1 10.6154 5.30772 8.8462 -8.77006
3034 1 7.07696 5.30772 12.3847 -8.52898
3284 3 10.6154 3.53848 10.6154 -6.13783
254 3 14.1539 3.53848 10.6154 -6.31489
1035 3 14.1539 5.30772 12.3847 -6.2954
2784 1 12.3847 3.53848 8.8462 -8.56038
3536 3 14.1539 5.30772 8.8462 -6.32574
3535 3 12.3847 5.30772 10.6154 -6.30975
3785 3 12.3847 3.53848 12.3847 -6.37622
535 3 15.9232 5.30772 10.6154 -6.23126
786 1 15.9232 3.53848 12.3847 -8.58898
3285 1 15.9232 3.53848 8.8462 -8.74758
20 1 0 8.8462 8.8462 -8.26312
1286 2 0 7.07696 10.6154 -6.96571
1536 3 1.76924 8.8462 10.6154 -6.29608
1786 2 1.76924 7.07696 12.3847 -6.92791
2036 1 0 8.8462 12.3847 -8.61242
2287 1 0 10.6154 10.6154 -8.4253
2286 3 1.76924 10.6154 8.8462 -6.15684
2786 3 1.76924 10.6154 12.3847 -6.2343
3786 1 1.76924 7.07696 8.8462 -8.47467
255 1 5.30772 7.07696 8.8462 -8.86792
536 2 3.53848 8.8462 8.8462 -6.88984
2285 2 3.53848 7.07696 10.6154 -6.91585
2536 3 5.30772 8.8462 10.6154 -6.50516
2787 3 5.30772 10.6154 8.8462 -6.52618
2785 3 5.30772 7.07696 12.3847 -6.35777
3036 1 3.53848 8.8462 12.3847 -9.04729
3287 2 3.53848 10.6154 10.6154 -6.84102
3788 3 5.30772 10.6154 12.3847 -6.46936
256 1 10.6154 7.07696 10.6154 -8.75508
257 2 7.07696 10.6154 10.6154 -6.87722
21 3 7.07696 8.8462 12.3847 -6.49565
789 1 8.8462 10.6154 12.3847 -8.96685
787 2 8.8462 7.07696 8.8462 -6.90449
1037 2 10.6154 8.8462 12.3847 -6.94528
1036 3 7.07696 8.8462 8.8462 -6.49547
1289 3 10.6154 10.6154 10.6154 -6.35218
1537 3 10.6154 8.8462 8.8462 -6.41915
3288 1 8.8462 10.6154 8.8462 -8.90418
3286 3 7.07696 7.07696 10.6154 -6.4717
3537 3 8.8462 8.8462 10.6154 -6.42456
3787 3 8.8462 7.07696 12.3847 -6.42085
537 2 12.3847 8.8462 10.6154 -6.943
788 3 12.3847 7.07696 12.3847 -6.44823
1288 1 14.1539 7.07696 10.6154 -8.84534
1287 2 12.3847 7.07696 8.8462 -6.90741
1789 2 12.3847 10.6154 12.3847 -6.94771
2038 1 14.1539 8.8462 12.3847 -8.49305
2037 2 14.1539 8.8462 8.8462 -6.99153
2288 1 14.1539 10.6154 10.6154 -8.00954
3789 1 12.3847 10.6154 8.8462 -8.20483
258 1 15.9232 10.6154 8.8462 -8.13468
1538 2 15.9232 8.8462 10.6154 -6.86355
1788 3 15.9232 7.07696 12.3847 -6.09456
1787 3 15.9232 7.07696 8.8462 -6.39733
2788 2 15.9232 10.6154 12.3847 -6.9723
790 1 1.76924 14.1539 8.8462 -8.5468
2538 1 1.76924 12.3847 10.6154 -8.24568
2537 3 0 12.3847 8.8462 -6.22101
3037 2 0 12.3847 12.3847 -6.79804
3289 3 0 14.1539 10.6154 -6.2533
3790 1 1.76924 14.1539 12.3847 -8.37404
259 3 3.53848 14.1539 10.6154 -6.00254
22 1 3.53848 12.3847 12.3847 -8.52584
791 1 5.30772 14.1539 12.3847 -8.45135
1290 1 5.30772 14.1539 8.8462 -8.37332
3038 1 3.53848 12.3847 8.8462 -8.47243
3538 1 5.30772 12.3847 10.6154 -8.46253
23 1 10.6154 12.3847 8.8462 -8.44475
538 3 8.8462 12.3847 10.6154 -6.50495
1038 2 7.07696 12.3847 12.3847 -6.93548
1291 3 7.07696 14.1539 10.6154 -6.3315
1791 2 8.8462 14.1539 12.3847 -7.01752
1790 2 8.8462 14.1539 8.8462 -6.94692
2039 2 10.6154 12.3847 12.3847 -6.96288
2290 2 10.6154 14.1539 10.6154 -7.0474
3539 3 7.07696 12.3847 8.8462 -6.41297
539 1 14.1539 12.3847 8.8462 -7.96689
1539 1 12.3847 12.3847 10.6154 -8.25633
2289 2 12.3847 14.1539 8.8462 -7.01126
2789 2 12.3847 14.1539 12.3847 -6.91764
3039 1 14.1539 12.3847 12.3847 -8.41489
3290 2 14.1539 14.1539 10.6154 -6.96345
2539 1 15.9232 12.3847 10.6154 -8.2903
2790 2 15.9232 14.1539 8.8462 -6.96194
3791 2 15.9232 14.1539 12.3847 -6.87544
24 1 0 15.9232 12.3847 -8.30176
1039 2 0 15.9232 8.8462 -6.85542
3540 3 1.76924 15.9232 10.6154 -6.25934
540 1 5.30772 15.9232 10.6154 -8.38225
1040 3 3.53848 15.9232 12.3847 -6.1212
1540 2 3.53848 15.9232 8.8462 -6.90877
1541 2 8.8462 15.9232 10.6154 -6.9874
2041 3 7.07696 15.9232 12.3847 -6.18078
2040 1 7.07696 15.9232 8.8462 -8.51058
2540 2 10.6154 15.9232 8.8462 -7.02305
3040 1 10.6154 15.9232 12.3847 -8.26339
25 1 14.1539 15.9232 12.3847 -8.26271
2541 2 12.3847 15.9232 10.6154 -7.03079
3041 1 14.1539 15.9232 8.8462 -8.42437
3541 1 15.9232 15.9232 10.6154 -8.43032
260 3 0 0 14.1539 -6.62485
541 1 1.76924 1.76924 14.1539 -8.80942
792 3 1.76924 0 15.9232 -6.32655
1041 2 0 1.76924 15.9232 -7.07732
1292 3 3.53848 0 14.1539 -6.22667
1542 1 5.30772 1.76924 14.1539 -8.50977
1792 2 5.30772 0 15.9232 -6.97552
2042 2 3.53848 1.76924 15.9232 -7.02333
26 3 10.6154 1.76924 15.9232 -6.45789
2291 1 7.07696 0 14.1539 -8.18294
2542 2 8.8462 1.76924 14.1539 -6.91445
2791 1 8.8462 0 15.9232 -8.44237
3042 3 7.07696 1.76924 15.9232 -6.4173
3291 1 10.6154 0 14.1539 -8.54766
261 3 14.1539 0 14.1539 -6.46407
1042 3 14.1539 1.76924 15.9232 -6.4658
3542 3 12.3847 1.76924 14.1539 -6.34318
3792 2 12.3847 0 15.9232 -6.94954
542 1 15.9232 1.76924 14.1539 -8.6165
793 1 15.9232 0 15.9232 -8.71054
1293 2 0 3.53848 14.1539 -7.12781
1543 2 1.76924 5.30772 14.1539 -7.03817
1793 3 1.76924 3.53848 15.9232 -6.73788
2043 3 0 5.30772 15.9232 -6.80382
2292 2 3.53848 3.53848 14.1539 -7.03828
2543 2 5.30772 5.30772 14.1539 -6.97076
2792 2 5.30772 3.53848 15.9232 -7.04415
3043 3 3.53848 5.30772 15.9232 -6.76845
262 1 10.6154 3.53848 14.1539 -8.55498
27 1 7.07696 5.30772 15.9232 -8.3893
1043 1 10.6154 5.30772 15.9232 -8.50186
3292 2 7.07696 3.53848 14.1539 -7.01369
3543 2 8.8462 5.30772 14.1539 -6.95355
3793 2 8.8462 3.53848 15.9232 -6.96694
543 3 12.3847 5.30772 14.1539 -6.41204
794 3 12.3847 3.53848 15.9232 -6.39032
1294 1 14.1539 3.53848 14.1539 -8.62187
2044 2 14.1539 5.30772 15.9232 -6.80478
1544 1 15.9232 5.30772 14.1539 -8.67981
1794 2 15.9232 3.53848 15.9232 -6.90107
2293 2 0 7.07696 14.1539 -7.0326
2544 3 1.76924 8.8462 14.1539 -6.42278
2793 2 1.76924 7.07696 15.9232 -7.06076
3044 1 0 8.8462 15.9232 -8.58407
3294 3 0 10.6154 14.1539 -6.3255
3795 3 1.76924 10.6154 15.9232 -6.27565
264 3 3.53848 10.6154 14.1539 -6.37361
28 3 3.53848 8.8462 15.9232 -6.6656
796 2 5.30772 10.6154 15.9232 -7.02935
3293 3 3.53848 7.07696 14.1539 -6.55475
3544 3 5.30772 8.8462 14.1539 -6.49233
3794 2 5.30772 7.07696 15.9232 -6.95564
263 1 7.07696 7.07696 14.1539 -8.5879
544 3 8.8462 8.8462 14.1539 -6.39487
795 1 8.8462 7.07696 15.9232 -8.41505
1044 3 7.07696 8.8462 15.9232 -6.51462
1296 3 7.07696 10.6154 14.1539 -6.63129
1295 3 10.6154 7.07696 14.1539 -6.53074
1796 3 8.8462 10.6154 15.9232 -6.57305
2045 3 10.6154 8.8462 15.9232 -6.41583
2295 3 10.6154 10.6154 14.1539 -6.43452
1545 2 12.3847 8.8462 14.1539 -6.9089
1795 3 12.3847 7.07696 15.9232 -6.51651
2294 3 14.1539 7.07696 14.1539 -6.39464
2795 1 12.3847 10.6154 15.9232 -8.60425
3045 3 14.1539 8.8462 15.9232 -6.40168
3295 3 14.1539 10.6154 14.1539 -6.29436
2545 1 15.9232 8.8462 14.1539 -8.63356
2794 3 15.9232 7.07696 15.9232 -6.36677
3796 2 15.9232 10.6154 15.9232 -6.82695
265 1 0 14.1539 14.1539 -8.30731
29 1 0 12.3847 15.9232 -8.62971
797 3 1.76924 14.1539 15.9232 -6.09473
3545 3 1.76924 12.3847 14.1539 -6.21155
545 2 5.30772 12.3847 14.1539 -6.92854
1045 1 3.53848 12.3847 15.9232 -8.61304
1297 2 3.53848 14.1539 14.1539 -6.87294
1797 3 5.30772 14.1539 15.9232 -6.34856
1546 2 8.8462 12.3847 14.1539 -6.95749
2046 2 7.07696 12.3847 15.9232 -7.0185
2296 3 7.07696 14.1539 14.1539 -6.41235
2796 3 8.8462 14.1539 15.9232 -6.26728
3046 1 10.6154 12.3847 15.9232 -8.49518
3296 3 10.6154 14.1539 14.1539 -6.27912
266 3 14.1539 14.1539 14.1539 -6.10687
30 3 14.1539 12.3847 15.9232 -6.09798
2546 3 12.3847 12.3847 14.1539 -6.29702
3797 1 12.3847 14.1539 15.9232 -8.60341
798 1 15.9232 14.1539 15.9232 -8.87476
3546 1 15.9232 12.3847 14.1539 -8.59568
546 1 1.76924 15.9232 14.1539 -8.50734
1046 3 0 15.9232 15.9232 -6.20091
1547 1 5.30772 15.9232 14.1539 -8.5529
2047 3 3.53848 15.9232 15.9232 -6.18463
31 3 10.6154 15.9232 15.9232 -6.1705
2547 1 8.8462 15.9232 14.1539 -8.60304
3047 3 7.07696 15.9232 15.9232 -6.10812
1047 3 14.1539 15.9232 15.9232 -6.30867
3547 1 12.3847 15.9232 14.1539 -8.49556
547 1 15.9232 15.9232 14.1539 -8.6251
1298 1 0 0 17.6924 -8.4512
1548 3 1.76924 1.76924 17.6924 -6.6797
1798 2 1.76924 0 19.4616 -6.90415
2048 3 0 1.76924 19.4616 -6.52808
2297 3 0 0 21.2309 -6.52075
2548 2 1.76924 1.76924 21.2309 -6.92622
2298 3 3.53848 0 17.6924 -6.43576
2549 3 5.30772 1.76924 17.6924 -6.48816
2797 2 5.30772 0 19.4616 -6.94112
3048 2 3.53848 1.76924 19.4616 -7.0392
3297 1 3.53848 0 21.2309 -8.49275
3548 1 5.30772 1.76924 21.2309 -8.2194
501 2 8.8462 1.76924 21.2309 -6.97822
32 1 7.07696 1.76924 19.4616 -8.23035
284 3 10.6154 0 17.6924 -6.66864
283 2 7.07696 0 21.2309 -7.01977
1048 3 10.6154 1.76924 19.4616 -6.65604
1299 2 10.6154 0 21.2309 -7.01588
3298 1 7.07696 0 17.6924 -8.21562
3549 2 8.8462 1.76924 17.6924 -6.96752
3798 2 8.8462 0 19.4616 -7.02336
502 3 12.3847 1.76924 17.6924 -6.667
799 3 12.3847 0 19.4616 -6.75686
1300 3 14.1539 0 17.6924 -6.55781
1549 2 12.3847 1.76924 21.2309 -6.97255
2049 2 14.1539 1.76924 19.4616 -6.98208
2299 3 14.1539 0 21.2309 -6.38096
1550 2 15.9232 1.76924 17.6924 -6.86373
1799 1 15.9232 0 19.4616 -8.70806
2550 1 15.9232 1.76924 21.2309 -8.26552
2300 2 0 3.53848 17.6924 -7.08438
2551 3 1.76924 5.30772 17.6924 -6.71464
2798 2 1.76924 3.53848 19.4616 -7.01961
3049 1 0 5.30772 19.4616 -8.59536
3299 3 0 3.53848 21.2309 -6.26581
3550 1 1.76924 5.30772 21.2309 -8.34913
503 2 5.30772 5.30772 21.2309 -6.97245
33 2 3.53848 5.30772 19.4616 -7.00477
285 1 3.53848 3.53848 21.2309 -8.47512
3300 2 3.53848 3.53848 17.6924 -7.08103
3551 3 5.30772 5.30772 17.6924 -6.4119
3799 1 5.30772 3.53848 19.4616 -8.40132
504 2 8.8462 5.30772 17.6924 -6.94823
286 2 7.07696 3.53848 17.6924 -6.98698
800 1 8.8462 3.53848 19.4616 -8.69713
1049 1 7.07696 5.30772 19.4616 -8.42796
1302 3 10.6154 3.53848 17.6924 -6.47759
1301 2 7.07696 3.53848 21.2309 -6.99602
1551 3 8.8462 5.30772 21.2309 -6.28129
2050 3 10.6154 5.30772 19.4616 -6.37514
2301 3 10.6154 3.53848 21.2309 -6.43488
1552 1 12.3847 5.30772 17.6924 -8.74259
1800 2 12.3847 3.53848 19.4616 -6.90464
2302 3 14.1539 3.53848 17.6924 -6.52081
2552 2 12.3847 5.30772 21.2309 -6.95961
3050 3 14.1539 5.30772 19.4616 -6.31742
3301 1 14.1539 3.53848 21.2309 -8.35417
2553 3 15.9232 5.30772 17.6924 -6.51231
2799 1 15.9232 3.53848 19.4616 -8.76007
3552 2 15.9232 5.30772 21.2309 -6.96408
505 2 1.76924 8.8462 21.2309 -7.03545
34 1 0 8.8462 19.4616 -8.5149
290 2 0 10.6154 17.6924 -6.9061
287 2 0 7.07696 21.2309 -6.97471
802 3 1.76924 10.6154 19.4616 -6.4347
1305 2 0 10.6154 21.2309 -7.00084
3302 2 0 7.07696 17.6924 -7.03269
3553 2 1.76924 8.8462 17.6924 -6.96384
3800 2 1.76924 7.07696 19.4616 -7.02581
506 2 5.30772 8.8462 17.6924 -6.9717
288 3 3.53848 7.07696 17.6924 -6.66528
801 1 5.30772 7.07696 19.4616 -8.61401
1050 3 3.53848 8.8462 19.4616 -6.53012
1306 1 3.53848 10.6154 17.6924 -8.73462
1303 2 3.53848 7.07696 21.2309 -6.97412
1553 2 5.30772 8.8462 21.2309 -6.9575
1802 3 5.30772 10.6154 19.4616 -6.59167
2305 1 3.53848 10.6154 21.2309 -8.68875
291 1 10.6154 10.6154 21.2309 -8.2819
1304 1 7.07696 7.07696 17.6924 -8.41115
1554 2 8.8462 8.8462 17.6924 -6.91636
1801 3 8.8462 7.07696 19.4616 -6.38504
2051 2 7.07696 8.8462 19.4616 -6.98221
2306 2 7.07696 10.6154 17.6924 -7.07463
2304 2 10.6154 7.07696 17.6924 -6.87952
2303 3 7.07696 7.07696 21.2309 -6.427
2554 1 8.8462 8.8462 21.2309 -8.66813
2801 2 8.8462 10.6154 19.4616 -6.98133
3051 3 10.6154 8.8462 19.4616 -6.26597
3306 1 10.6154 10.6154 17.6924 -8.45865
3305 3 7.07696 10.6154 21.2309 -6.60592
3303 1 10.6154 7.07696 21.2309 -8.48358
35 2 14.1539 8.8462 19.4616 -6.91376
292 1 14.1539 10.6154 17.6924 -8.3927
289 2 14.1539 7.07696 21.2309 -6.97514
1307 3 14.1539 10.6154 21.2309 -6.48289
2555 2 12.3847 8.8462 17.6924 -6.89136
2800 1 12.3847 7.07696 19.4616 -8.59694
3304 3 14.1539 7.07696 17.6924 -6.4387
3554 2 12.3847 8.8462 21.2309 -6.99154
3802 1 12.3847 10.6154 19.4616 -8.31771
507 1 15.9232 8.8462 21.2309 -8.3338
803 1 15.9232 10.6154 19.4616 -8.57718
3555 3 15.9232 8.8462 17.6924 -6.30275
3801 1 15.9232 7.07696 19.4616 -8.7156
508 1 1.76924 12.3847 17.6924 -8.55354
1051 2 0 12.3847 19.4616 -6.87709
1308 3 0 14.1539 17.6924 -6.20893
1555 2 1.76924 12.3847 21.2309 -6.99693
1803 3 1.76924 14.1539 19.4616 -6.39911
2307 3 0 14.1539 21.2309 -6.31006
1556 2 5.30772 12.3847 17.6924 -6.92811
2052 3 3.53848 12.3847 19.4616 -6.38768
2308 1 3.53848 14.1539 17.6924 -8.63648
2556 2 5.30772 12.3847 21.2309 -7.00836
2802 3 5.30772 14.1539 19.4616 -6.46254
3307 2 3.53848 14.1539 21.2309 -7.05833
36 1 10.6154 12.3847 19.4616 -8.14589
294 1 10.6154 14.1539 17.6924 -8.26831
293 2 7.07696 14.1539 21.2309 -6.9541
1309 1 10.6154 14.1539 21.2309 -8.31913
2557 3 8.8462 12.3847 17.6924 -6.26542
3052 3 7.07696 12.3847 19.4616 -6.63239
3308 1 7.07696 14.1539 17.6924 -8.77253
3556 2 8.8462 12.3847 21.2309 -7.01048
3803 3 8.8462 14.1539 19.4616 -6.19474
509 2 12.3847 12.3847 21.2309 -7.03347
804 1 12.3847 14.1539 19.4616 -8.31425
1052 2 14.1539 12.3847 19.4616 -6.89662
1310 3 14.1539 14.1539 17.6924 -6.17367
2309 2 14.1539 14.1539 21.2309 -6.94706
3557 1 12.3847 12.3847 17.6924 -8.07132
510 3 15.9232 12.3847 17.6924 -6.25884
1557 3 15.9232 12.3847 21.2309 -6.39351
1804 1 15.9232 14.1539 19.4616 -8.9485
1558 1 1.76924 15.9232 17.6924 -8.54353
2053 1 0 15.9232 19.4616 -8.48799
2558 2 1.76924 15.9232 21.2309 -7.00684
2559 2 5.30772 15.9232 17.6924 -6.86214
3053 2 3.53848 15.9232 19.4616 -6.98633
3558 3 5.30772 15.9232 21.2309 -6.49685
511 3 8.8462 15.9232 21.2309 -6.32178
37 1 7.07696 15.9232 19.4616 -8.44129
1053 2 10.6154 15.9232 19.4616 -6.93831
3559 1 8.8462 15.9232 17.6924 -8.38189
512 2 12.3847 15.9232 17.6924 -6.84616
1559 1 12.3847 15.9232 21.2309 -8.42811
2054 3 14.1539 15.9232 19.4616 -6.39472
1560 3 15.9232 15.9232 17.6924 -6.52188
2560 2 15.9232 15.9232 21.2309 -7.01235
2803 2 1.76924 0 23.0001 -6.95482
3054 1 0 1.76924 23.0001 -8.59107
3309 2 0 0 24.7694 -6.94307
3560 2 1.76924 1.76924 24.7694 -6.87036
39 2 5.30772 1.76924 24.7694 -6.96563
38 3 3.53848 1.76924 23.0001 -6.47576
3805 3 3.53848 0 24.7694 -6.4079
3804 1 5.30772 0 23.0001 -8.50993
513 2 8.8462 1.76924 24.7694 -6.95839
295 2 7.07696 0 24.7694 -7.00782
806 1 10.6154 0 24.7694 -8.51676
805 1 8.8462 0 23.0001 -8.55651
1054 2 7.07696 1.76924 23.0001 -6.95977
2055 3 10.6154 1.76924 23.0001 -6.31327
1055 1 12.3847 1.76924 24.7694 -8.40927
1311 3 14.1539 0 24.7694 -6.19356
1805 3 12.3847 0 23.0001 -6.3807
3055 2 14.1539 1.76924 23.0001 -6.89357
1561 3 15.9232 1.76924 24.7694 -6.17354
2804 1 15.9232 0 23.0001 -8.46893
40 1 0 5.30772 23.0001 -8.54069
1806 3 0 3.53848 24.7694 -6.15079
2056 1 1.76924 5.30772 24.7694 -8.49142
3806 3 1.76924 3.53848 23.0001 -6.27535
807 2 5.30772 3.53848 23.0001 -6.96143
1056 3 3.53848 5.30772 23.0001 -6.4077
2310 3 3.53848 3.53848 24.7694 -6.3844
2561 2 5.30772 5.30772 24.7694 -6.84294
1807 1 8.8462 3.53848 23.0001 -8.61947
2057 1 7.07696 5.30772 23.0001 -8.57398
2805 3 7.07696 3.53848 24.7694 -6.40725
3057 2 10.6154 5.30772 23.0001 -6.96579
3056 2 8.8462 5.30772 24.7694 -6.96306
3310 1 10.6154 3.53848 24.7694 -8.31611
41 2 14.1539 5.30772 23.0001 -7.09181
2806 1 12.3847 3.53848 23.0001 -8.45597
3561 2 12.3847 5.30772 24.7694 -7.04247
3808 2 14.1539 3.53848 24.7694 -6.96778
42 2 15.9232 5.30772 24.7694 -6.9674
3807 2 15.9232 3.53848 23.0001 -6.95199
514 3 1.76924 8.8462 24.7694 -6.37722
296 1 0 7.07696 24.7694 -8.30655
808 1 1.76924 7.07696 23.0001 -8.40588
1057 2 0 8.8462 23.0001 -7.00946
1810 1 1.76924 10.6154 23.0001 -8.66895
2808 3 0 10.6154 24.7694 -6.47993
809 3 3.53848 7.07696 24.7694 -6.37222
1058 2 5.30772 8.8462 24.7694 -6.94266
1808 3 5.30772 7.07696 23.0001 -6.55335
2058 2 3.53848 8.8462 23.0001 -6.99943
2809 1 5.30772 10.6154 23.0001 -8.59864
3311 2 3.53848 10.6154 24.7694 -6.873
43 2 10.6154 8.8462 23.0001 -6.99867
297 2 10.6154 10.6154 24.7694 -7.03388
1312 1 7.07696 7.07696 24.7694 -8.50376
1562 3 8.8462 8.8462 24.7694 -6.28619
1809 1 10.6154 7.07696 24.7694 -8.56278
2807 2 8.8462 7.07696 23.0001 -6.87776
3058 3 7.07696 8.8462 23.0001 -6.39866
3811 1 7.07696 10.6154 24.7694 -8.64073
3810 2 8.8462 10.6154 23.0001 -6.94533
812 2 14.1539 10.6154 24.7694 -7.0835
811 3 12.3847 10.6154 23.0001 -6.55514
1059 2 14.1539 8.8462 23.0001 -7.07181
2059 2 12.3847 8.8462 24.7694 -7.04722
2311 1 14.1539 7.07696 24.7694 -8.39476
3809 1 12.3847 7.07696 23.0001 -8.3244
810 2 15.9232 7.07696 23.0001 -7.02643
1811 2 15.9232 10.6154 23.0001 -6.96374
2562 2 15.9232 8.8462 24.7694 -7.01949
1313 3 0 14.1539 24.7694 -6.23033
2060 3 0 12.3847 23.0001 -6.33235
2810 3 1.76924 14.1539 23.0001 -6.5537
3059 3 1.76924 12.3847 24.7694 -6.42169
1812 1 3.53848 14.1539 24.7694 -8.77763
3060 2 3.53848 12.3847 23.0001 -6.95815
3562 3 5.30772 12.3847 24.7694 -6.19423
3812 3 5.30772 14.1539 23.0001 -6.55412
45 3 8.8462 12.3847 24.7694 -6.43794
44 3 7.07696 12.3847 23.0001 -6.47617
813 2 8.8462 14.1539 23.0001 -6.96157
1060 1 10.6154 12.3847 23.0001 -8.42437
2312 1 7.07696 14.1539 24.7694 -8.90058
2811 2 10.6154 14.1539 24.7694 -6.98994
515 1 12.3847 12.3847 24.7694 -8.51184
1813 2 12.3847 14.1539 23.0001 -7.00756
2061 2 14.1539 12.3847 23.0001 -7.02892
3312 3 14.1539 14.1539 24.7694 -6.31763
1061 3 15.9232 12.3847 24.7694 -6.35128
2812 1 15.9232 14.1539 23.0001 -8.58112
1563 2 1.76924 15.9232 24.7694 -6.9483
3061 1 0 15.9232 23.0001 -8.39574
46 3 3.53848 15.9232 23.0001 -6.57733
2062 2 5.30772 15.9232 24.7694 -6.96498
1062 3 7.07696 15.9232 23.0001 -6.54256
2063 1 10.6154 15.9232 23.0001 -8.57343
2563 3 8.8462 15.9232 24.7694 -6.52187
3063 3 14.1539 15.9232 23.0001 -6.45217
3062 2 12.3847 15.9232 24.7694 -6.9808
3563 1 15.9232 15.9232 24.7694 -8.43861
751 2 1.76924 0 30.0771 -6.95832
47 3 0 1.76924 26.5386 -6.28271
298 2 0 0 28.3078 -6.93186
548 3 1.76924 1.76924 28.3078 -6.33649
1063 3 0 1.76924 30.0771 -6.49258
3813 1 1.76924 0 26.5386 -8.55341
299 2 5.30772 0 26.5386 -6.97084
549 1 3.53848 1.76924 26.5386 -8.64724
1314 2 3.53848 0 28.3078 -6.9839
1564 3 5.30772 1.76924 28.3078 -6.32327
1814 3 5.30772 0 30.0771 -6.29004
2064 3 3.53848 1.76924 30.0771 -6.46008
752 2 8.8462 0 26.5386 -6.97171
48 1 10.6154 1.76924 30.0771 -8.63393
1064 1 7.07696 1.76924 26.5386 -8.75268
1565 3 10.6154 1.76924 26.5386 -6.43148
2313 2 7.07696 0 28.3078 -6.94745
2564 3 8.8462 1.76924 28.3078 -6.38563
2813 3 8.8462 0 30.0771 -6.2026
3064 1 7.07696 1.76924 30.0771 -8.58677
3313 3 10.6154 0 28.3078 -6.36458
300 1 14.1539 0 28.3078 -8.2111
1065 1 14.1539 1.76924 30.0771 -8.29442
1315 2 12.3847 0 26.5386 -6.88472
2065 1 14.1539 1.76924 26.5386 -8.14315
3564 2 12.3847 1.76924 28.3078 -6.94866
3814 1 12.3847 0 30.0771 -8.27217
753 1 15.9232 0 30.0771 -8.33417
550 1 15.9232 1.76924 28.3078 -7.86188
1815 1 15.9232 0 26.5386 -8.65433
1316 1 0 3.53848 28.3078 -8.74012
1566 2 1.76924 5.30772 28.3078 -6.82735
1816 3 1.76924 3.53848 30.0771 -6.35165
2066 3 0 5.30772 30.0771 -6.42013
2314 3 1.76924 3.53848 26.5386 -6.16566
2565 1 0 5.30772 26.5386 -8.14061
2315 1 3.53848 3.53848 28.3078 -8.52894
2566 1 5.30772 5.30772 28.3078 -8.55775
2815 2 5.30772 3.53848 30.0771 -6.90766
2814 3 5.30772 3.53848 26.5386 -6.28583
3066 1 3.53848 5.30772 30.0771 -8.50901