ITEM: TIMESTEP
0
ITEM: NUMBER OF ATOMS
4000
ITEM: BOX BOUNDS pp pp pp
0.0000000000000000e+00 3.5966380000000001e+01
0.0000000000000000e+00 3.5966380000000001e+01
0.0000000000000000e+00 3.5966380000000001e+01
ITEM: ATOMS id type x y z c_peratom
267 1 0 0 0 -8.24638
516 3 1.79832 1.79832 0 -6.40965
767 1 1.79832 0 1.79832 -8.29297
1016 2 0 1.79832 1.79832 -6.88874
1267 3 0 0 3.59664 -6.44566
1517 2 1.79832 1.79832 3.59664 -6.96634
1268 3 3.59664 0 0 -6.42458
1518 1 5.39496 1.79832 0 -8.19812
1767 2 5.39496 0 1.79832 -7.01921
2017 1 3.59664 1.79832 1.79832 -8.22903
2266 2 3.59664 0 3.59664 -7.03487
2517 1 5.39496 1.79832 3.59664 -8.33117
1 1 10.7899 1.79832 1.79832 -8.33032
268 1 10.7899 0 3.59664 -7.89511
2267 1 7.19328 0 0 -8.25196
2518 2 8.9916 1.79832 0 -6.8967
2766 1 8.9916 0 1.79832 -8.07189
3017 1 7.19328 1.79832 1.79832 -8.32379
3266 3 7.19328 0 3.59664 -6.35108
3267 3 10.7899 0 0 -6.52048
3517 3 8.9916 1.79832 3.59664 -6.21469
517 1 12.5882 1.79832 3.59664 -7.99426
3518 2 12.5882 1.79832 0 -7.14998
3767 3 12.5882 0 1.79832 -6.46668
269 2 14.3866 0 0 -7.18827
518 2 16.1849 1.79832 0 -7.13529
768 1 16.1849 0 1.79832 -8.19735
1017 1 14.3866 1.79832 1.79832 -8.23592
1269 2 14.3866 0 3.59664 -7.0861
1519 2 16.1849 1.79832 3.59664 -7.11157
1270 2 0 3.59664 0 -7.03673
1520 1 1.79832 5.39496 0 -8.14745
1768 1 1.79832 3.59664 1.79832 -8.15019
2018 2 0 5.39496 1.79832 -7.11732
2268 1 0 3.59664 3.59664 -8.22577
2519 1 1.79832 5.39496 3.59664 -8.00713
2269 3 3.59664 3.59664 0 -6.36723
2520 2 5.39496 5.39496 0 -6.97257
2767 3 5.39496 3.59664 1.79832 -6.42122
3018 2 3.59664 5.39496 1.79832 -7.05044
3268 3 3.59664 3.59664 3.59664 -6.31093
3519 3 5.39496 5.39496 3.59664 -6.33575
2 2 7.19328 5.39496 1.79832 -6.98407
271 3 10.7899 3.59664 0 -6.56717
270 3 7.19328 3.59664 3.59664 -6.35296
519 2 8.9916 5.39496 3.59664 -7.00692
1018 2 10.7899 5.39496 1.79832 -7.01036
1271 2 10.7899 3.59664 3.59664 -7.08246
3269 3 7.19328 3.59664 0 -6.39231
3520 1 8.9916 5.39496 0 -8.53186
3768 3 8.9916 3.59664 1.79832 -6.48924
520 2 12.5882 5.39496 0 -7.0112
769 2 12.5882 3.59664 1.79832 -7.11001
1521 1 12.5882 5.39496 3.59664 -8.17066
1272 2 14.3866 3.59664 0 -7.16927
1522 1 16.1849 5.39496 0 -8.14004
1769 2 16.1849 3.59664 1.79832 -7.13984
2019 1 14.3866 5.39496 1.79832 -8.05142
2270 2 14.3866 3.59664 3.59664 -7.08521
2521 1 16.1849 5.39496 3.59664 -8.20221
274 2 0 10.7899 3.59664 -7.04505
2271 2 0 7.19328 0 -7.07419
2522 2 1.79832 8.9916 0 -6.97728
2768 1 1.79832 7.19328 1.79832 -8.0798
3019 2 0 8.9916 1.79832 -7.05006
3273 3 0 10.7899 0 -6.29854
3270 1 0 7.19328 3.59664 -8.22179
3521 3 1.79832 8.9916 3.59664 -6.29075
3770 1 1.79832 10.7899 1.79832 -8.29581
3 3 3.59664 8.9916 1.79832 -6.17791
275 3 3.59664 10.7899 0 -6.37619
272 1 3.59664 7.19328 3.59664 -8.10926
521 1 5.39496 8.9916 3.59664 -7.92583
771 1 5.39496 10.7899 1.79832 -8.06533
1275 1 3.59664 10.7899 3.59664 -8.05335
3271 1 3.59664 7.19328 0 -8.14176
3522 2 5.39496 8.9916 0 -6.97864
3769 1 5.39496 7.19328 1.79832 -8.27076
273 3 7.19328 7.19328 0 -6.60973
522 1 8.9916 8.9916 0 -8.31407
770 2 8.9916 7.19328 1.79832 -7.08837
1019 2 7.19328 8.9916 1.79832 -7.01077
1276 1 7.19328 10.7899 0 -8.22798
1274 3 10.7899 7.19328 0 -6.44181
1273 3 7.19328 7.19328 3.59664 -6.40499
1523 3 8.9916 8.9916 3.59664 -6.54978
1771 3 8.9916 10.7899 1.79832 -6.34638
2020 2 10.7899 8.9916 1.79832 -6.89305
2275 3 10.7899 10.7899 0 -6.37001
2274 1 7.19328 10.7899 3.59664 -8.09857
2272 2 10.7899 7.19328 3.59664 -7.02224
3274 3 10.7899 10.7899 3.59664 -6.53155
1524 1 12.5882 8.9916 0 -8.28077
1770 3 12.5882 7.19328 1.79832 -6.32219
2523 1 12.5882 8.9916 3.59664 -8.40179
2770 3 12.5882 10.7899 1.79832 -6.37795
276 3 14.3866 10.7899 3.59664 -6.45682
2273 1 14.3866 7.19328 0 -8.10097
2524 1 16.1849 8.9916 0 -8.0974
2769 2 16.1849 7.19328 1.79832 -7.15673
3020 1 14.3866 8.9916 1.79832 -7.99973
3275 1 14.3866 10.7899 0 -8.25489
3272 1 14.3866 7.19328 3.59664 -8.01707
3523 1 16.1849 8.9916 3.59664 -8.13412
3771 2 16.1849 10.7899 1.79832 -7.04119
4 2 0 12.5882 1.79832 -7.0458
523 3 1.79832 12.5882 3.59664 -6.47859
3524 1 1.79832 12.5882 0 -8.15634
524 1 5.39496 12.5882 0 -8.18555
1020 1 3.59664 12.5882 1.79832 -7.9267
1525 1 5.39496 12.5882 3.59664 -8.16504
1526 3 8.9916 12.5882 0 -6.39666
2021 3 7.19328 12.5882 1.79832 -6.19944
2525 1 8.9916 12.5882 3.59664 -8.22363
3021 1 10.7899 12.5882 1.79832 -8.51322
2526 2 12.5882 12.5882 0 -6.93365
3525 2 12.5882 12.5882 3.59664 -7.03027
5 2 14.3866 12.5882 1.79832 -7.06675
525 3 16.1849 12.5882 3.59664 -6.52737
3526 2 16.1849 12.5882 0 -7.01764
277 2 0 14.3866 0 -7.09403
526 2 1.79832 16.1849 0 -7.1208
772 2 1.79832 14.3866 1.79832 -7.04398
1021 3 0 16.1849 1.79832 -6.69201
1277 3 0 14.3866 3.59664 -6.71413
1527 2 1.79832 16.1849 3.59664 -7.0313
1278 1 3.59664 14.3866 0 -8.02339
1528 2 5.39496 16.1849 0 -7.02091
1772 1 5.39496 14.3866 1.79832 -8.18498
2022 3 3.59664 16.1849 1.79832 -6.57768
2276 2 3.59664 14.3866 3.59664 -7.04711
2527 2 5.39496 16.1849 3.59664 -6.98987
6 2 10.7899 16.1849 1.79832 -6.94592
278 3 10.7899 14.3866 3.59664 -6.37123
2277 3 7.19328 14.3866 0 -6.34885
2528 2 8.9916 16.1849 0 -6.96297
2771 1 8.9916 14.3866 1.79832 -8.36216
3022 1 7.19328 16.1849 1.79832 -8.26758
3277 3 10.7899 14.3866 0 -6.43927
3276 3 7.19328 14.3866 3.59664 -6.25253
3527 3 8.9916 16.1849 3.59664 -6.25495
527 1 12.5882 16.1849 3.59664 -8.47764
3528 1 12.5882 16.1849 0 -8.44967
3772 2 12.5882 14.3866 1.79832 -6.99755
279 1 14.3866 14.3866 0 -8.33059
528 2 16.1849 16.1849 0 -7.04905
773 2 16.1849 14.3866 1.79832 -7.0969
1022 3 14.3866 16.1849 1.79832 -6.59518
1279 3 14.3866 14.3866 3.59664 -6.62308
1529 2 16.1849 16.1849 3.59664 -7.07805
1773 3 1.79832 0 5.39496 -6.59001
2023 3 0 1.79832 5.39496 -6.60944
2278 2 0 0 7.19328 -7.01111
2529 2 1.79832 1.79832 7.19328 -7.02102
2773 3 3.59664 0 7.19328 -6.47781
2772 3 5.39496 0 5.39496 -6.45567
3024 2 5.39496 1.79832 7.19328 -6.92978
3023 3 3.59664 1.79832 5.39496 -6.53192
7 2 7.19328 1.79832 5.39496 -6.93296
1023 1 10.7899 1.79832 5.39496 -7.94341
3278 1 7.19328 0 7.19328 -8.20267
3529 1 8.9916 1.79832 7.19328 -8.14783
3774 2 10.7899 0 7.19328 -7.0459
3773 1 8.9916 0 5.39496 -8.06863
8 2 12.5882 1.79832 7.19328 -7.04151
774 1 12.5882 0 5.39496 -8.14817
280 2 14.3866 0 7.19328 -7.07697
529 1 16.1849 1.79832 7.19328 -8.14341
1774 2 16.1849 0 5.39496 -7.06348
2024 2 14.3866 1.79832 5.39496 -7.08103
775 2 0 3.59664 7.19328 -7.0247
1024 2 1.79832 5.39496 7.19328 -6.99546
2774 1 1.79832 3.59664 5.39496 -8.31726
3025 2 0 5.39496 5.39496 -7.04047
9 2 3.59664 5.39496 5.39496 -7.01211
1280 2 3.59664 3.59664 7.19328 -7.05995
1530 1 5.39496 5.39496 7.19328 -7.98463
3775 1 5.39496 3.59664 5.39496 -8.25524
776 1 8.9916 3.59664 5.39496 -8.06971
1025 1 7.19328 5.39496 5.39496 -8.17115
1775 2 7.19328 3.59664 7.19328 -7.02586
2026 1 10.7899 5.39496 5.39496 -8.2066
2025 1 8.9916 5.39496 7.19328 -8.22321
2279 1 10.7899 3.59664 7.19328 -8.14424
1776 1 12.5882 3.59664 5.39496 -7.95676
2530 3 12.5882 5.39496 7.19328 -6.34839
2776 1 14.3866 3.59664 7.19328 -8.23552
2775 1 16.1849 3.59664 5.39496 -8.29034
3027 3 16.1849 5.39496 7.19328 -6.47208
3026 3 14.3866 5.39496 5.39496 -6.32871
10 3 0 8.9916 5.39496 -6.32644
779 1 1.79832 10.7899 5.39496 -8.19358
1778 2 0 10.7899 7.19328 -6.99111
3279 1 0 7.19328 7.19328 -8.21398
3530 1 1.79832 8.9916 7.19328 -8.06734
3776 3 1.79832 7.19328 5.39496 -6.27948
11 1 5.39496 8.9916 7.19328 -8.15097
777 1 5.39496 7.19328 5.39496 -7.90217
1026 2 3.59664 8.9916 5.39496 -7.06136
1779 2 5.39496 10.7899 5.39496 -7.06862
2280 2 3.59664 10.7899 7.19328 -7.03081
3777 1 3.59664 7.19328 7.19328 -8.06542
281 1 7.19328 7.19328 7.19328 -8.01401
530 2 8.9916 8.9916 7.19328 -6.95764
778 3 10.7899 7.19328 7.19328 -6.40205
1777 3 8.9916 7.19328 5.39496 -6.37372
2027 1 7.19328 8.9916 5.39496 -8.08965
2779 1 7.19328 10.7899 7.19328 -8.18292
2778 2 8.9916 10.7899 5.39496 -7.01749
3028 3 10.7899 8.9916 5.39496 -6.60624
3280 3 10.7899 10.7899 7.19328 -6.58338
1027 2 12.5882 8.9916 7.19328 -6.89496
2777 3 12.5882 7.19328 5.39496 -6.35029
3779 2 12.5882 10.7899 5.39496 -6.96726
12 1 14.3866 8.9916 5.39496 -8.1883
780 1 16.1849 10.7899 5.39496 -8.38244
1281 3 14.3866 7.19328 7.19328 -6.40239
1531 1 16.1849 8.9916 7.19328 -8.24097
3780 3 14.3866 10.7899 7.19328 -6.33301
3778 2 16.1849 7.19328 5.39496 -6.94111
1028 2 0 12.5882 5.39496 -7.12484
2028 1 1.79832 12.5882 7.19328 -8.11499
2029 2 3.59664 12.5882 5.39496 -7.12097
2531 2 5.39496 12.5882 7.19328 -7.08481
13 2 10.7899 12.5882 5.39496 -7.0256
3030 2 8.9916 12.5882 7.19328 -6.99422
3029 3 7.19328 12.5882 5.39496 -6.42231
3531 3 12.5882 12.5882 7.19328 -6.45449
14 3 16.1849 12.5882 7.19328 -6.43557
1029 3 14.3866 12.5882 5.39496 -6.52654
282 1 0 14.3866 7.19328 -8.17043
531 3 1.79832 16.1849 7.19328 -6.44165
1780 1 1.79832 14.3866 5.39496 -8.43646
2030 3 0 16.1849 5.39496 -6.53337
781 2 3.59664 14.3866 7.19328 -7.03428
1030 1 5.39496 16.1849 7.19328 -8.27994
2780 2 5.39496 14.3866 5.39496 -6.98967
3031 3 3.59664 16.1849 5.39496 -6.49811
15 1 7.19328 16.1849 5.39496 -8.07517
1031 1 10.7899 16.1849 5.39496 -8.123
1282 2 7.19328 14.3866 7.19328 -6.98096
1532 1 8.9916 16.1849 7.19328 -8.01872
1781 1 10.7899 14.3866 7.19328 -8.22134
3781 1 8.9916 14.3866 5.39496 -8.1949
782 2 12.5882 14.3866 5.39496 -6.8896
2031 3 12.5882 16.1849 7.19328 -6.34237
1782 1 16.1849 14.3866 5.39496 -8.55107
2032 3 14.3866 16.1849 5.39496 -6.46062
2281 3 14.3866 14.3866 7.19328 -6.42733
2532 3 16.1849 16.1849 7.19328 -6.42503
16 1 0 1.79832 12.5882 -8.41694
2781 2 1.79832 0 8.9916 -7.07762
3032 1 0 1.79832 8.9916 -8.35869
3281 3 0 0 10.7899 -6.52645
3532 1 1.79832 1.79832 10.7899 -8.25142
3782 2 1.79832 0 12.5882 -7.00232
251 2 3.59664 0 10.7899 -7.04793
532 3 5.39496 1.79832 10.7899 -6.48755
783 1 5.39496 0 12.5882 -8.32359
1032 2 3.59664 1.79832 12.5882 -6.94502
3282 3 5.39496 0 8.9916 -6.43513
3533 1 3.59664 1.79832 8.9916 -8.34525
17 3 7.19328 1.79832 8.9916 -6.47298
533 2 10.7899 1.79832 8.9916 -7.0155
1283 1 7.19328 0 10.7899 -8.32716
1533 2 8.9916 1.79832 10.7899 -7.06274
1783 2 8.9916 0 12.5882 -7.01673
2033 2 7.19328 1.79832 12.5882 -7.02654
2282 1 10.7899 0 10.7899 -8.41266
3033 3 10.7899 1.79832 12.5882 -6.54368
3783 2 8.9916 0 8.9916 -7.03077
252 3 12.5882 0 8.9916 -6.62538
2533 2 12.5882 1.79832 10.7899 -6.89195
2782 1 12.5882 0 12.5882 -8.33452
18 1 14.3866 1.79832 12.5882 -8.18332
784 2 16.1849 0 8.9916 -7.02601
1033 1 14.3866 1.79832 8.9916 -8.25485
3283 3 14.3866 0 10.7899 -6.44799
3534 1 16.1849 1.79832 10.7899 -8.12994
3784 3 16.1849 0 12.5882 -6.46904
253 1 0 3.59664 10.7899 -8.20211
534 1 1.79832 5.39496 10.7899 -8.25954
785 3 1.79832 3.59664 12.5882 -6.45761
1034 2 0 5.39496 12.5882 -7.02662
1284 3 1.79832 3.59664 8.9916 -6.37063
1534 2 0 5.39496 8.9916 -6.97558
1285 3 3.59664 3.59664 10.7899 -6.39892
1535 2 5.39496 5.39496 10.7899 -6.91005
1785 3 5.39496 3.59664 12.5882 -6.56811
1784 1 5.39496 3.59664 8.9916 -8.18983
2035 3 3.59664 5.39496 12.5882 -6.39652
2034 1 3.59664 5.39496 8.9916 -8.08732
19 2 10.7899 5.39496 12.5882 -7.01743
2284 2 7.19328 3.59664 10.7899 -7.05822
2283 3 8.9916 3.59664 8.9916 -6.58126
2535 2 8.9916 5.39496 10.7899 -7.08501
2534 2 7.19328 5.39496 8.9916 -6.98561
2783 3 8.9916 3.59664 12.5882 -6.71682
3035 2 10.7899 5.39496 8.9916 -6.95109
3034 3 7.19328 5.39496 12.5882 -6.58748
3284 3 10.7899 3.59664 10.7899 -6.71484
2784 3 12.5882 3.59664 8.9916 -6.46322
3535 3 12.5882 5.39496 10.7899 -6.5177
3785 3 12.5882 3.59664 12.5882 -6.49522
254 1 14.3866 3.59664 10.7899 -8.29605
535 2 16.1849 5.39496 10.7899 -6.91095
786 1 16.1849 3.59664 12.5882 -8.2266
1035 3 14.3866 5.39496 12.5882 -6.3519
3285 3 16.1849 3.59664 8.9916 -6.38607
3536 2 14.3866 5.39496 8.9916 -6.91905
20 2 0 8.9916 8.9916 -6.97812
1286 3 0 7.19328 10.7899 -6.60375
1536 3 1.79832 8.9916 10.7899 -6.38346
1786 2 1.79832 7.19328 12.5882 -6.9667
2036 2 0 8.9916 12.5882 -7.05211
2287 3 0 10.7899 10.7899 -6.39411
2286 1 1.79832 10.7899 8.9916 -8.19191
2786 1 1.79832 10.7899 12.5882 -8.42231
3786 1 1.79832 7.19328 8.9916 -8.08137
255 3 5.39496 7.19328 8.9916 -6.28726
536 3 3.59664 8.9916 8.9916 -6.25647
2285 1 3.59664 7.19328 10.7899 -8.38609
2536 2 5.39496 8.9916 10.7899 -6.95375
2787 3 5.39496 10.7899 8.9916 -6.45218
2785 3 5.39496 7.19328 12.5882 -6.50445
3036 3 3.59664 8.9916 12.5882 -6.47627
3287 1 3.59664 10.7899 10.7899 -8.33778
3788 2 5.39496 10.7899 12.5882 -7.02994
256 2 10.7899 7.19328 10.7899 -7.02137
257 2 7.19328 10.7899 10.7899 -6.98397
21 3 7.19328 8.9916 12.5882 -6.58938
789 1 8.9916 10.7899 12.5882 -8.45733
787 3 8.9916 7.19328 8.9916 -6.49102
1037 3 10.7899 8.9916 12.5882 -6.55313
1036 1 7.19328 8.9916 8.9916 -8.32295
1289 3 10.7899 10.7899 10.7899 -6.43524
1537 1 10.7899 8.9916 8.9916 -8.3892
3288 2 8.9916 10.7899 8.9916 -6.99509
3286 3 7.19328 7.19328 10.7899 -6.61694
3537 3 8.9916 8.9916 10.7899 -6.50614
3787 3 8.9916 7.19328 12.5882 -6.70043
537 2 12.5882 8.9916 10.7899 -6.98433
788 1 12.5882 7.19328 12.5882 -8.51722
1287 1 12.5882 7.19328 8.9916 -8.36072
1789 2 12.5882 10.7899 12.5882 -6.94627
3789 1 12.5882 10.7899 8.9916 -8.39956
258 1 16.1849 10.7899 8.9916 -8.43212
1288 2 14.3866 7.19328 10.7899 -6.99928
1538 2 16.1849 8.9916 10.7899 -6.96535
1788 1 16.1849 7.19328 12.5882 -8.11798
1787 3 16.1849 7.19328 8.9916 -6.48165
2038 1 14.3866 8.9916 12.5882 -8.16089
2037 1 14.3866 8.9916 8.9916 -8.21267
2288 3 14.3866 10.7899 10.7899 -6.35267
2788 2 16.1849 10.7899 12.5882 -7.06554
2538 1 1.79832 12.5882 10.7899 -8.23094
2537 3 0 12.5882 8.9916 -6.3564
3037 2 0 12.5882 12.5882 -7.05791
22 3 3.59664 12.5882 12.5882 -6.4675
3038 2 3.59664 12.5882 8.9916 -7.08236
3538 2 5.39496 12.5882 10.7899 -7.07506
23 3 10.7899 12.5882 8.9916 -6.47905
538 2 8.9916 12.5882 10.7899 -7.02022
1038 1 7.19328 12.5882 12.5882 -8.22459
2039 3 10.7899 12.5882 12.5882 -6.60186
3539 1 7.19328 12.5882 8.9916 -8.23313
1539 1 12.5882 12.5882 10.7899 -8.32979
539 3 14.3866 12.5882 8.9916 -6.3547
2539 2 16.1849 12.5882 10.7899 -6.98133
3039 1 14.3866 12.5882 12.5882 -8.23793
24 2 0 16.1849 12.5882 -7.07562
790 2 1.79832 14.3866 8.9916 -6.89514
1039 1 0 16.1849 8.9916 -8.20152
3289 2 0 14.3866 10.7899 -7.0406
3540 1 1.79832 16.1849 10.7899 -8.2752
3790 1 1.79832 14.3866 12.5882 -8.19751
259 3 3.59664 14.3866 10.7899 -6.47383
540 2 5.39496 16.1849 10.7899 -7.07525
791 2 5.39496 14.3866 12.5882 -7.06489
1040 2 3.59664 16.1849 12.5882 -7.08638
1290 1 5.39496 14.3866 8.9916 -8.30165
1540 3 3.59664 16.1849 8.9916 -6.39358
1291 2 7.19328 14.3866 10.7899 -7.11057
1541 2 8.9916 16.1849 10.7899 -7.09256
1791 3 8.9916 14.3866 12.5882 -6.64991
1790 3 8.9916 14.3866 8.9916 -6.53406
2041 3 7.19328 16.1849 12.5882 -6.82105
2040 3 7.19328 16.1849 8.9916 -6.45965
2290 3 10.7899 14.3866 10.7899 -6.49302
2540 2 10.7899 16.1849 8.9916 -6.97347
3040 1 10.7899 16.1849 12.5882 -8.40933
2289 1 12.5882 14.3866 8.9916 -8.41892
2541 3 12.5882 16.1849 10.7899 -6.40592
2789 3 12.5882 14.3866 12.5882 -6.39942
25 3 14.3866 16.1849 12.5882 -6.41364
2790 3 16.1849 14.3866 8.9916 -6.48846
3041 3 14.3866 16.1849 8.9916 -6.37008
3290 1 14.3866 14.3866 10.7899 -8.2341
3541 1 16.1849 16.1849 10.7899 -8.35509
3791 2 16.1849 14.3866 12.5882 -6.98799
260 3 0 0 14.3866 -6.48084
541 3 1.79832 1.79832 14.3866 -6.41412
792 1 1.79832 0 16.1849 -8.43141
1041 1 0 1.79832 16.1849 -8.26121
1292 1 3.59664 0 14.3866 -8.27322
1542 3 5.39496 1.79832 14.3866 -6.44766
1792 1 5.39496 0 16.1849 -8.28947
2042 3 3.59664 1.79832 16.1849 -6.2957
26 1 10.7899 1.79832 16.1849 -8.19338
2291 3 7.19328 0 14.3866 -6.59584
2542 2 8.9916 1.79832 14.3866 -6.9822
2791 2 8.9916 0 16.1849 -6.99055
3042 3 7.19328 1.79832 16.1849 -6.37673
3291 3 10.7899 0 14.3866 -6.50431
3542 1 12.5882 1.79832 14.3866 -8.32979
3792 2 12.5882 0 16.1849 -6.99381
261 3 14.3866 0 14.3866 -6.45237
542 2 16.1849 1.79832 14.3866 -6.99085
793 2 16.1849 0 16.1849 -7.08848
1042 3 14.3866 1.79832 16.1849 -6.39056
1293 2 0 3.59664 14.3866 -7.00223
1543 3 1.79832 5.39496 14.3866 -6.49315
1793 1 1.79832 3.59664 16.1849 -8.4912
2043 3 0 5.39496 16.1849 -6.51433
2292 3 3.59664 3.59664 14.3866 -6.46842
2543 1 5.39496 5.39496 14.3866 -8.42709
2792 2 5.39496 3.59664 16.1849 -6.82277
3043 3 3.59664 5.39496 16.1849 -6.23834
262 3 10.7899 3.59664 14.3866 -6.51136
27 2 7.19328 5.39496 16.1849 -7.0079
1043 2 10.7899 5.39496 16.1849 -7.02775
3292 1 7.19328 3.59664 14.3866 -8.33864
3543 2 8.9916 5.39496 14.3866 -6.99203
3793 1 8.9916 3.59664 16.1849 -8.32772
543 3 12.5882 5.39496 14.3866 -6.48249
794 1 12.5882 3.59664 16.1849 -8.28641
1294 3 14.3866 3.59664 14.3866 -6.28351
1544 1 16.1849 5.39496 14.3866 -8.1537
1794 1 16.1849 3.59664 16.1849 -8.21938
2044 2 14.3866 5.39496 16.1849 -7.00305
2293 2 0 7.19328 14.3866 -7.11277
2544 2 1.79832 8.9916 14.3866 -7.08571
2793 1 1.79832 7.19328 16.1849 -8.40925
3044 2 0 8.9916 16.1849 -7.11491
3294 3 0 10.7899 14.3866 -6.63757
3795 2 1.79832 10.7899 16.1849 -7.05555
264 2 3.59664 10.7899 14.3866 -7.00287
28 3 3.59664 8.9916 16.1849 -6.38051
796 1 5.39496 10.7899 16.1849 -8.29019
3293 1 3.59664 7.19328 14.3866 -8.3454
3544 2 5.39496 8.9916 14.3866 -6.95377
3794 1 5.39496 7.19328 16.1849 -8.18511
263 3 7.19328 7.19328 14.3866 -6.51229
544 3 8.9916 8.9916 14.3866 -6.51038
795 1 8.9916 7.19328 16.1849 -8.47939
1044 3 7.19328 8.9916 16.1849 -6.39736
1296 1 7.19328 10.7899 14.3866 -8.30571
1295 3 10.7899 7.19328 14.3866 -6.60554
1796 2 8.9916 10.7899 16.1849 -7.01508
2045 2 10.7899 8.9916 16.1849 -7.06227
2295 2 10.7899 10.7899 14.3866 -7.00944
1545 3 12.5882 8.9916 14.3866 -6.48393
1795 2 12.5882 7.19328 16.1849 -7.03607
2795 3 12.5882 10.7899 16.1849 -6.4882
2294 3 14.3866 7.19328 14.3866 -6.30658
2545 1 16.1849 8.9916 14.3866 -8.05859
2794 1 16.1849 7.19328 16.1849 -8.08847
3045 1 14.3866 8.9916 16.1849 -8.22358
3295 1 14.3866 10.7899 14.3866 -8.1354
3796 3 16.1849 10.7899 16.1849 -6.40589
29 3 0 12.5882 16.1849 -6.48735
3545 2 1.79832 12.5882 14.3866 -7.00758
545 2 5.39496 12.5882 14.3866 -7.1005
1045 1 3.59664 12.5882 16.1849 -7.89148
1546 2 8.9916 12.5882 14.3866 -7.07932
2046 2 7.19328 12.5882 16.1849 -7.05188
3046 1 10.7899 12.5882 16.1849 -8.40082
2546 3 12.5882 12.5882 14.3866 -6.46352
30 1 14.3866 12.5882 16.1849 -8.44929
3546 2 16.1849 12.5882 14.3866 -6.97505
265 2 0 14.3866 14.3866 -6.9917
546 1 1.79832 16.1849 14.3866 -8.1971
797 1 1.79832 14.3866 16.1849 -8.1421
1046 3 0 16.1849 16.1849 -6.40526
1297 1 3.59664 14.3866 14.3866 -8.13221
1547 3 5.39496 16.1849 14.3866 -6.55529
1797 1 5.39496 14.3866 16.1849 -8.27971
2047 3 3.59664 16.1849 16.1849 -6.31372
31 1 10.7899 16.1849 16.1849 -8.12149
2296 2 7.19328 14.3866 14.3866 -7.10188
2547 2 8.9916 16.1849 14.3866 -7.12066
2796 2 8.9916 14.3866 16.1849 -7.13809
3047 3 7.19328 16.1849 16.1849 -6.62683
3296 2 10.7899 14.3866 14.3866 -7.0564
3547 2 12.5882 16.1849 14.3866 -7.04833
3797 2 12.5882 14.3866 16.1849 -7.01501
266 3 14.3866 14.3866 14.3866 -6.45343
547 1 16.1849 16.1849 14.3866 -8.34806
798 2 16.1849 14.3866 16.1849 -7.0044
1047 1 14.3866 16.1849 16.1849 -8.17789
1298 3 0 0 17.9832 -6.39651
1548 3 1.79832 1.79832 17.9832 -6.34165
1798 3 1.79832 0 19.7815 -6.49289
2048 1 0 1.79832 19.7815 -8.46549
2297 3 0 0 21.5798 -6.50643
2548 2 1.79832 1.79832 21.5798 -6.96916
2298 2 3.59664 0 17.9832 -6.92633
2549 1 5.39496 1.79832 17.9832 -8.23861
2797 3 5.39496 0 19.7815 -6.47664
3048 1 3.59664 1.79832 19.7815 -8.19035
3297 1 3.59664 0 21.5798 -8.35638
3548 2 5.39496 1.79832 21.5798 -6.97741
501 3 8.9916 1.79832 21.5798 -6.51317
32 3 7.19328 1.79832 19.7815 -6.52945
284 3 10.7899 0 17.9832 -6.60206
283 3 7.19328 0 21.5798 -6.54402
1048 3 10.7899 1.79832 19.7815 -6.47523
1299 1 10.7899 0 21.5798 -8.63836
3298 1 7.19328 0 17.9832 -8.35964
3549 3 8.9916 1.79832 17.9832 -6.42902
3798 3 8.9916 0 19.7815 -6.49435
502 1 12.5882 1.79832 17.9832 -8.21566
799 2 12.5882 0 19.7815 -7.02008
1549 3 12.5882 1.79832 21.5798 -6.45378
1300 2 14.3866 0 17.9832 -7.07518
1550 1 16.1849 1.79832 17.9832 -8.26611
1799 3 16.1849 0 19.7815 -6.53031
2049 1 14.3866 1.79832 19.7815 -8.22738
2299 2 14.3866 0 21.5798 -7.0097
2550 1 16.1849 1.79832 21.5798 -8.3175
2300 2 0 3.59664 17.9832 -6.97859
2551 3 1.79832 5.39496 17.9832 -6.30028
2798 2 1.79832 3.59664 19.7815 -6.984
3049 3 0 5.39496 19.7815 -6.53814
3299 3 0 3.59664 21.5798 -6.43954
3550 2 1.79832 5.39496 21.5798 -6.9565
503 1 5.39496 5.39496 21.5798 -8.15992
33 3 3.59664 5.39496 19.7815 -6.24062
285 1 3.59664 3.59664 21.5798 -8.19098
3300 1 3.59664 3.59664 17.9832 -8.24075
3551 1 5.39496 5.39496 17.9832 -8.12162
3799 2 5.39496 3.59664 19.7815 -6.95983
504 2 8.9916 5.39496 17.9832 -7.0617
286 3 7.19328 3.59664 17.9832 -6.43702
800 2 8.9916 3.59664 19.7815 -6.9786
1049 1 7.19328 5.39496 19.7815 -8.2356
1302 1 10.7899 3.59664 17.9832 -8.09779
1301 3 7.19328 3.59664 21.5798 -6.48227
1551 2 8.9916 5.39496 21.5798 -7.03167
2050 1 10.7899 5.39496 19.7815 -8.22769
2301 3 10.7899 3.59664 21.5798 -6.47399
1552 2 12.5882 5.39496 17.9832 -7.04576
1800 3 12.5882 3.59664 19.7815 -6.26474
2552 1 12.5882 5.39496 21.5798 -8.14368
2302 2 14.3866 3.59664 17.9832 -7.04948
2553 1 16.1849 5.39496 17.9832 -8.06463
2799 1 16.1849 3.59664 19.7815 -8.11795
3050 1 14.3866 5.39496 19.7815 -8.13004
3301 3 14.3866 3.59664 21.5798 -6.16968
3552 1 16.1849 5.39496 21.5798 -8.22224
505 2 1.79832 8.9916 21.5798 -7.00805
34 1 0 8.9916 19.7815 -8.17904
290 2 0 10.7899 17.9832 -7.04887
287 3 0 7.19328 21.5798 -6.41558
802 2 1.79832 10.7899 19.7815 -7.06151
1305 1 0 10.7899 21.5798 -8.00819
3302 3 0 7.19328 17.9832 -6.55387
3553 2 1.79832 8.9916 17.9832 -7.092
3800 1 1.79832 7.19328 19.7815 -8.29686
506 2 5.39496 8.9916 17.9832 -7.05713
288 1 3.59664 7.19328 17.9832 -8.05298
801 1 5.39496 7.19328 19.7815 -8.05149
1050 1 3.59664 8.9916 19.7815 -7.9809
1306 1 3.59664 10.7899 17.9832 -8.16361
1303 1 3.59664 7.19328 21.5798 -8.24038
1553 3 5.39496 8.9916 21.5798 -6.354
1802 2 5.39496 10.7899 19.7815 -7.0297
2305 1 3.59664 10.7899 21.5798 -8.26419
291 3 10.7899 10.7899 21.5798 -6.55209
1304 1 7.19328 7.19328 17.9832 -8.09652
1554 3 8.9916 8.9916 17.9832 -6.63728
1801 2 8.9916 7.19328 19.7815 -7.0033
2051 2 7.19328 8.9916 19.7815 -7.0335
2306 2 7.19328 10.7899 17.9832 -7.05317
2304 2 10.7899 7.19328 17.9832 -7.07321
2303 3 7.19328 7.19328 21.5798 -6.45353
2554 3 8.9916 8.9916 21.5798 -6.51948
2801 3 8.9916 10.7899 19.7815 -6.68996
3051 3 10.7899 8.9916 19.7815 -6.65262
3306 3 10.7899 10.7899 17.9832 -6.63725
3305 2 7.19328 10.7899 21.5798 -7.06436
3303 1 10.7899 7.19328 21.5798 -8.13413
2555 2 12.5882 8.9916 17.9832 -7.09188
2800 2 12.5882 7.19328 19.7815 -7.01692
3554 3 12.5882 8.9916 21.5798 -6.43322
3802 3 12.5882 10.7899 19.7815 -6.59507
507 3 16.1849 8.9916 21.5798 -6.46424
35 3 14.3866 8.9916 19.7815 -6.62781
292 2 14.3866 10.7899 17.9832 -6.97009
289 3 14.3866 7.19328 21.5798 -6.30383
803 2 16.1849 10.7899 19.7815 -7.00866
1307 3 14.3866 10.7899 21.5798 -6.4894
3304 1 14.3866 7.19328 17.9832 -8.2037
3555 3 16.1849 8.9916 17.9832 -6.45085
3801 2 16.1849 7.19328 19.7815 -6.90975
508 1 1.79832 12.5882 17.9832 -8.15399
1051 2 0 12.5882 19.7815 -6.96628
1555 1 1.79832 12.5882 21.5798 -8.11764
1556 3 5.39496 12.5882 17.9832 -6.46649
2052 3 3.59664 12.5882 19.7815 -6.31588
2556 3 5.39496 12.5882 21.5798 -6.59376
36 3 10.7899 12.5882 19.7815 -6.67254
2557 1 8.9916 12.5882 17.9832 -8.42654
3052 2 7.19328 12.5882 19.7815 -7.18538
3556 2 8.9916 12.5882 21.5798 -7.10971
509 3 12.5882 12.5882 21.5798 -6.47858
3557 2 12.5882 12.5882 17.9832 -6.94781
510 2 16.1849 12.5882 17.9832 -6.9966
1052 1 14.3866 12.5882 19.7815 -8.38157
1557 1 16.1849 12.5882 21.5798 -8.28814
1308 1 0 14.3866 17.9832 -8.24353
1558 2 1.79832 16.1849 17.9832 -6.90362
1803 2 1.79832 14.3866 19.7815 -6.97802
2053 3 0 16.1849 19.7815 -6.41407
2307 3 0 14.3866 21.5798 -6.41876
2558 1 1.79832 16.1849 21.5798 -8.19832
2308 1 3.59664 14.3866 17.9832 -8.05476
2559 1 5.39496 16.1849 17.9832 -8.24773
2802 2 5.39496 14.3866 19.7815 -7.03469
3053 1 3.59664 16.1849 19.7815 -7.98137
3307 1 3.59664 14.3866 21.5798 -8.10122
3558 1 5.39496 16.1849 21.5798 -8.12409
511 1 8.9916 16.1849 21.5798 -8.18173
37 3 7.19328 16.1849 19.7815 -6.43336
294 2 10.7899 14.3866 17.9832 -7.05127
293 2 7.19328 14.3866 21.5798 -7.17253
1053 1 10.7899 16.1849 19.7815 -7.96561
1309 2 10.7899 14.3866 21.5798 -7.0514
3308 3 7.19328 14.3866 17.9832 -6.53683
3559 2 8.9916 16.1849 17.9832 -7.04302
3803 2 8.9916 14.3866 19.7815 -7.08349
512 1 12.5882 16.1849 17.9832 -8.07452
804 3 12.5882 14.3866 19.7815 -6.3643
1559 1 12.5882 16.1849 21.5798 -7.99517
1310 3 14.3866 14.3866 17.9832 -6.32278
1560 2 16.1849 16.1849 17.9832 -6.93003
1804 1 16.1849 14.3866 19.7815 -8.1407
2054 1 14.3866 16.1849 19.7815 -8.25764
2309 2 14.3866 14.3866 21.5798 -6.9431
2560 3 16.1849 16.1849 21.5798 -6.20618
2803 3 1.79832 0 23.3781 -6.50644
3054 2 0 1.79832 23.3781 -6.9867
3309 1 0 0 25.1765 -8.50346
3560 2 1.79832 1.79832 25.1765 -7.05191
39 2 5.39496 1.79832 25.1765 -6.97496
38 1 3.59664 1.79832 23.3781 -8.16145
3805 1 3.59664 0 25.1765 -8.26349
3804 3 5.39496 0 23.3781 -6.29852
513 1 8.9916 1.79832 25.1765 -8.15173
295 1 7.19328 0 25.1765 -8.127
806 1 10.7899 0 25.1765 -8.1716
805 3 8.9916 0 23.3781 -6.33533
1054 1 7.19328 1.79832 23.3781 -8.28534
2055 2 10.7899 1.79832 23.3781 -6.90294
1055 1 12.5882 1.79832 25.1765 -8.15053
1805 3 12.5882 0 23.3781 -6.37031
1311 1 14.3866 0 25.1765 -8.19312
1561 1 16.1849 1.79832 25.1765 -8.37358
2804 2 16.1849 0 23.3781 -7.04518
3055 1 14.3866 1.79832 23.3781 -8.30199
40 1 0 5.39496 23.3781 -8.35802
1806 2 0 3.59664 25.1765 -7.06052
2056 3 1.79832 5.39496 25.1765 -6.44973
3806 3 1.79832 3.59664 23.3781 -6.44285
807 1 5.39496 3.59664 23.3781 -8.02026
1056 3 3.59664 5.39496 23.3781 -6.38601
2310 1 3.59664 3.59664 25.1765 -8.23099
2561 3 5.39496 5.39496 25.1765 -6.36096
1807 2 8.9916 3.59664 23.3781 -7.05602
2057 2 7.19328 5.39496 23.3781 -6.9672
2805 1 7.19328 3.59664 25.1765 -8.30879
3057 1 10.7899 5.39496 23.3781 -8.20391
3056 2 8.9916 5.39496 25.1765 -7.00723
3310 1 10.7899 3.59664 25.1765 -8.01905
2806 3 12.5882 3.59664 23.3781 -6.17436
3561 1 12.5882 5.39496 25.1765 -8.13976
42 1 16.1849 5.39496 25.1765 -8.41389
41 1 14.3866 5.39496 23.3781 -8.20173
3808 3 14.3866 3.59664 25.1765 -6.31831
3807 2 16.1849 3.59664 23.3781 -6.96579
514 2 1.79832 8.9916 25.1765 -6.99137
296 2 0 7.19328 25.1765 -7.06903
808 2 1.79832 7.19328 23.3781 -7.00269
1057 1 0 8.9916 23.3781 -8.22278
1810 3 1.79832 10.7899 23.3781 -6.41546
2808 3 0 10.7899 25.1765 -6.32264
809 3 3.59664 7.19328 25.1765 -6.56333
1058 3 5.39496 8.9916 25.1765 -6.52732
1808 3 5.39496 7.19328 23.3781 -6.38488
2058 3 3.59664 8.9916 23.3781 -6.50191
2809 1 5.39496 10.7899 23.3781 -8.36326
3311 2 3.59664 10.7899 25.1765 -6.94279
43 1 10.7899 8.9916 23.3781 -8.47903
297 3 10.7899 10.7899 25.1765 -6.53237
1312 1 7.19328 7.19328 25.1765 -8.39871
1562 3 8.9916 8.9916 25.1765 -6.45075
1809 3 10.7899 7.19328 25.1765 -6.33817
2807 2 8.9916 7.19328 23.3781 -6.93345
3058 1 7.19328 8.9916 23.3781 -8.47776
3811 2 7.19328 10.7899 25.1765 -6.95767
3810 3 8.9916 10.7899 23.3781 -6.52198
811 2 12.5882 10.7899 23.3781 -6.8481
2059 2 12.5882 8.9916 25.1765 -6.98315
3809 1 12.5882 7.19328 23.3781 -8.01718
812 1 14.3866 10.7899 25.1765 -8.45972
810 3 16.1849 7.19328 23.3781 -6.30067
1059 1 14.3866 8.9916 23.3781 -8.35917
1811 2 16.1849 10.7899 23.3781 -6.98511
2311 1 14.3866 7.19328 25.1765 -8.13978
2562 3 16.1849 8.9916 25.1765 -6.45676
2060 1 0 12.5882 23.3781 -8.26554
3059 2 1.79832 12.5882 25.1765 -6.96808
3060 2 3.59664 12.5882 23.3781 -6.989
3562 3 5.39496 12.5882 25.1765 -6.54913
45 3 8.9916 12.5882 25.1765 -6.63573
44 2 7.19328 12.5882 23.3781 -7.1047
1060 1 10.7899 12.5882 23.3781 -8.5156
515 3 12.5882 12.5882 25.1765 -6.54412
1061 2 16.1849 12.5882 25.1765 -6.94655
2061 3 14.3866 12.5882 23.3781 -6.5133
1313 3 0 14.3866 25.1765 -6.31395
1563 3 1.79832 16.1849 25.1765 -6.43421
2810 1 1.79832 14.3866 23.3781 -8.13755
3061 3 0 16.1849 23.3781 -6.34062
46 1 3.59664 16.1849 23.3781 -8.0158
1812 1 3.59664 14.3866 25.1765 -8.09442
2062 1 5.39496 16.1849 25.1765 -8.16367
3812 2 5.39496 14.3866 23.3781 -7.07691
813 2 8.9916 14.3866 23.3781 -7.12104
1062 2 7.19328 16.1849 23.3781 -7.12614
2063 2 10.7899 16.1849 23.3781 -7.05527
2312 3 7.19328 14.3866 25.1765 -6.59836
2563 2 8.9916 16.1849 25.1765 -7.06628
2811 2 10.7899 14.3866 25.1765 -7.0692
1813 1 12.5882 14.3866 23.3781 -8.30598
3062 2 12.5882 16.1849 25.1765 -6.97811
2812 3 16.1849 14.3866 23.3781 -6.40311
3063 1 14.3866 16.1849 23.3781 -8.1717
3312 3 14.3866 14.3866 25.1765 -6.41584
3563 1 16.1849 16.1849 25.1765 -8.33074
751 3 1.79832 0 30.5714 -6.46354
47 2 0 1.79832 26.9748 -7.10688
298 1 0 0 28.7731 -8.54706
548 2 1.79832 1.79832 28.7731 -6.98604
1063 3 0 1.79832 30.5714 -6.48175
3813 3 1.79832 0 26.9748 -6.57683
299 1 5.39496 0 26.9748 -8.19785
549 2 3.59664 1.79832 26.9748 -6.984
1314 2 3.59664 0 28.7731 -6.93906
1564 3 5.39496 1.79832 28.7731 -6.46927
1814 1 5.39496 0 30.5714 -8.2881
2064 3 3.59664 1.79832 30.5714 -6.40216
752 2 8.9916 0 26.9748 -7.00473
48 2 10.7899 1.79832 30.5714 -6.96072
1064 3 7.19328 1.79832 26.9748 -6.32551
1565 2 10.7899 1.79832 26.9748 -7.01354
2313 1 7.19328 0 28.7731 -8.27763
2564 1 8.9916 1.79832 28.7731 -8.36916
2813 1 8.9916 0 30.5714 -8.03629
3064 3 7.19328 1.79832 30.5714 -6.22428
3313 1 10.7899 0 28.7731 -8.19183
1315 2 12.5882 0 26.9748 -7.04953
3564 3 12.5882 1.79832 28.7731 -6.51515
3814 3 12.5882 0 30.5714 -6.29988
753 3 16.1849 0 30.5714 -6.2927
300 3 14.3866 0 28.7731 -6.39547
550 1 16.1849 1.79832 28.7731 -8.52691
1065 1 14.3866 1.79832 30.5714 -8.30365
1815 2 16.1849 0 26.9748 -7.01011
2065 2 14.3866 1.79832 26.9748 -7.00535
1316 3 0 3.59664 28.7731 -6.65377
1566 1 1.79832 5.39496 28.7731 -8.32386
1816 3 1.79832 3.59664 30.5714 -6.44153
2066 2 0 5.39496 30.5714 -7.05806
2314 1 1.79832 3.59664 26.9748 -8.22548
2565 2 0 5.39496 26.9748 -7.01826
2315 3 3.59664 3.59664 28.7731 -6.52975
2566 3 5.39496 5.39496 28.7731 -6.46086
2815 2 5.39496 3.59664 30.5714 -6.95533
2814 3 5.39496 3.59664 26.9748 -6.47451