ITEM: TIMESTEP
0
ITEM: NUMBER OF ATOMS
4000
ITEM: BOX BOUNDS pp pp pp
0.0000000000000000e+00 3.5430900000000001e+01
0.0000000000000000e+00 3.5430900000000001e+01
0.0000000000000000e+00 3.5430900000000001e+01
ITEM: ATOMS id type x y z c_peratom
267 2 0 0 0 -7.01988
516 2 1.77154 1.77154 0 -6.97555
767 2 1.77154 0 1.77154 -7.03159
1016 2 0 1.77154 1.77154 -6.963
1267 2 0 0 3.54309 -6.96321
1517 3 1.77154 1.77154 3.54309 -6.47034
1268 1 3.54309 0 0 -8.46419
1518 2 5.31463 1.77154 0 -6.84474
1767 3 5.31463 0 1.77154 -6.57138
2017 1 3.54309 1.77154 1.77154 -8.70406
2266 3 3.54309 0 3.54309 -6.68174
2517 3 5.31463 1.77154 3.54309 -6.51748
2267 3 7.08618 0 0 -6.45578
2518 2 8.85773 1.77154 0 -7.00437
2766 2 8.85773 0 1.77154 -7.02373
3017 3 7.08618 1.77154 1.77154 -6.58875
3266 2 7.08618 0 3.54309 -7.06399
3517 2 8.85773 1.77154 3.54309 -7.10674
1 1 10.6293 1.77154 1.77154 -8.46298
268 2 10.6293 0 3.54309 -7.02824
517 2 12.4008 1.77154 3.54309 -7.06014
3267 1 10.6293 0 0 -8.57501
3518 2 12.4008 1.77154 0 -7.01678
3767 1 12.4008 0 1.77154 -8.39012
269 1 14.1724 0 0 -8.63556
518 2 15.9439 1.77154 0 -6.90851
768 3 15.9439 0 1.77154 -6.47135
1017 3 14.1724 1.77154 1.77154 -6.47394
1269 3 14.1724 0 3.54309 -6.40332
1519 2 15.9439 1.77154 3.54309 -6.89921
1270 1 0 3.54309 0 -8.8129
1520 3 1.77154 5.31463 0 -6.55842
1768 3 1.77154 3.54309 1.77154 -6.51289
2018 2 0 5.31463 1.77154 -7.03833
2268 1 0 3.54309 3.54309 -8.82006
2519 2 1.77154 5.31463 3.54309 -7.0425
2269 3 3.54309 3.54309 0 -6.31078
2520 1 5.31463 5.31463 0 -8.55676
2767 1 5.31463 3.54309 1.77154 -8.38948
3018 3 3.54309 5.31463 1.77154 -6.48293
3268 3 3.54309 3.54309 3.54309 -6.51623
3519 1 5.31463 5.31463 3.54309 -8.41626
2 2 7.08618 5.31463 1.77154 -7.05784
270 1 7.08618 3.54309 3.54309 -8.49038
519 2 8.85773 5.31463 3.54309 -7.06663
3269 2 7.08618 3.54309 0 -6.93452
3520 3 8.85773 5.31463 0 -6.44775
3768 2 8.85773 3.54309 1.77154 -7.07583
271 3 10.6293 3.54309 0 -6.43302
520 1 12.4008 5.31463 0 -8.51758
769 2 12.4008 3.54309 1.77154 -7.00719
1018 3 10.6293 5.31463 1.77154 -6.53306
1271 2 10.6293 3.54309 3.54309 -7.18539
1521 2 12.4008 5.31463 3.54309 -7.05417
1272 2 14.1724 3.54309 0 -6.92878
1522 2 15.9439 5.31463 0 -6.91709
1769 1 15.9439 3.54309 1.77154 -8.94274
2019 3 14.1724 5.31463 1.77154 -6.40852
2270 3 14.1724 3.54309 3.54309 -6.53026
2521 2 15.9439 5.31463 3.54309 -6.90105
2271 2 0 7.08618 0 -7.03098
2522 3 1.77154 8.85773 0 -6.39684
2768 3 1.77154 7.08618 1.77154 -6.55858
3019 1 0 8.85773 1.77154 -8.572
3270 2 0 7.08618 3.54309 -7.04303
3521 2 1.77154 8.85773 3.54309 -6.98255
3 1 3.54309 8.85773 1.77154 -8.69098
272 2 3.54309 7.08618 3.54309 -7.00192
521 1 5.31463 8.85773 3.54309 -8.12856
3271 3 3.54309 7.08618 0 -6.40088
3522 2 5.31463 8.85773 0 -6.94904
3769 2 5.31463 7.08618 1.77154 -6.99615
273 2 7.08618 7.08618 0 -6.97221
522 3 8.85773 8.85773 0 -6.36706
770 2 8.85773 7.08618 1.77154 -6.98205
1019 2 7.08618 8.85773 1.77154 -6.99026
1273 1 7.08618 7.08618 3.54309 -8.2203
1523 3 8.85773 8.85773 3.54309 -6.27712
1274 3 10.6293 7.08618 0 -6.35116
1524 2 12.4008 8.85773 0 -6.81833
1770 1 12.4008 7.08618 1.77154 -8.45131
2020 2 10.6293 8.85773 1.77154 -6.9738
2272 1 10.6293 7.08618 3.54309 -8.42966
2523 1 12.4008 8.85773 3.54309 -8.42843
2273 1 14.1724 7.08618 0 -8.18624
2524 1 15.9439 8.85773 0 -8.32975
2769 2 15.9439 7.08618 1.77154 -6.93186
3020 3 14.1724 8.85773 1.77154 -6.21222
3272 3 14.1724 7.08618 3.54309 -6.30685
3523 1 15.9439 8.85773 3.54309 -8.3791
4 2 0 12.4008 1.77154 -7.00625
274 2 0 10.6293 3.54309 -7.01519
523 1 1.77154 12.4008 3.54309 -8.67313
3273 2 0 10.6293 0 -6.94064
3524 3 1.77154 12.4008 0 -6.47262
3770 3 1.77154 10.6293 1.77154 -6.52074
275 2 3.54309 10.6293 0 -6.90341
524 3 5.31463 12.4008 0 -6.40206
771 2 5.31463 10.6293 1.77154 -6.98105
1020 2 3.54309 12.4008 1.77154 -7.10101
1275 2 3.54309 10.6293 3.54309 -7.01079
1525 3 5.31463 12.4008 3.54309 -6.49868
1276 1 7.08618 10.6293 0 -8.60148
1526 2 8.85773 12.4008 0 -6.90195
1771 1 8.85773 10.6293 1.77154 -8.53313
2021 3 7.08618 12.4008 1.77154 -6.38889
2274 1 7.08618 10.6293 3.54309 -8.23298
2525 1 8.85773 12.4008 3.54309 -8.27056
2275 2 10.6293 10.6293 0 -6.93159
2526 1 12.4008 12.4008 0 -8.98515
2770 3 12.4008 10.6293 1.77154 -6.41107
3021 3 10.6293 12.4008 1.77154 -6.40528
3274 2 10.6293 10.6293 3.54309 -6.95617
3525 2 12.4008 12.4008 3.54309 -6.95572
5 3 14.1724 12.4008 1.77154 -6.42885
276 1 14.1724 10.6293 3.54309 -8.35678
525 2 15.9439 12.4008 3.54309 -6.90414
3275 3 14.1724 10.6293 0 -6.24798
3526 1 15.9439 12.4008 0 -8.77204
3771 2 15.9439 10.6293 1.77154 -6.88567
277 3 0 14.1724 0 -6.37664
526 1 1.77154 15.9439 0 -8.75048
772 2 1.77154 14.1724 1.77154 -7.05731
1021 3 0 15.9439 1.77154 -6.62177
1277 2 0 14.1724 3.54309 -7.1064
1527 2 1.77154 15.9439 3.54309 -7.09757
1278 2 3.54309 14.1724 0 -6.96776
1528 3 5.31463 15.9439 0 -6.44562
1772 2 5.31463 14.1724 1.77154 -7.12912
2022 3 3.54309 15.9439 1.77154 -6.65021
2276 2 3.54309 14.1724 3.54309 -7.15946
2527 2 5.31463 15.9439 3.54309 -7.18911
2277 2 7.08618 14.1724 0 -6.9447
2528 3 8.85773 15.9439 0 -6.27296
2771 1 8.85773 14.1724 1.77154 -8.60167
3022 2 7.08618 15.9439 1.77154 -6.99627
3276 3 7.08618 14.1724 3.54309 -6.45512
3527 2 8.85773 15.9439 3.54309 -6.95729
6 1 10.6293 15.9439 1.77154 -8.36701
278 2 10.6293 14.1724 3.54309 -6.94505
527 3 12.4008 15.9439 3.54309 -6.45207
3277 2 10.6293 14.1724 0 -6.91564
3528 1 12.4008 15.9439 0 -8.65391
3772 3 12.4008 14.1724 1.77154 -6.43399
279 3 14.1724 14.1724 0 -6.24578
528 2 15.9439 15.9439 0 -6.94179
773 3 15.9439 14.1724 1.77154 -6.55681
1022 3 14.1724 15.9439 1.77154 -6.52282
1279 3 14.1724 14.1724 3.54309 -6.52975
1529 2 15.9439 15.9439 3.54309 -6.96885
1773 3 1.77154 0 5.31463 -6.56793
2023 1 0 1.77154 5.31463 -8.56787
2278 1 0 0 7.08618 -8.59917
2529 3 1.77154 1.77154 7.08618 -6.52629
2773 3 3.54309 0 7.08618 -6.77383
2772 3 5.31463 0 5.31463 -6.73571
3024 2 5.31463 1.77154 7.08618 -7.06481
3023 2 3.54309 1.77154 5.31463 -7.04334
7 2 7.08618 1.77154 5.31463 -7.01501
3278 3 7.08618 0 7.08618 -6.70114
3529 2 8.85773 1.77154 7.08618 -7.03487
3773 1 8.85773 0 5.31463 -8.47204
8 3 12.4008 1.77154 7.08618 -6.44906
774 2 12.4008 0 5.31463 -7.00692
1023 2 10.6293 1.77154 5.31463 -7.15787
3774 1 10.6293 0 7.08618 -8.47041
280 2 14.1724 0 7.08618 -6.92565
529 2 15.9439 1.77154 7.08618 -6.93995
1774 1 15.9439 0 5.31463 -8.63618
2024 1 14.1724 1.77154 5.31463 -8.58929
775 1 0 3.54309 7.08618 -8.78222
1024 3 1.77154 5.31463 7.08618 -6.26267
2774 2 1.77154 3.54309 5.31463 -7.0072
3025 2 0 5.31463 5.31463 -6.9439
9 2 3.54309 5.31463 5.31463 -7.02934
1280 2 3.54309 3.54309 7.08618 -7.01363
1530 2 5.31463 5.31463 7.08618 -6.91281
3775 3 5.31463 3.54309 5.31463 -6.48207
776 2 8.85773 3.54309 5.31463 -7.09823
1025 1 7.08618 5.31463 5.31463 -8.34058
1775 1 7.08618 3.54309 7.08618 -8.63156
2025 3 8.85773 5.31463 7.08618 -6.42007
1776 2 12.4008 3.54309 5.31463 -7.1527
2026 2 10.6293 5.31463 5.31463 -7.10668
2279 2 10.6293 3.54309 7.08618 -7.12534
2530 2 12.4008 5.31463 7.08618 -7.02332
2776 3 14.1724 3.54309 7.08618 -6.3729
2775 1 15.9439 3.54309 5.31463 -8.72063
3027 1 15.9439 5.31463 7.08618 -8.62619
3026 2 14.1724 5.31463 5.31463 -6.97529
10 1 0 8.85773 5.31463 -8.23661
3279 1 0 7.08618 7.08618 -8.49477
3530 1 1.77154 8.85773 7.08618 -7.92366
3776 1 1.77154 7.08618 5.31463 -8.34412
11 3 5.31463 8.85773 7.08618 -6.08014
777 2 5.31463 7.08618 5.31463 -6.94633
1026 2 3.54309 8.85773 5.31463 -6.95375
3777 1 3.54309 7.08618 7.08618 -8.23849
281 3 7.08618 7.08618 7.08618 -6.22934
530 2 8.85773 8.85773 7.08618 -6.86329
1777 1 8.85773 7.08618 5.31463 -8.41791
2027 1 7.08618 8.85773 5.31463 -8.25458
778 3 10.6293 7.08618 7.08618 -6.44965
1027 1 12.4008 8.85773 7.08618 -8.38967
2777 3 12.4008 7.08618 5.31463 -6.43614
3028 2 10.6293 8.85773 5.31463 -6.9433
12 1 14.1724 8.85773 5.31463 -8.42537
1281 3 14.1724 7.08618 7.08618 -6.21697
1531 3 15.9439 8.85773 7.08618 -6.23098
3778 1 15.9439 7.08618 5.31463 -8.38455
779 2 1.77154 10.6293 5.31463 -7.01086
1028 2 0 12.4008 5.31463 -7.04103
1778 1 0 10.6293 7.08618 -8.48855
2028 3 1.77154 12.4008 7.08618 -6.65539
1779 1 5.31463 10.6293 5.31463 -8.26237
2029 3 3.54309 12.4008 5.31463 -6.54627
2280 1 3.54309 10.6293 7.08618 -8.4802
2531 2 5.31463 12.4008 7.08618 -6.91071
2779 1 7.08618 10.6293 7.08618 -8.26942
2778 2 8.85773 10.6293 5.31463 -6.98107
3030 1 8.85773 12.4008 7.08618 -8.36962
3029 1 7.08618 12.4008 5.31463 -8.2515
13 2 10.6293 12.4008 5.31463 -6.96833
3280 1 10.6293 10.6293 7.08618 -8.41769
3531 3 12.4008 12.4008 7.08618 -6.39213
3779 2 12.4008 10.6293 5.31463 -6.98317
14 2 15.9439 12.4008 7.08618 -6.94378
780 3 15.9439 10.6293 5.31463 -6.20075
1029 1 14.1724 12.4008 5.31463 -8.4802
3780 3 14.1724 10.6293 7.08618 -6.20892
282 2 0 14.1724 7.08618 -7.06452
531 2 1.77154 15.9439 7.08618 -7.00802
1780 2 1.77154 14.1724 5.31463 -7.14562
2030 3 0 15.9439 5.31463 -6.44795
781 3 3.54309 14.1724 7.08618 -6.68817
1030 2 5.31463 15.9439 7.08618 -6.91261
2780 3 5.31463 14.1724 5.31463 -6.63966
3031 2 3.54309 15.9439 5.31463 -7.12159
15 3 7.08618 15.9439 5.31463 -6.56414
1282 3 7.08618 14.1724 7.08618 -6.27842
1532 3 8.85773 15.9439 7.08618 -6.32266
3781 1 8.85773 14.1724 5.31463 -8.62851
782 1 12.4008 14.1724 5.31463 -8.7296
1031 3 10.6293 15.9439 5.31463 -6.44151
1781 3 10.6293 14.1724 7.08618 -6.3648
2031 2 12.4008 15.9439 7.08618 -6.96606
1782 1 15.9439 14.1724 5.31463 -8.47149
2032 2 14.1724 15.9439 5.31463 -6.98078
2281 2 14.1724 14.1724 7.08618 -7.06455
2532 2 15.9439 15.9439 7.08618 -7.09441
16 1 0 1.77154 12.4008 -8.27651
2781 2 1.77154 0 8.85773 -7.04961
3032 2 0 1.77154 8.85773 -6.90612
3281 2 0 0 10.6293 -6.95707
3532 2 1.77154 1.77154 10.6293 -6.99224
3782 3 1.77154 0 12.4008 -6.48019
251 3 3.54309 0 10.6293 -6.66093
532 2 5.31463 1.77154 10.6293 -6.95287
783 1 5.31463 0 12.4008 -8.65784
1032 3 3.54309 1.77154 12.4008 -6.48823
3282 3 5.31463 0 8.85773 -6.73717
3533 2 3.54309 1.77154 8.85773 -7.0655
17 3 7.08618 1.77154 8.85773 -6.65019
1283 3 7.08618 0 10.6293 -6.4825
1533 2 8.85773 1.77154 10.6293 -6.99002
1783 3 8.85773 0 12.4008 -6.4005
2033 3 7.08618 1.77154 12.4008 -6.4865
3783 3 8.85773 0 8.85773 -6.51891
252 1 12.4008 0 8.85773 -8.43483
533 2 10.6293 1.77154 8.85773 -7.01281
2282 3 10.6293 0 10.6293 -6.3218
2533 2 12.4008 1.77154 10.6293 -6.9602
2782 1 12.4008 0 12.4008 -8.26397
3033 2 10.6293 1.77154 12.4008 -6.8473
18 1 14.1724 1.77154 12.4008 -8.36054
784 2 15.9439 0 8.85773 -6.92152
1033 3 14.1724 1.77154 8.85773 -6.30524
3283 1 14.1724 0 10.6293 -8.35038
3534 3 15.9439 1.77154 10.6293 -6.19647
3784 3 15.9439 0 12.4008 -6.18962
253 3 0 3.54309 10.6293 -6.41997
534 2 1.77154 5.31463 10.6293 -6.95985
785 2 1.77154 3.54309 12.4008 -6.87161
1034 3 0 5.31463 12.4008 -6.14968
1284 3 1.77154 3.54309 8.85773 -6.43845
1534 3 0 5.31463 8.85773 -6.26032
1285 1 3.54309 3.54309 10.6293 -8.54617
1535 1 5.31463 5.31463 10.6293 -8.23416
1785 3 5.31463 3.54309 12.4008 -6.42582
1784 3 5.31463 3.54309 8.85773 -6.36385
2035 1 3.54309 5.31463 12.4008 -8.21153
2034 1 3.54309 5.31463 8.85773 -8.28586
2284 2 7.08618 3.54309 10.6293 -6.86082
2283 3 8.85773 3.54309 8.85773 -6.61475
2535 3 8.85773 5.31463 10.6293 -6.43326
2534 1 7.08618 5.31463 8.85773 -8.50593
2783 1 8.85773 3.54309 12.4008 -8.66044
3034 3 7.08618 5.31463 12.4008 -6.25815
19 3 10.6293 5.31463 12.4008 -6.38848
2784 1 12.4008 3.54309 8.85773 -8.68743
3035 2 10.6293 5.31463 8.85773 -6.98352
3284 3 10.6293 3.54309 10.6293 -6.5577
3535 2 12.4008 5.31463 10.6293 -6.9853
3785 3 12.4008 3.54309 12.4008 -6.38523
254 1 14.1724 3.54309 10.6293 -8.33523
535 3 15.9439 5.31463 10.6293 -6.28914
786 1 15.9439 3.54309 12.4008 -8.24317
1035 2 14.1724 5.31463 12.4008 -6.94685
3285 1 15.9439 3.54309 8.85773 -8.72265
3536 2 14.1724 5.31463 8.85773 -6.89804
20 2 0 8.85773 8.85773 -6.91976
1286 1 0 7.08618 10.6293 -8.32462
1536 2 1.77154 8.85773 10.6293 -7.01129
1786 1 1.77154 7.08618 12.4008 -8.22125
2036 3 0 8.85773 12.4008 -6.08315
3786 1 1.77154 7.08618 8.85773 -8.07499
255 1 5.31463 7.08618 8.85773 -8.22991
536 1 3.54309 8.85773 8.85773 -8.27496
2285 1 3.54309 7.08618 10.6293 -8.00327
2536 3 5.31463 8.85773 10.6293 -6.21028
2785 2 5.31463 7.08618 12.4008 -6.92823
3036 1 3.54309 8.85773 12.4008 -8.21071
21 2 7.08618 8.85773 12.4008 -6.9172
787 3 8.85773 7.08618 8.85773 -6.41147
1036 3 7.08618 8.85773 8.85773 -6.20676
3286 1 7.08618 7.08618 10.6293 -8.50526
3537 1 8.85773 8.85773 10.6293 -8.47779
3787 3 8.85773 7.08618 12.4008 -6.19458
256 3 10.6293 7.08618 10.6293 -6.42186
537 3 12.4008 8.85773 10.6293 -6.2753
788 2 12.4008 7.08618 12.4008 -6.9293
1037 1 10.6293 8.85773 12.4008 -8.41586
1287 1 12.4008 7.08618 8.85773 -8.68239
1537 3 10.6293 8.85773 8.85773 -6.21569
1288 3 14.1724 7.08618 10.6293 -6.53359
1538 2 15.9439 8.85773 10.6293 -6.86171
1788 3 15.9439 7.08618 12.4008 -6.52915
1787 3 15.9439 7.08618 8.85773 -6.41997
2038 3 14.1724 8.85773 12.4008 -6.46946
2037 1 14.1724 8.85773 8.85773 -8.61006
2287 2 0 10.6293 10.6293 -7.00668
2286 2 1.77154 10.6293 8.85773 -7.05852
2538 2 1.77154 12.4008 10.6293 -7.07827
2537 2 0 12.4008 8.85773 -7.11842
2786 1 1.77154 10.6293 12.4008 -8.6332
3037 3 0 12.4008 12.4008 -6.48692
22 3 3.54309 12.4008 12.4008 -6.41235
2787 3 5.31463 10.6293 8.85773 -6.44909
3038 2 3.54309 12.4008 8.85773 -7.05246
3287 2 3.54309 10.6293 10.6293 -7.00475
3538 2 5.31463 12.4008 10.6293 -6.98905
3788 1 5.31463 10.6293 12.4008 -8.45166
257 3 7.08618 10.6293 10.6293 -6.45494
538 2 8.85773 12.4008 10.6293 -6.97347
789 2 8.85773 10.6293 12.4008 -6.91949
1038 2 7.08618 12.4008 12.4008 -7.05376
3288 1 8.85773 10.6293 8.85773 -8.35117
3539 2 7.08618 12.4008 8.85773 -6.91202
23 3 10.6293 12.4008 8.85773 -6.41208
1289 1 10.6293 10.6293 10.6293 -8.57954
1539 3 12.4008 12.4008 10.6293 -6.43677
1789 3 12.4008 10.6293 12.4008 -6.22361
2039 3 10.6293 12.4008 12.4008 -6.48341
3789 2 12.4008 10.6293 8.85773 -6.82638
258 3 15.9439 10.6293 8.85773 -6.25971
539 1 14.1724 12.4008 8.85773 -8.80304
2288 1 14.1724 10.6293 10.6293 -8.56035
2539 3 15.9439 12.4008 10.6293 -6.30622
2788 1 15.9439 10.6293 12.4008 -8.54127
3039 2 14.1724 12.4008 12.4008 -6.86065
24 2 0 15.9439 12.4008 -7.05605
790 2 1.77154 14.1724 8.85773 -7.10295
1039 2 0 15.9439 8.85773 -6.96364
3289 3 0 14.1724 10.6293 -6.59202
3540 3 1.77154 15.9439 10.6293 -6.42035
3790 1 1.77154 14.1724 12.4008 -8.95867
259 3 3.54309 14.1724 10.6293 -6.47274
540 1 5.31463 15.9439 10.6293 -8.55541
791 2 5.31463 14.1724 12.4008 -6.94546
1040 3 3.54309 15.9439 12.4008 -6.49555
1290 1 5.31463 14.1724 8.85773 -8.62677
1540 3 3.54309 15.9439 8.85773 -6.4372
1291 3 7.08618 14.1724 10.6293 -6.46523
1541 2 8.85773 15.9439 10.6293 -6.88553
1791 2 8.85773 14.1724 12.4008 -7.02595
1790 3 8.85773 14.1724 8.85773 -6.40792
2041 1 7.08618 15.9439 12.4008 -8.63726
2040 1 7.08618 15.9439 8.85773 -8.57699
2290 3 10.6293 14.1724 10.6293 -6.53804
2289 2 12.4008 14.1724 8.85773 -6.91301
2541 1 12.4008 15.9439 10.6293 -8.73464
2540 1 10.6293 15.9439 8.85773 -8.59017
2789 3 12.4008 14.1724 12.4008 -6.32416
3040 3 10.6293 15.9439 12.4008 -6.53332
25 3 14.1724 15.9439 12.4008 -6.46604
2790 2 15.9439 14.1724 8.85773 -6.9902
3041 2 14.1724 15.9439 8.85773 -7.0683
3290 3 14.1724 14.1724 10.6293 -6.55907
3541 3 15.9439 15.9439 10.6293 -6.63365
3791 3 15.9439 14.1724 12.4008 -6.38386
260 2 0 0 14.1724 -6.92969
541 1 1.77154 1.77154 14.1724 -8.74024
792 2 1.77154 0 15.9439 -6.85296
1041 3 0 1.77154 15.9439 -6.17264
1292 3 3.54309 0 14.1724 -6.29595
1542 2 5.31463 1.77154 14.1724 -6.94924
1792 1 5.31463 0 15.9439 -8.51316
2042 3 3.54309 1.77154 15.9439 -6.32292
2291 2 7.08618 0 14.1724 -6.88995
2542 3 8.85773 1.77154 14.1724 -6.29849
2791 1 8.85773 0 15.9439 -8.47098
3042 2 7.08618 1.77154 15.9439 -7.00673
26 1 10.6293 1.77154 15.9439 -8.49956
3291 1 10.6293 0 14.1724 -8.30866
3542 3 12.4008 1.77154 14.1724 -6.12229
3792 1 12.4008 0 15.9439 -8.46847
261 2 14.1724 0 14.1724 -6.93538
542 2 15.9439 1.77154 14.1724 -7.02304
793 2 15.9439 0 15.9439 -7.06574
1042 2 14.1724 1.77154 15.9439 -6.93501
1293 1 0 3.54309 14.1724 -8.75246
1543 3 1.77154 5.31463 14.1724 -6.16961
1793 3 1.77154 3.54309 15.9439 -6.20529
2043 3 0 5.31463 15.9439 -6.28303
2292 2 3.54309 3.54309 14.1724 -6.87511
2543 1 5.31463 5.31463 14.1724 -8.52154
2792 2 5.31463 3.54309 15.9439 -7.02036
3043 1 3.54309 5.31463 15.9439 -8.26804
27 2 7.08618 5.31463 15.9439 -6.98587
3292 3 7.08618 3.54309 14.1724 -6.46286
3543 1 8.85773 5.31463 14.1724 -8.49116
3793 2 8.85773 3.54309 15.9439 -7.00108
262 1 10.6293 3.54309 14.1724 -8.45523
543 2 12.4008 5.31463 14.1724 -6.86732
794 3 12.4008 3.54309 15.9439 -6.20564
1043 1 10.6293 5.31463 15.9439 -8.28345
1294 1 14.1724 3.54309 14.1724 -8.45883
1544 1 15.9439 5.31463 14.1724 -8.47902
1794 1 15.9439 3.54309 15.9439 -8.32943
2044 3 14.1724 5.31463 15.9439 -6.17288
2293 1 0 7.08618 14.1724 -8.38302
2544 1 1.77154 8.85773 14.1724 -8.14479
2793 1 1.77154 7.08618 15.9439 -8.38527
3044 2 0 8.85773 15.9439 -6.95936
28 1 3.54309 8.85773 15.9439 -8.26358
3293 3 3.54309 7.08618 14.1724 -6.05812
3544 2 5.31463 8.85773 14.1724 -6.91561
3794 1 5.31463 7.08618 15.9439 -8.32496
263 2 7.08618 7.08618 14.1724 -6.88276
544 1 8.85773 8.85773 14.1724 -8.48789
795 3 8.85773 7.08618 15.9439 -6.35823
1044 3 7.08618 8.85773 15.9439 -6.50472
1295 1 10.6293 7.08618 14.1724 -8.16748
1545 2 12.4008 8.85773 14.1724 -6.90299
1795 1 12.4008 7.08618 15.9439 -8.29417
2045 1 10.6293 8.85773 15.9439 -8.44694
2294 3 14.1724 7.08618 14.1724 -6.45343
2545 3 15.9439 8.85773 14.1724 -6.50676
2794 2 15.9439 7.08618 15.9439 -6.90379
3045 1 14.1724 8.85773 15.9439 -8.38381
29 2 0 12.4008 15.9439 -6.93504
3294 2 0 10.6293 14.1724 -6.94472
3545 3 1.77154 12.4008 14.1724 -6.37517
3795 2 1.77154 10.6293 15.9439 -6.97352
264 2 3.54309 10.6293 14.1724 -6.94867
545 1 5.31463 12.4008 14.1724 -8.2393
796 3 5.31463 10.6293 15.9439 -6.34368
1045 1 3.54309 12.4008 15.9439 -8.35551
1296 1 7.08618 10.6293 14.1724 -8.51473
1546 3 8.85773 12.4008 14.1724 -6.46599
1796 3 8.85773 10.6293 15.9439 -6.39617
2046 2 7.08618 12.4008 15.9439 -6.98351
2295 3 10.6293 10.6293 14.1724 -6.21797
2546 1 12.4008 12.4008 14.1724 -8.49736
2795 1 12.4008 10.6293 15.9439 -8.15122
3046 1 10.6293 12.4008 15.9439 -8.65482
30 3 14.1724 12.4008 15.9439 -6.26544
3295 1 14.1724 10.6293 14.1724 -8.41141
3546 2 15.9439 12.4008 14.1724 -6.91509
3796 2 15.9439 10.6293 15.9439 -7.03805
265 2 0 14.1724 14.1724 -6.99658
546 2 1.77154 15.9439 14.1724 -6.99676
797 1 1.77154 14.1724 15.9439 -8.34055
1046 2 0 15.9439 15.9439 -6.99976
1297 2 3.54309 14.1724 14.1724 -6.95845
1547 3 5.31463 15.9439 14.1724 -6.42504
1797 2 5.31463 14.1724 15.9439 -6.96702
2047 1 3.54309 15.9439 15.9439 -8.3577
2296 1 7.08618 14.1724 14.1724 -8.43921
2547 3 8.85773 15.9439 14.1724 -6.42604
2796 2 8.85773 14.1724 15.9439 -6.94338
3047 1 7.08618 15.9439 15.9439 -8.63846
31 1 10.6293 15.9439 15.9439 -8.71828
3296 2 10.6293 14.1724 14.1724 -6.88385
3547 1 12.4008 15.9439 14.1724 -8.5515
3797 3 12.4008 14.1724 15.9439 -6.09998
266 1 14.1724 14.1724 14.1724 -8.61404
547 2 15.9439 15.9439 14.1724 -6.94917
798 3 15.9439 14.1724 15.9439 -6.33846
1047 1 14.1724 15.9439 15.9439 -8.2224
1298 2 0 0 17.7155 -6.87168
1548 1 1.77154 1.77154 17.7155 -8.55626
1798 2 1.77154 0 19.487 -6.90425
2048 3 0 1.77154 19.487 -6.33277
2297 3 0 0 21.2585 -6.28745
2548 3 1.77154 1.77154 21.2585 -6.58885
2298 1 3.54309 0 17.7155 -8.40476
2549 2 5.31463 1.77154 17.7155 -6.94612
2797 1 5.31463 0 19.487 -8.46284
3048 3 3.54309 1.77154 19.487 -6.41992
3297 2 3.54309 0 21.2585 -6.88783
3548 2 5.31463 1.77154 21.2585 -6.86285
501 1 8.85773 1.77154 21.2585 -8.38415
32 3 7.08618 1.77154 19.487 -6.29204
283 3 7.08618 0 21.2585 -6.2591
3298 1 7.08618 0 17.7155 -8.26329
3549 3 8.85773 1.77154 17.7155 -6.31805
3798 1 8.85773 0 19.487 -8.24725
502 2 12.4008 1.77154 17.7155 -6.92053
284 3 10.6293 0 17.7155 -6.21726
799 3 12.4008 0 19.487 -6.466
1048 1 10.6293 1.77154 19.487 -8.54912
1299 1 10.6293 0 21.2585 -8.38046
1549 3 12.4008 1.77154 21.2585 -6.16523
1300 2 14.1724 0 17.7155 -6.98387
1550 3 15.9439 1.77154 17.7155 -6.42022
1799 1 15.9439 0 19.487 -8.57308
2049 1 14.1724 1.77154 19.487 -8.46586
2299 3 14.1724 0 21.2585 -6.42146
2550 2 15.9439 1.77154 21.2585 -6.90599
2300 1 0 3.54309 17.7155 -8.63178
2551 2 1.77154 5.31463 17.7155 -6.95934
2798 2 1.77154 3.54309 19.487 -6.96239
3049 2 0 5.31463 19.487 -6.99487
3299 3 0 3.54309 21.2585 -6.46875
3550 1 1.77154 5.31463 21.2585 -8.74037
503 1 5.31463 5.31463 21.2585 -8.41602
33 2 3.54309 5.31463 19.487 -7.01898
285 3 3.54309 3.54309 21.2585 -6.41598
3300 1 3.54309 3.54309 17.7155 -8.44779
3551 1 5.31463 5.31463 17.7155 -8.45674
3799 2 5.31463 3.54309 19.487 -6.96145
504 2 8.85773 5.31463 17.7155 -7.03671
286 3 7.08618 3.54309 17.7155 -6.64583
800 2 8.85773 3.54309 19.487 -6.98601
1049 2 7.08618 5.31463 19.487 -7.04078
1301 1 7.08618 3.54309 21.2585 -8.38628
1551 3 8.85773 5.31463 21.2585 -6.45487
1302 2 10.6293 3.54309 17.7155 -6.93931
1552 1 12.4008 5.31463 17.7155 -8.5073
1800 2 12.4008 3.54309 19.487 -6.96483
2050 3 10.6293 5.31463 19.487 -6.64897
2301 2 10.6293 3.54309 21.2585 -6.84333
2552 3 12.4008 5.31463 21.2585 -6.29253
2302 1 14.1724 3.54309 17.7155 -8.27249
2553 1 15.9439 5.31463 17.7155 -8.37951
2799 2 15.9439 3.54309 19.487 -6.91245
3050 1 14.1724 5.31463 19.487 -8.51115
3301 1 14.1724 3.54309 21.2585 -8.42315
3552 3 15.9439 5.31463 21.2585 -6.17455
505 1 1.77154 8.85773 21.2585 -8.63084
34 3 0 8.85773 19.487 -6.53158
287 3 0 7.08618 21.2585 -6.28981
3302 3 0 7.08618 17.7155 -6.53091
3553 2 1.77154 8.85773 17.7155 -7.02118
3800 2 1.77154 7.08618 19.487 -6.99115
506 2 5.31463 8.85773 17.7155 -6.99045
288 2 3.54309 7.08618 17.7155 -7.06716
801 2 5.31463 7.08618 19.487 -7.0444
1050 3 3.54309 8.85773 19.487 -6.4787
1303 3 3.54309 7.08618 21.2585 -6.33452
1553 2 5.31463 8.85773 21.2585 -7.00098
1304 2 7.08618 7.08618 17.7155 -7.08178
1554 2 8.85773 8.85773 17.7155 -6.94382
1801 3 8.85773 7.08618 19.487 -6.56282
2051 1 7.08618 8.85773 19.487 -8.72079
2303 2 7.08618 7.08618 21.2585 -7.00018
2554 2 8.85773 8.85773 21.2585 -6.91797
2304 3 10.6293 7.08618 17.7155 -6.2991
2555 2 12.4008 8.85773 17.7155 -6.85215
2800 3 12.4008 7.08618 19.487 -6.34486
3051 1 10.6293 8.85773 19.487 -8.8302
3303 3 10.6293 7.08618 21.2585 -6.34614
3554 3 12.4008 8.85773 21.2585 -6.34581
507 1 15.9439 8.85773 21.2585 -8.76948
35 3 14.1724 8.85773 19.487 -6.51168
289 3 14.1724 7.08618 21.2585 -6.31237
3304 3 14.1724 7.08618 17.7155 -6.27011
3555 2 15.9439 8.85773 17.7155 -6.98189
3801 3 15.9439 7.08618 19.487 -6.33137
508 3 1.77154 12.4008 17.7155 -6.2117
290 2 0 10.6293 17.7155 -7.02262
802 3 1.77154 10.6293 19.487 -6.40293
1051 2 0 12.4008 19.487 -6.87696
1305 2 0 10.6293 21.2585 -6.90556
1555 3 1.77154 12.4008 21.2585 -6.20858
1306 1 3.54309 10.6293 17.7155 -8.62484
1556 3 5.31463 12.4008 17.7155 -6.3885
1802 3 5.31463 10.6293 19.487 -6.39901
2052 1 3.54309 12.4008 19.487 -8.41715
2305 1 3.54309 10.6293 21.2585 -8.35171
2556 3 5.31463 12.4008 21.2585 -6.37086
2306 2 7.08618 10.6293 17.7155 -7.06166
2557 3 8.85773 12.4008 17.7155 -6.63799
2801 2 8.85773 10.6293 19.487 -7.02902
3052 2 7.08618 12.4008 19.487 -7.15411
3305 2 7.08618 10.6293 21.2585 -7.02959
3556 3 8.85773 12.4008 21.2585 -6.64588
509 1 12.4008 12.4008 21.2585 -8.31982
36 2 10.6293 12.4008 19.487 -6.93765
291 3 10.6293 10.6293 21.2585 -6.23504
3306 3 10.6293 10.6293 17.7155 -6.24952
3557 1 12.4008 12.4008 17.7155 -8.31589
3802 1 12.4008 10.6293 19.487 -8.54125
510 2 15.9439 12.4008 17.7155 -7.09272
292 2 14.1724 10.6293 17.7155 -6.97906
803 2 15.9439 10.6293 19.487 -7.06079
1052 3 14.1724 12.4008 19.487 -6.42688
1307 2 14.1724 10.6293 21.2585 -6.92032
1557 3 15.9439 12.4008 21.2585 -6.65457
1308 1 0 14.1724 17.7155 -8.28963
1558 2 1.77154 15.9439 17.7155 -6.99493
1803 1 1.77154 14.1724 19.487 -8.25705
2053 1 0 15.9439 19.487 -8.64897
2307 3 0 14.1724 21.2585 -6.42361
2558 3 1.77154 15.9439 21.2585 -6.34154
2308 1 3.54309 14.1724 17.7155 -8.12445
2559 1 5.31463 15.9439 17.7155 -8.19092
2802 2 5.31463 14.1724 19.487 -7.02446
3053 1 3.54309 15.9439 19.487 -8.27072
3307 1 3.54309 14.1724 21.2585 -8.40516
3558 2 5.31463 15.9439 21.2585 -6.95079
511 2 8.85773 15.9439 21.2585 -7.06303
37 3 7.08618 15.9439 19.487 -6.58711
293 2 7.08618 14.1724 21.2585 -7.1506
3308 2 7.08618 14.1724 17.7155 -7.07403
3559 2 8.85773 15.9439 17.7155 -6.97558
3803 2 8.85773 14.1724 19.487 -7.12147
512 3 12.4008 15.9439 17.7155 -6.21757
294 3 10.6293 14.1724 17.7155 -6.28321
804 1 12.4008 14.1724 19.487 -8.43833
1053 1 10.6293 15.9439 19.487 -8.53754
1309 3 10.6293 14.1724 21.2585 -6.47353
1559 2 12.4008 15.9439 21.2585 -6.96591
1310 1 14.1724 14.1724 17.7155 -8.51269
1560 2 15.9439 15.9439 17.7155 -6.93373
1804 2 15.9439 14.1724 19.487 -7.00078
2054 3 14.1724 15.9439 19.487 -6.54738
2309 2 14.1724 14.1724 21.2585 -7.01934
2560 2 15.9439 15.9439 21.2585 -7.08348
2803 3 1.77154 0 23.0301 -6.15247
3054 2 0 1.77154 23.0301 -6.87967
3309 1 0 0 24.8016 -8.3857
3560 1 1.77154 1.77154 24.8016 -8.44473
39 1 5.31463 1.77154 24.8016 -8.55496
38 1 3.54309 1.77154 23.0301 -8.5407
3805 3 3.54309 0 24.8016 -6.19083
3804 2 5.31463 0 23.0301 -6.84076
513 1 8.85773 1.77154 24.8016 -8.60441
295 3 7.08618 0 24.8016 -6.07664
805 3 8.85773 0 23.0301 -6.11874
1054 3 7.08618 1.77154 23.0301 -6.18824
806 2 10.6293 0 24.8016 -6.75989
1055 1 12.4008 1.77154 24.8016 -8.53827
1805 2 12.4008 0 23.0301 -6.95588
2055 1 10.6293 1.77154 23.0301 -8.40966
1311 1 14.1724 0 24.8016 -8.2454
1561 1 15.9439 1.77154 24.8016 -8.44647
2804 2 15.9439 0 23.0301 -6.92883
3055 1 14.1724 1.77154 23.0301 -8.50335
40 3 0 5.31463 23.0301 -6.38022
1806 1 0 3.54309 24.8016 -8.57487
2056 3 1.77154 5.31463 24.8016 -6.4518
3806 2 1.77154 3.54309 23.0301 -6.87178
807 1 5.31463 3.54309 23.0301 -8.30815
1056 2 3.54309 5.31463 23.0301 -6.87508
2310 3 3.54309 3.54309 24.8016 -6.18443
2561 1 5.31463 5.31463 24.8016 -8.38034
1807 3 8.85773 3.54309 23.0301 -6.16727
2057 1 7.08618 5.31463 23.0301 -8.43577
2805 3 7.08618 3.54309 24.8016 -6.05351
3056 2 8.85773 5.31463 24.8016 -6.83899
2806 3 12.4008 3.54309 23.0301 -6.11403
3057 1 10.6293 5.31463 23.0301 -9.04159
3310 3 10.6293 3.54309 24.8016 -6.16373
3561 2 12.4008 5.31463 24.8016 -6.81432
42 2 15.9439 5.31463 24.8016 -6.87344
41 1 14.1724 5.31463 23.0301 -8.78362
3808 3 14.1724 3.54309 24.8016 -6.23631
3807 3 15.9439 3.54309 23.0301 -6.093
514 1 1.77154 8.85773 24.8016 -8.5321
296 3 0 7.08618 24.8016 -6.38523
808 1 1.77154 7.08618 23.0301 -8.60734
1057 3 0 8.85773 23.0301 -6.1773
809 2 3.54309 7.08618 24.8016 -6.96668
1058 2 5.31463 8.85773 24.8016 -6.96909
1808 1 5.31463 7.08618 23.0301 -8.30653
2058 2 3.54309 8.85773 23.0301 -6.92581
1312 2 7.08618 7.08618 24.8016 -7.01126
1562 2 8.85773 8.85773 24.8016 -7.01136
2807 3 8.85773 7.08618 23.0301 -6.29288
3058 1 7.08618 8.85773 23.0301 -8.37471
43 1 10.6293 8.85773 23.0301 -8.60603
1809 3 10.6293 7.08618 24.8016 -6.23441
2059 1 12.4008 8.85773 24.8016 -8.37379
3809 3 12.4008 7.08618 23.0301 -6.27871
810 1 15.9439 7.08618 23.0301 -8.35539
1059 2 14.1724 8.85773 23.0301 -6.82005
2311 3 14.1724 7.08618 24.8016 -6.42493
2562 3 15.9439 8.85773 24.8016 -6.31395
1810 1 1.77154 10.6293 23.0301 -8.43908
2060 3 0 12.4008 23.0301 -6.4402
2808 3 0 10.6293 24.8016 -6.37214
3059 2 1.77154 12.4008 24.8016 -6.88585
2809 1 5.31463 10.6293 23.0301 -8.45328
3060 1 3.54309 12.4008 23.0301 -8.46777
3311 3 3.54309 10.6293 24.8016 -6.25234
3562 2 5.31463 12.4008 24.8016 -6.98013
45 2 8.85773 12.4008 24.8016 -7.02505
44 3 7.08618 12.4008 23.0301 -6.61226
3811 2 7.08618 10.6293 24.8016 -6.99973
3810 1 8.85773 10.6293 23.0301 -8.444
515 1 12.4008 12.4008 24.8016 -8.12369
297 1 10.6293 10.6293 24.8016 -8.06216
811 1 12.4008 10.6293 23.0301 -8.17126
1060 2 10.6293 12.4008 23.0301 -6.9892
812 1 14.1724 10.6293 24.8016 -8.2183
1061 1 15.9439 12.4008 24.8016 -8.48058
1811 3 15.9439 10.6293 23.0301 -6.43033
2061 2 14.1724 12.4008 23.0301 -7.04347
1313 1 0 14.1724 24.8016 -8.46581
1563 1 1.77154 15.9439 24.8016 -8.3633
2810 3 1.77154 14.1724 23.0301 -6.3173
3061 3 0 15.9439 23.0301 -6.31447
46 2 3.54309 15.9439 23.0301 -6.88042
1812 3 3.54309 14.1724 24.8016 -6.361
2062 1 5.31463 15.9439 24.8016 -8.33111
3812 2 5.31463 14.1724 23.0301 -6.96644
813 3 8.85773 14.1724 23.0301 -6.75127
1062 3 7.08618 15.9439 23.0301 -6.50234
2312 3 7.08618 14.1724 24.8016 -6.57163
2563 3 8.85773 15.9439 24.8016 -6.45202
1813 1 12.4008 14.1724 23.0301 -8.35873
2063 2 10.6293 15.9439 23.0301 -7.00145
2811 2 10.6293 14.1724 24.8016 -6.99067
3062 2 12.4008 15.9439 24.8016 -6.99849
2812 2 15.9439 14.1724 23.0301 -6.97524
3063 2 14.1724 15.9439 23.0301 -7.03485
3312 1 14.1724 14.1724 24.8016 -8.0776
3563 1 15.9439 15.9439 24.8016 -8.38632
751 2 1.77154 0 30.1163 -6.8524
47 1 0 1.77154 26.5732 -8.36971
298 1 0 0 28.3447 -8.455
548 3 1.77154 1.77154 28.3447 -6.31693
1063 2 0 1.77154 30.1163 -6.94031
3813 3 1.77154 0 26.5732 -6.20867
299 1 5.31463 0 26.5732 -8.55872
549 3 3.54309 1.77154 26.5732 -6.26982
1314 3 3.54309 0 28.3447 -6.28571
1564 1 5.31463 1.77154 28.3447 -8.28094
1814 2 5.31463 0 30.1163 -6.90517
2064 1 3.54309 1.77154 30.1163 -8.46789
752 1 8.85773 0 26.5732 -8.2925
1064 1 7.08618 1.77154 26.5732 -8.08964
2313 2 7.08618 0 28.3447 -6.96482
2564 2 8.85773 1.77154 28.3447 -6.87909
2813 2 8.85773 0 30.1163 -6.92695
3064 1 7.08618 1.77154 30.1163 -8.25316
48 3 10.6293 1.77154 30.1163 -6.43047
1315 3 12.4008 0 26.5732 -6.22725
1565 3 10.6293 1.77154 26.5732 -6.28186
3313 1 10.6293 0 28.3447 -8.52132
3564 3 12.4008 1.77154 28.3447 -6.40695
3814 1 12.4008 0 30.1163 -8.54084
753 2 15.9439 0 30.1163 -6.9319
300 2 14.1724 0 28.3447 -6.78803
550 2 15.9439 1.77154 28.3447 -6.89372
1065 3 14.1724 1.77154 30.1163 -6.39752
1815 1 15.9439 0 26.5732 -8.68611
2065 1 14.1724 1.77154 26.5732 -8.51812
1316 3 0 3.54309 28.3447 -6.44096
1566 3 1.77154 5.31463 28.3447 -6.42666
1816 1 1.77154 3.54309 30.1163 -8.76457
2066 2 0 5.31463 30.1163 -6.90862
2314 3 1.77154 3.54309 26.5732 -6.31028
2565 2 0 5.31463 26.5732 -6.87216