ITEM: TIMESTEP
0
ITEM: NUMBER OF ATOMS
4000
ITEM: BOX BOUNDS pp pp pp
0.0000000000000000e+00 3.5966380000000001e+01
0.0000000000000000e+00 3.5966380000000001e+01
0.0000000000000000e+00 3.5966380000000001e+01
ITEM: ATOMS id type x y z c_peratom
267 1 0 0 0 -8.42201
516 3 1.79832 1.79832 0 -6.40283
767 2 1.79832 0 1.79832 -6.9181
1016 3 0 1.79832 1.79832 -6.56021
1267 1 0 0 3.59664 -8.40257
1517 3 1.79832 1.79832 3.59664 -6.56208
1268 3 3.59664 0 0 -6.44544
1518 3 5.39496 1.79832 0 -6.35243
1767 1 5.39496 0 1.79832 -8.37001
2017 1 3.59664 1.79832 1.79832 -8.47874
2266 2 3.59664 0 3.59664 -6.88674
2517 3 5.39496 1.79832 3.59664 -6.42054
1 2 10.7899 1.79832 1.79832 -7.00178
268 3 10.7899 0 3.59664 -6.26042
2267 3 7.19328 0 0 -6.37467
2518 3 8.9916 1.79832 0 -6.65783
2766 3 8.9916 0 1.79832 -6.42077
3017 3 7.19328 1.79832 1.79832 -6.4531
3266 1 7.19328 0 3.59664 -8.33386
3267 2 10.7899 0 0 -7.15682
3517 1 8.9916 1.79832 3.59664 -8.40016
517 1 12.5882 1.79832 3.59664 -8.22112
3518 3 12.5882 1.79832 0 -6.54116
3767 1 12.5882 0 1.79832 -8.32428
269 3 14.3866 0 0 -6.5775
518 2 16.1849 1.79832 0 -7.0571
768 3 16.1849 0 1.79832 -6.63036
1017 2 14.3866 1.79832 1.79832 -6.98213
1269 2 14.3866 0 3.59664 -7.06853
1519 2 16.1849 1.79832 3.59664 -7.03183
1270 3 0 3.59664 0 -6.43072
1520 1 1.79832 5.39496 0 -8.22016
1768 3 1.79832 3.59664 1.79832 -6.43559
2018 1 0 5.39496 1.79832 -8.38955
2268 2 0 3.59664 3.59664 -7.03049
2519 3 1.79832 5.39496 3.59664 -6.64351
2269 1 3.59664 3.59664 0 -8.30653
2520 3 5.39496 5.39496 0 -6.50541
2767 3 5.39496 3.59664 1.79832 -6.5247
3018 2 3.59664 5.39496 1.79832 -6.93219
3268 3 3.59664 3.59664 3.59664 -6.55572
3519 2 5.39496 5.39496 3.59664 -7.04354
2 3 7.19328 5.39496 1.79832 -6.60109
271 2 10.7899 3.59664 0 -7.10958
270 2 7.19328 3.59664 3.59664 -6.91599
519 1 8.9916 5.39496 3.59664 -8.52383
1018 2 10.7899 5.39496 1.79832 -7.06805
1271 3 10.7899 3.59664 3.59664 -6.38338
3269 2 7.19328 3.59664 0 -6.89745
3520 1 8.9916 5.39496 0 -8.36746
3768 3 8.9916 3.59664 1.79832 -6.5316
520 2 12.5882 5.39496 0 -7.0619
769 1 12.5882 3.59664 1.79832 -8.28353
1521 2 12.5882 5.39496 3.59664 -6.98437
1272 2 14.3866 3.59664 0 -7.11248
1522 1 16.1849 5.39496 0 -8.13094
1769 1 16.1849 3.59664 1.79832 -8.20658
2019 1 14.3866 5.39496 1.79832 -8.30452
2270 3 14.3866 3.59664 3.59664 -6.44895
2521 3 16.1849 5.39496 3.59664 -6.42062
274 2 0 10.7899 3.59664 -7.07166
2271 2 0 7.19328 0 -7.03805
2522 1 1.79832 8.9916 0 -8.36796
2768 2 1.79832 7.19328 1.79832 -6.98037
3019 2 0 8.9916 1.79832 -7.01589
3273 3 0 10.7899 0 -6.49055
3270 3 0 7.19328 3.59664 -6.49741
3521 2 1.79832 8.9916 3.59664 -7.07673
3770 2 1.79832 10.7899 1.79832 -7.01068
3 1 3.59664 8.9916 1.79832 -8.46416
275 3 3.59664 10.7899 0 -6.48854
272 3 3.59664 7.19328 3.59664 -6.68223
521 2 5.39496 8.9916 3.59664 -7.04891
771 2 5.39496 10.7899 1.79832 -6.96352
1275 3 3.59664 10.7899 3.59664 -6.6266
3271 3 3.59664 7.19328 0 -6.44646
3522 3 5.39496 8.9916 0 -6.47571
3769 2 5.39496 7.19328 1.79832 -7.10224
273 3 7.19328 7.19328 0 -6.49176
522 1 8.9916 8.9916 0 -8.23461
770 2 8.9916 7.19328 1.79832 -6.98258
1019 2 7.19328 8.9916 1.79832 -7.04448
1276 1 7.19328 10.7899 0 -8.03287
1274 2 10.7899 7.19328 0 -7.11211
1273 2 7.19328 7.19328 3.59664 -7.09527
1523 1 8.9916 8.9916 3.59664 -8.48386
1771 2 8.9916 10.7899 1.79832 -6.99449
2020 3 10.7899 8.9916 1.79832 -6.55808
2275 2 10.7899 10.7899 0 -7.05255
2274 3 7.19328 10.7899 3.59664 -6.45295
2272 3 10.7899 7.19328 3.59664 -6.56613
3274 3 10.7899 10.7899 3.59664 -6.41132
1524 1 12.5882 8.9916 0 -8.44748
1770 2 12.5882 7.19328 1.79832 -7.0806
2523 3 12.5882 8.9916 3.59664 -6.65793
2770 2 12.5882 10.7899 1.79832 -6.98675
276 3 14.3866 10.7899 3.59664 -6.61067
2273 2 14.3866 7.19328 0 -7.05697
2524 2 16.1849 8.9916 0 -7.08962
2769 3 16.1849 7.19328 1.79832 -6.59062
3020 3 14.3866 8.9916 1.79832 -6.6986
3275 2 14.3866 10.7899 0 -7.03131
3272 3 14.3866 7.19328 3.59664 -6.57374
3523 2 16.1849 8.9916 3.59664 -7.0609
3771 2 16.1849 10.7899 1.79832 -7.02885
4 1 0 12.5882 1.79832 -8.13076
523 2 1.79832 12.5882 3.59664 -7.05703
3524 1 1.79832 12.5882 0 -8.30812
524 2 5.39496 12.5882 0 -6.86936
1020 3 3.59664 12.5882 1.79832 -6.4611
1525 1 5.39496 12.5882 3.59664 -8.36804
1526 1 8.9916 12.5882 0 -8.36709
2021 1 7.19328 12.5882 1.79832 -8.11952
2525 1 8.9916 12.5882 3.59664 -8.43883
3021 3 10.7899 12.5882 1.79832 -6.42111
2526 2 12.5882 12.5882 0 -6.96817
3525 1 12.5882 12.5882 3.59664 -8.35548
5 1 14.3866 12.5882 1.79832 -8.26732
525 3 16.1849 12.5882 3.59664 -6.47038
3526 3 16.1849 12.5882 0 -6.4027
277 1 0 14.3866 0 -8.09211
526 2 1.79832 16.1849 0 -7.11152
772 2 1.79832 14.3866 1.79832 -7.03973
1021 2 0 16.1849 1.79832 -7.06925
1277 2 0 14.3866 3.59664 -6.99382
1527 2 1.79832 16.1849 3.59664 -7.0759
1278 1 3.59664 14.3866 0 -8.12082
1528 3 5.39496 16.1849 0 -6.29265
1772 1 5.39496 14.3866 1.79832 -8.31162
2022 1 3.59664 16.1849 1.79832 -8.24822
2276 3 3.59664 14.3866 3.59664 -6.38793
2527 3 5.39496 16.1849 3.59664 -6.39802
6 2 10.7899 16.1849 1.79832 -6.99411
278 2 10.7899 14.3866 3.59664 -6.91893
2277 3 7.19328 14.3866 0 -6.4122
2528 2 8.9916 16.1849 0 -6.97801
2771 3 8.9916 14.3866 1.79832 -6.47471
3022 3 7.19328 16.1849 1.79832 -6.46919
3277 3 10.7899 14.3866 0 -6.44214
3276 3 7.19328 14.3866 3.59664 -6.32748
3527 3 8.9916 16.1849 3.59664 -6.5634
527 1 12.5882 16.1849 3.59664 -8.16864
3528 3 12.5882 16.1849 0 -6.34823
3772 1 12.5882 14.3866 1.79832 -8.26111
279 3 14.3866 14.3866 0 -6.35049
528 2 16.1849 16.1849 0 -6.93267
773 1 16.1849 14.3866 1.79832 -8.17783
1022 1 14.3866 16.1849 1.79832 -8.20004
1279 1 14.3866 14.3866 3.59664 -8.11258
1529 3 16.1849 16.1849 3.59664 -6.28083
1773 2 1.79832 0 5.39496 -6.95129
2023 2 0 1.79832 5.39496 -6.92965
2278 1 0 0 7.19328 -8.25771
2529 1 1.79832 1.79832 7.19328 -8.419
2773 1 3.59664 0 7.19328 -8.60708
2772 3 5.39496 0 5.39496 -6.48096
3024 3 5.39496 1.79832 7.19328 -6.41182
3023 3 3.59664 1.79832 5.39496 -6.49003
7 3 7.19328 1.79832 5.39496 -6.37004
1023 1 10.7899 1.79832 5.39496 -8.07067
3278 3 7.19328 0 7.19328 -6.43895
3529 2 8.9916 1.79832 7.19328 -6.9606
3774 1 10.7899 0 7.19328 -7.95244
3773 1 8.9916 0 5.39496 -8.16321
8 1 12.5882 1.79832 7.19328 -8.21174
774 1 12.5882 0 5.39496 -7.93483
280 1 14.3866 0 7.19328 -8.12273
529 2 16.1849 1.79832 7.19328 -7.04912
1774 3 16.1849 0 5.39496 -6.54575
2024 2 14.3866 1.79832 5.39496 -6.98276
775 3 0 3.59664 7.19328 -6.61354
1024 2 1.79832 5.39496 7.19328 -6.99303
2774 3 1.79832 3.59664 5.39496 -6.64779
3025 3 0 5.39496 5.39496 -6.58869
9 2 3.59664 5.39496 5.39496 -7.02021
1280 3 3.59664 3.59664 7.19328 -6.51553
1530 3 5.39496 5.39496 7.19328 -6.30902
3775 1 5.39496 3.59664 5.39496 -8.54007
776 3 8.9916 3.59664 5.39496 -6.30367
1025 1 7.19328 5.39496 5.39496 -8.21815
1775 3 7.19328 3.59664 7.19328 -6.29613
2026 2 10.7899 5.39496 5.39496 -6.90467
2025 1 8.9916 5.39496 7.19328 -8.19885
2279 1 10.7899 3.59664 7.19328 -8.1303
1776 3 12.5882 3.59664 5.39496 -6.4045
2530 2 12.5882 5.39496 7.19328 -6.95705
2776 3 14.3866 3.59664 7.19328 -6.62076
2775 3 16.1849 3.59664 5.39496 -6.57545
3027 2 16.1849 5.39496 7.19328 -7.0288
3026 1 14.3866 5.39496 5.39496 -8.60706
10 1 0 8.9916 5.39496 -8.34247
779 2 1.79832 10.7899 5.39496 -7.05551
1778 3 0 10.7899 7.19328 -6.27852
3279 1 0 7.19328 7.19328 -8.28774
3530 1 1.79832 8.9916 7.19328 -8.30198
3776 2 1.79832 7.19328 5.39496 -7.03579
11 1 5.39496 8.9916 7.19328 -8.2788
777 1 5.39496 7.19328 5.39496 -8.30155
1026 2 3.59664 8.9916 5.39496 -7.05806
1779 3 5.39496 10.7899 5.39496 -6.51034
2280 3 3.59664 10.7899 7.19328 -6.35174
3777 2 3.59664 7.19328 7.19328 -7.07025
281 3 7.19328 7.19328 7.19328 -6.29018
530 2 8.9916 8.9916 7.19328 -6.94373
778 3 10.7899 7.19328 7.19328 -6.43487
1777 3 8.9916 7.19328 5.39496 -6.37821
2027 2 7.19328 8.9916 5.39496 -6.99778
2779 2 7.19328 10.7899 7.19328 -7.0243
2778 3 8.9916 10.7899 5.39496 -6.39832
3028 1 10.7899 8.9916 5.39496 -8.34703
3280 1 10.7899 10.7899 7.19328 -8.13763
1027 1 12.5882 8.9916 7.19328 -8.22152
2777 2 12.5882 7.19328 5.39496 -6.99313
3779 2 12.5882 10.7899 5.39496 -7.02495
12 2 14.3866 8.9916 5.39496 -6.96674
780 2 16.1849 10.7899 5.39496 -6.99358
1281 3 14.3866 7.19328 7.19328 -6.61837
1531 3 16.1849 8.9916 7.19328 -6.51162
3780 1 14.3866 10.7899 7.19328 -8.13228
3778 1 16.1849 7.19328 5.39496 -8.4269
1028 3 0 12.5882 5.39496 -6.42033
2028 1 1.79832 12.5882 7.19328 -8.17956
2029 2 3.59664 12.5882 5.39496 -6.9813
2531 1 5.39496 12.5882 7.19328 -8.21608
13 3 10.7899 12.5882 5.39496 -6.30938
3030 1 8.9916 12.5882 7.19328 -8.33587
3029 2 7.19328 12.5882 5.39496 -6.92316
3531 1 12.5882 12.5882 7.19328 -8.27988
14 1 16.1849 12.5882 7.19328 -8.40091
1029 2 14.3866 12.5882 5.39496 -6.95293
282 1 0 14.3866 7.19328 -8.01483
531 2 1.79832 16.1849 7.19328 -6.99887
1780 1 1.79832 14.3866 5.39496 -8.25527
2030 3 0 16.1849 5.39496 -6.40125
781 2 3.59664 14.3866 7.19328 -7.1042
1030 2 5.39496 16.1849 7.19328 -7.05792
2780 1 5.39496 14.3866 5.39496 -8.29781
3031 1 3.59664 16.1849 5.39496 -8.29081
15 3 7.19328 16.1849 5.39496 -6.49859
1031 2 10.7899 16.1849 5.39496 -6.9868
1282 3 7.19328 14.3866 7.19328 -6.34826
1532 1 8.9916 16.1849 7.19328 -8.3493
1781 2 10.7899 14.3866 7.19328 -6.96372
3781 1 8.9916 14.3866 5.39496 -8.29898
782 3 12.5882 14.3866 5.39496 -6.41836
2031 3 12.5882 16.1849 7.19328 -6.58701
1782 2 16.1849 14.3866 5.39496 -6.99957
2032 2 14.3866 16.1849 5.39496 -6.95897
2281 3 14.3866 14.3866 7.19328 -6.56857
2532 2 16.1849 16.1849 7.19328 -7.05731
16 2 0 1.79832 12.5882 -6.92175
2781 3 1.79832 0 8.9916 -6.41053
3032 2 0 1.79832 8.9916 -6.9683
3281 1 0 0 10.7899 -8.28467
3532 1 1.79832 1.79832 10.7899 -8.49439
3782 3 1.79832 0 12.5882 -6.3754
251 2 3.59664 0 10.7899 -6.99294
532 2 5.39496 1.79832 10.7899 -7.06498
783 3 5.39496 0 12.5882 -6.64961
1032 3 3.59664 1.79832 12.5882 -6.52222
3282 3 5.39496 0 8.9916 -6.54944
3533 2 3.59664 1.79832 8.9916 -6.96728
17 1 7.19328 1.79832 8.9916 -8.34699
533 2 10.7899 1.79832 8.9916 -7.0118
1283 3 7.19328 0 10.7899 -6.61373
1533 2 8.9916 1.79832 10.7899 -7.07787
1783 2 8.9916 0 12.5882 -7.08455
2033 2 7.19328 1.79832 12.5882 -7.02245
2282 3 10.7899 0 10.7899 -6.65155
3033 3 10.7899 1.79832 12.5882 -6.74387
3783 1 8.9916 0 8.9916 -8.28484
252 1 12.5882 0 8.9916 -8.2508
2533 2 12.5882 1.79832 10.7899 -7.03423
2782 3 12.5882 0 12.5882 -6.70034
18 2 14.3866 1.79832 12.5882 -7.0303
784 2 16.1849 0 8.9916 -6.99636
1033 3 14.3866 1.79832 8.9916 -6.55805
3283 3 14.3866 0 10.7899 -6.58737
3534 3 16.1849 1.79832 10.7899 -6.62024
3784 1 16.1849 0 12.5882 -8.31442
253 2 0 3.59664 10.7899 -6.93353
534 1 1.79832 5.39496 10.7899 -8.17278
785 3 1.79832 3.59664 12.5882 -6.43828
1034 1 0 5.39496 12.5882 -8.12579
1284 3 1.79832 3.59664 8.9916 -6.51557
1534 3 0 5.39496 8.9916 -6.44037
1285 2 3.59664 3.59664 10.7899 -7.01582
1535 2 5.39496 5.39496 10.7899 -7.04022
1785 1 5.39496 3.59664 12.5882 -8.30527
1784 1 5.39496 3.59664 8.9916 -8.32134
2035 1 3.59664 5.39496 12.5882 -8.15366
2034 2 3.59664 5.39496 8.9916 -7.04926
19 1 10.7899 5.39496 12.5882 -8.4045
2284 1 7.19328 3.59664 10.7899 -8.1031
2283 2 8.9916 3.59664 8.9916 -6.95524
2535 3 8.9916 5.39496 10.7899 -6.37505
2534 1 7.19328 5.39496 8.9916 -8.15374
2783 2 8.9916 3.59664 12.5882 -7.01745
3035 1 10.7899 5.39496 8.9916 -8.3867
3034 2 7.19328 5.39496 12.5882 -6.92926
3284 3 10.7899 3.59664 10.7899 -6.60086
2784 3 12.5882 3.59664 8.9916 -6.55815
3535 3 12.5882 5.39496 10.7899 -6.50113
3785 2 12.5882 3.59664 12.5882 -7.09234
254 3 14.3866 3.59664 10.7899 -6.7024
535 2 16.1849 5.39496 10.7899 -7.07537
786 3 16.1849 3.59664 12.5882 -6.54358
1035 1 14.3866 5.39496 12.5882 -8.42687
3285 2 16.1849 3.59664 8.9916 -7.15345
3536 2 14.3866 5.39496 8.9916 -7.09234
20 3 0 8.9916 8.9916 -6.33039
1286 2 0 7.19328 10.7899 -6.98765
1536 2 1.79832 8.9916 10.7899 -7.06509
1786 1 1.79832 7.19328 12.5882 -8.051
2036 1 0 8.9916 12.5882 -8.05306
2287 2 0 10.7899 10.7899 -7.06795
2286 2 1.79832 10.7899 8.9916 -6.98702
2786 1 1.79832 10.7899 12.5882 -8.18493
3786 1 1.79832 7.19328 8.9916 -8.14827
255 1 5.39496 7.19328 8.9916 -8.21957
536 2 3.59664 8.9916 8.9916 -7.10906
2285 1 3.59664 7.19328 10.7899 -8.03387
2536 2 5.39496 8.9916 10.7899 -6.96806
2787 1 5.39496 10.7899 8.9916 -8.27517
2785 1 5.39496 7.19328 12.5882 -8.26782
3036 2 3.59664 8.9916 12.5882 -7.0389
3287 2 3.59664 10.7899 10.7899 -7.06995
3788 1 5.39496 10.7899 12.5882 -8.32674
256 2 10.7899 7.19328 10.7899 -6.98417
257 2 7.19328 10.7899 10.7899 -7.00879
21 3 7.19328 8.9916 12.5882 -6.41988
789 1 8.9916 10.7899 12.5882 -8.19768
787 1 8.9916 7.19328 8.9916 -8.24738
1037 3 10.7899 8.9916 12.5882 -6.42066
1036 3 7.19328 8.9916 8.9916 -6.37646
1289 2 10.7899 10.7899 10.7899 -7.06374
1537 2 10.7899 8.9916 8.9916 -7.0547
3288 2 8.9916 10.7899 8.9916 -7.03959
3286 3 7.19328 7.19328 10.7899 -6.3489
3537 1 8.9916 8.9916 10.7899 -8.38918
3787 3 8.9916 7.19328 12.5882 -6.49606
537 1 12.5882 8.9916 10.7899 -8.22257
788 1 12.5882 7.19328 12.5882 -8.00015
1287 2 12.5882 7.19328 8.9916 -7.07371
1789 3 12.5882 10.7899 12.5882 -6.46938
3789 2 12.5882 10.7899 8.9916 -7.13734
258 3 16.1849 10.7899 8.9916 -6.3375
1288 2 14.3866 7.19328 10.7899 -7.04826
1538 1 16.1849 8.9916 10.7899 -8.27597
1788 3 16.1849 7.19328 12.5882 -6.44916
1787 3 16.1849 7.19328 8.9916 -6.64931
2038 1 14.3866 8.9916 12.5882 -8.00802
2037 2 14.3866 8.9916 8.9916 -6.99564
2288 1 14.3866 10.7899 10.7899 -8.15862
2788 1 16.1849 10.7899 12.5882 -8.08832
2538 1 1.79832 12.5882 10.7899 -7.9641
2537 1 0 12.5882 8.9916 -7.88055
3037 1 0 12.5882 12.5882 -7.96859
22 3 3.59664 12.5882 12.5882 -6.43626
3038 1 3.59664 12.5882 8.9916 -7.99413
3538 3 5.39496 12.5882 10.7899 -6.40507
23 2 10.7899 12.5882 8.9916 -7.11716
538 3 8.9916 12.5882 10.7899 -6.56758
1038 1 7.19328 12.5882 12.5882 -8.17823
2039 1 10.7899 12.5882 12.5882 -8.21102
3539 3 7.19328 12.5882 8.9916 -6.49142
1539 2 12.5882 12.5882 10.7899 -6.99559
539 1 14.3866 12.5882 8.9916 -8.26371
2539 2 16.1849 12.5882 10.7899 -6.93395
3039 3 14.3866 12.5882 12.5882 -6.47308
24 2 0 16.1849 12.5882 -7.08746
790 1 1.79832 14.3866 8.9916 -7.90153
1039 3 0 16.1849 8.9916 -6.32918
3289 1 0 14.3866 10.7899 -7.87109
3540 1 1.79832 16.1849 10.7899 -8.2014
3790 1 1.79832 14.3866 12.5882 -8.14812
259 2 3.59664 14.3866 10.7899 -7.06168
540 2 5.39496 16.1849 10.7899 -7.04678
791 3 5.39496 14.3866 12.5882 -6.61476
1040 3 3.59664 16.1849 12.5882 -6.57197
1290 1 5.39496 14.3866 8.9916 -8.22616
1540 1 3.59664 16.1849 8.9916 -8.20371
1291 2 7.19328 14.3866 10.7899 -7.013
1541 3 8.9916 16.1849 10.7899 -6.51814
1791 1 8.9916 14.3866 12.5882 -8.15025
1790 2 8.9916 14.3866 8.9916 -7.05024
2041 1 7.19328 16.1849 12.5882 -8.24356
2040 2 7.19328 16.1849 8.9916 -7.05321
2290 2 10.7899 14.3866 10.7899 -7.09563
2540 3 10.7899 16.1849 8.9916 -6.53317
3040 2 10.7899 16.1849 12.5882 -7.00965
2289 3 12.5882 14.3866 8.9916 -6.58478
2541 2 12.5882 16.1849 10.7899 -7.08067
2789 1 12.5882 14.3866 12.5882 -8.29044
25 1 14.3866 16.1849 12.5882 -8.28227
2790 3 16.1849 14.3866 8.9916 -6.54321
3041 3 14.3866 16.1849 8.9916 -6.65603
3290 3 14.3866 14.3866 10.7899 -6.51001
3541 2 16.1849 16.1849 10.7899 -7.01652
3791 1 16.1849 14.3866 12.5882 -8.21165
260 1 0 0 14.3866 -8.25014
541 3 1.79832 1.79832 14.3866 -6.38038
792 1 1.79832 0 16.1849 -8.02123
1041 2 0 1.79832 16.1849 -6.96007
1292 1 3.59664 0 14.3866 -8.37759
1542 2 5.39496 1.79832 14.3866 -7.01795
1792 2 5.39496 0 16.1849 -6.965
2042 2 3.59664 1.79832 16.1849 -7.02626
26 2 10.7899 1.79832 16.1849 -7.09322
2291 3 7.19328 0 14.3866 -6.58581
2542 1 8.9916 1.79832 14.3866 -8.45934
2791 2 8.9916 0 16.1849 -6.99059
3042 1 7.19328 1.79832 16.1849 -8.39702
3291 2 10.7899 0 14.3866 -7.08389
3542 2 12.5882 1.79832 14.3866 -7.13366
3792 2 12.5882 0 16.1849 -7.15177
261 1 14.3866 0 14.3866 -8.2797
542 1 16.1849 1.79832 14.3866 -8.25355
793 3 16.1849 0 16.1849 -6.43294
1042 2 14.3866 1.79832 16.1849 -7.06153
1293 1 0 3.59664 14.3866 -8.2078
1543 3 1.79832 5.39496 14.3866 -6.33984
1793 1 1.79832 3.59664 16.1849 -8.35024
2043 3 0 5.39496 16.1849 -6.37913
2292 2 3.59664 3.59664 14.3866 -6.93485
2543 3 5.39496 5.39496 14.3866 -6.46453
2792 3 5.39496 3.59664 16.1849 -6.51783
3043 1 3.59664 5.39496 16.1849 -8.35444
262 2 10.7899 3.59664 14.3866 -7.02899
27 3 7.19328 5.39496 16.1849 -6.47013
1043 1 10.7899 5.39496 16.1849 -8.36874
3292 3 7.19328 3.59664 14.3866 -6.55171
3543 3 8.9916 5.39496 14.3866 -6.48048
3793 3 8.9916 3.59664 16.1849 -6.42093
543 2 12.5882 5.39496 14.3866 -7.11714
794 3 12.5882 3.59664 16.1849 -6.45657
1294 2 14.3866 3.59664 14.3866 -6.97949
1544 3 16.1849 5.39496 14.3866 -6.34574
1794 1 16.1849 3.59664 16.1849 -7.98823
2044 1 14.3866 5.39496 16.1849 -8.11305
2293 2 0 7.19328 14.3866 -7.00491
2544 2 1.79832 8.9916 14.3866 -7.10229
2793 2 1.79832 7.19328 16.1849 -6.98116
3044 1 0 8.9916 16.1849 -8.09933
3294 1 0 10.7899 14.3866 -8.04916
3795 1 1.79832 10.7899 16.1849 -8.1513
264 3 3.59664 10.7899 14.3866 -6.40842
28 1 3.59664 8.9916 16.1849 -8.17188
796 2 5.39496 10.7899 16.1849 -7.04856
3293 2 3.59664 7.19328 14.3866 -7.03429
3544 1 5.39496 8.9916 14.3866 -8.25792
3794 2 5.39496 7.19328 16.1849 -7.01041
263 3 7.19328 7.19328 14.3866 -6.53286
544 2 8.9916 8.9916 14.3866 -6.95375
795 3 8.9916 7.19328 16.1849 -6.39106
1044 2 7.19328 8.9916 16.1849 -6.98101
1296 2 7.19328 10.7899 14.3866 -7.09764
1295 1 10.7899 7.19328 14.3866 -8.25211
1796 3 8.9916 10.7899 16.1849 -6.61407
2045 1 10.7899 8.9916 16.1849 -8.31553
2295 2 10.7899 10.7899 14.3866 -6.9864
1545 3 12.5882 8.9916 14.3866 -6.28266
1795 1 12.5882 7.19328 16.1849 -7.96578
2795 3 12.5882 10.7899 16.1849 -6.50299
2294 1 14.3866 7.19328 14.3866 -8.08248
2545 1 16.1849 8.9916 14.3866 -8.25238
2794 3 16.1849 7.19328 16.1849 -6.1926
3045 1 14.3866 8.9916 16.1849 -8.21119
3295 2 14.3866 10.7899 14.3866 -7.00598
3796 3 16.1849 10.7899 16.1849 -6.37161
29 2 0 12.5882 16.1849 -6.96979
3545 3 1.79832 12.5882 14.3866 -6.29591
545 2 5.39496 12.5882 14.3866 -7.10702
1045 2 3.59664 12.5882 16.1849 -7.1004
1546 2 8.9916 12.5882 14.3866 -7.03757
2046 3 7.19328 12.5882 16.1849 -6.62949
3046 3 10.7899 12.5882 16.1849 -6.48442
2546 2 12.5882 12.5882 14.3866 -7.0431
30 2 14.3866 12.5882 16.1849 -7.01765
3546 2 16.1849 12.5882 14.3866 -7.0242
265 3 0 14.3866 14.3866 -6.30728
546 1 1.79832 16.1849 14.3866 -8.24651
797 1 1.79832 14.3866 16.1849 -8.29564
1046 3 0 16.1849 16.1849 -6.30184
1297 2 3.59664 14.3866 14.3866 -7.04802
1547 3 5.39496 16.1849 14.3866 -6.60329
1797 2 5.39496 14.3866 16.1849 -7.11377
2047 2 3.59664 16.1849 16.1849 -7.0857
31 1 10.7899 16.1849 16.1849 -8.09963
2296 2 7.19328 14.3866 14.3866 -7.03219
2547 1 8.9916 16.1849 14.3866 -8.038
2796 1 8.9916 14.3866 16.1849 -8.1709
3047 3 7.19328 16.1849 16.1849 -6.48059
3296 3 10.7899 14.3866 14.3866 -6.29919
3547 2 12.5882 16.1849 14.3866 -7.05597
3797 1 12.5882 14.3866 16.1849 -8.31568
266 2 14.3866 14.3866 14.3866 -7.01278
547 3 16.1849 16.1849 14.3866 -6.4867
798 3 16.1849 14.3866 16.1849 -6.42305
1047 3 14.3866 16.1849 16.1849 -6.50538
1298 1 0 0 17.9832 -8.11261
1548 3 1.79832 1.79832 17.9832 -6.45534
1798 3 1.79832 0 19.7815 -6.31751
2048 1 0 1.79832 19.7815 -8.26924
2297 2 0 0 21.5798 -6.93604
2548 1 1.79832 1.79832 21.5798 -8.28882
2298 2 3.59664 0 17.9832 -7.01486
2549 2 5.39496 1.79832 17.9832 -7.05053
2797 3 5.39496 0 19.7815 -6.5607
3048 2 3.59664 1.79832 19.7815 -6.98681
3297 1 3.59664 0 21.5798 -8.25416
3548 3 5.39496 1.79832 21.5798 -6.46602
501 1 8.9916 1.79832 21.5798 -8.67805
32 3 7.19328 1.79832 19.7815 -6.48578
284 2 10.7899 0 17.9832 -7.0986
283 3 7.19328 0 21.5798 -6.47619
1048 3 10.7899 1.79832 19.7815 -6.50812
1299 3 10.7899 0 21.5798 -6.46676
3298 3 7.19328 0 17.9832 -6.5093
3549 2 8.9916 1.79832 17.9832 -6.91986
3798 3 8.9916 0 19.7815 -6.43401
502 3 12.5882 1.79832 17.9832 -6.60014
799 2 12.5882 0 19.7815 -7.07646
1549 3 12.5882 1.79832 21.5798 -6.56152
1300 2 14.3866 0 17.9832 -7.08653
1550 2 16.1849 1.79832 17.9832 -6.92924
1799 3 16.1849 0 19.7815 -6.47133
2049 2 14.3866 1.79832 19.7815 -7.00528
2299 2 14.3866 0 21.5798 -6.96036
2550 1 16.1849 1.79832 21.5798 -8.29284
2300 3 0 3.59664 17.9832 -6.37299
2551 2 1.79832 5.39496 17.9832 -6.99426
2798 3 1.79832 3.59664 19.7815 -6.49417
3049 1 0 5.39496 19.7815 -8.15549
3299 2 0 3.59664 21.5798 -6.95506
3550 1 1.79832 5.39496 21.5798 -8.33436
503 3 5.39496 5.39496 21.5798 -6.45635
33 3 3.59664 5.39496 19.7815 -6.48462
285 2 3.59664 3.59664 21.5798 -6.92127
3300 2 3.59664 3.59664 17.9832 -6.97145
3551 3 5.39496 5.39496 17.9832 -6.35659
3799 1 5.39496 3.59664 19.7815 -8.48466
504 3 8.9916 5.39496 17.9832 -6.27617
286 1 7.19328 3.59664 17.9832 -8.48509
800 3 8.9916 3.59664 19.7815 -6.38621
1049 3 7.19328 5.39496 19.7815 -6.30484
1302 1 10.7899 3.59664 17.9832 -8.39883
1301 3 7.19328 3.59664 21.5798 -6.36948
1551 2 8.9916 5.39496 21.5798 -6.88008
2050 1 10.7899 5.39496 19.7815 -8.26466
2301 3 10.7899 3.59664 21.5798 -6.29606
1552 3 12.5882 5.39496 17.9832 -6.1268
1800 1 12.5882 3.59664 19.7815 -8.15885
2552 1 12.5882 5.39496 21.5798 -8.25776
2302 1 14.3866 3.59664 17.9832 -8.20455
2553 1 16.1849 5.39496 17.9832 -8.02347
2799 3 16.1849 3.59664 19.7815 -6.29577
3050 1 14.3866 5.39496 19.7815 -8.17892
3301 3 14.3866 3.59664 21.5798 -6.40534
3552 2 16.1849 5.39496 21.5798 -6.96759
505 3 1.79832 8.9916 21.5798 -6.38116
34 1 0 8.9916 19.7815 -8.21386
290 1 0 10.7899 17.9832 -8.04377
287 1 0 7.19328 21.5798 -8.14951
802 2 1.79832 10.7899 19.7815 -6.88532
1305 3 0 10.7899 21.5798 -6.41157
3302 1 0 7.19328 17.9832 -8.22195
3553 3 1.79832 8.9916 17.9832 -6.22182
3800 2 1.79832 7.19328 19.7815 -6.98985
506 1 5.39496 8.9916 17.9832 -8.09968
288 1 3.59664 7.19328 17.9832 -8.27296
801 3 5.39496 7.19328 19.7815 -6.31837
1050 1 3.59664 8.9916 19.7815 -8.27865
1306 3 3.59664 10.7899 17.9832 -6.36727
1303 2 3.59664 7.19328 21.5798 -6.90255
1553 1 5.39496 8.9916 21.5798 -8.28951
1802 1 5.39496 10.7899 19.7815 -8.3797
2305 3 3.59664 10.7899 21.5798 -6.44872
291 2 10.7899 10.7899 21.5798 -6.94873
1304 1 7.19328 7.19328 17.9832 -8.36881
1554 1 8.9916 8.9916 17.9832 -8.1599
1801 1 8.9916 7.19328 19.7815 -8.09692
2051 2 7.19328 8.9916 19.7815 -7.00624
2306 3 7.19328 10.7899 17.9832 -6.51664
2304 2 10.7899 7.19328 17.9832 -6.86564
2303 1 7.19328 7.19328 21.5798 -8.29437
2554 2 8.9916 8.9916 21.5798 -7.00878
2801 1 8.9916 10.7899 19.7815 -8.3179
3051 2 10.7899 8.9916 19.7815 -7.02872
3306 2 10.7899 10.7899 17.9832 -6.98846
3305 3 7.19328 10.7899 21.5798 -6.47
3303 2 10.7899 7.19328 21.5798 -7.02544
2555 3 12.5882 8.9916 17.9832 -6.36794
2800 3 12.5882 7.19328 19.7815 -6.33882
3554 3 12.5882 8.9916 21.5798 -6.50013
3802 2 12.5882 10.7899 19.7815 -6.9939
507 1 16.1849 8.9916 21.5798 -8.0342
35 1 14.3866 8.9916 19.7815 -8.25167
292 3 14.3866 10.7899 17.9832 -6.40817
289 2 14.3866 7.19328 21.5798 -7.02566
803 2 16.1849 10.7899 19.7815 -7.01128
1307 1 14.3866 10.7899 21.5798 -8.13477
3304 1 14.3866 7.19328 17.9832 -8.04577
3555 1 16.1849 8.9916 17.9832 -8.10152
3801 2 16.1849 7.19328 19.7815 -7.14097
508 1 1.79832 12.5882 17.9832 -7.96038
1051 1 0 12.5882 19.7815 -8.06509
1555 3 1.79832 12.5882 21.5798 -6.39514
1556 2 5.39496 12.5882 17.9832 -7.08558
2052 2 3.59664 12.5882 19.7815 -6.96656
2556 3 5.39496 12.5882 21.5798 -6.60725
36 1 10.7899 12.5882 19.7815 -8.32169
2557 2 8.9916 12.5882 17.9832 -6.94399
3052 2 7.19328 12.5882 19.7815 -7.03909
3556 3 8.9916 12.5882 21.5798 -6.54793
509 3 12.5882 12.5882 21.5798 -6.49576
3557 1 12.5882 12.5882 17.9832 -8.3086
510 3 16.1849 12.5882 17.9832 -6.40479
1052 2 14.3866 12.5882 19.7815 -6.94245
1557 1 16.1849 12.5882 21.5798 -8.07659
1308 2 0 14.3866 17.9832 -6.93417
1558 3 1.79832 16.1849 17.9832 -6.32686
1803 1 1.79832 14.3866 19.7815 -8.08567
2053 1 0 16.1849 19.7815 -8.09341
2307 1 0 14.3866 21.5798 -8.15257
2558 1 1.79832 16.1849 21.5798 -8.04671
2308 1 3.59664 14.3866 17.9832 -8.19236
2559 2 5.39496 16.1849 17.9832 -7.09592
2802 2 5.39496 14.3866 19.7815 -7.08682
3053 2 3.59664 16.1849 19.7815 -6.99521
3307 3 3.59664 14.3866 21.5798 -6.44077
3558 1 5.39496 16.1849 21.5798 -8.2343
511 3 8.9916 16.1849 21.5798 -6.55137
37 2 7.19328 16.1849 19.7815 -7.00244
294 1 10.7899 14.3866 17.9832 -8.08757
293 2 7.19328 14.3866 21.5798 -7.05423
1053 3 10.7899 16.1849 19.7815 -6.4566
1309 3 10.7899 14.3866 21.5798 -6.57904
3308 1 7.19328 14.3866 17.9832 -8.33316
3559 1 8.9916 16.1849 17.9832 -8.14849
3803 3 8.9916 14.3866 19.7815 -6.48471
512 3 12.5882 16.1849 17.9832 -6.39826
804 2 12.5882 14.3866 19.7815 -6.93947
1559 2 12.5882 16.1849 21.5798 -6.95197
1310 3 14.3866 14.3866 17.9832 -6.40862
1560 1 16.1849 16.1849 17.9832 -8.22518
1804 1 16.1849 14.3866 19.7815 -8.33077
2054 3 14.3866 16.1849 19.7815 -6.41063
2309 3 14.3866 14.3866 21.5798 -6.50087
2560 3 16.1849 16.1849 21.5798 -6.33168
2803 3 1.79832 0 23.3781 -6.45177
3054 1 0 1.79832 23.3781 -8.54061
3309 3 0 0 25.1765 -6.46838
3560 3 1.79832 1.79832 25.1765 -6.35006
39 1 5.39496 1.79832 25.1765 -8.39122
38 2 3.59664 1.79832 23.3781 -6.84933
3805 3 3.59664 0 25.1765 -6.48476
3804 1 5.39496 0 23.3781 -8.3882
513 2 8.9916 1.79832 25.1765 -6.864
295 3 7.19328 0 25.1765 -6.55379
806 3 10.7899 0 25.1765 -6.37971
805 2 8.9916 0 23.3781 -6.90651
1054 3 7.19328 1.79832 23.3781 -6.36291
2055 3 10.7899 1.79832 23.3781 -6.3941
1055 1 12.5882 1.79832 25.1765 -8.20844
1805 2 12.5882 0 23.3781 -6.94884
1311 1 14.3866 0 25.1765 -8.14022
1561 1 16.1849 1.79832 25.1765 -8.08453
2804 1 16.1849 0 23.3781 -8.17601
3055 2 14.3866 1.79832 23.3781 -7.01641
40 3 0 5.39496 23.3781 -6.54549
1806 3 0 3.59664 25.1765 -6.44527
2056 3 1.79832 5.39496 25.1765 -6.41751
3806 3 1.79832 3.59664 23.3781 -6.42697
807 3 5.39496 3.59664 23.3781 -6.40442
1056 3 3.59664 5.39496 23.3781 -6.41323
2310 1 3.59664 3.59664 25.1765 -8.32442
2561 1 5.39496 5.39496 25.1765 -8.2156
1807 1 8.9916 3.59664 23.3781 -8.20218
2057 1 7.19328 5.39496 23.3781 -8.14134
2805 3 7.19328 3.59664 25.1765 -6.35066
3057 1 10.7899 5.39496 23.3781 -8.21713
3056 1 8.9916 5.39496 25.1765 -8.27394
3310 1 10.7899 3.59664 25.1765 -8.14728
2806 3 12.5882 3.59664 23.3781 -6.34978
3561 2 12.5882 5.39496 25.1765 -6.92524
42 3 16.1849 5.39496 25.1765 -6.3079
41 3 14.3866 5.39496 23.3781 -6.50567
3808 1 14.3866 3.59664 25.1765 -8.36254
3807 3 16.1849 3.59664 23.3781 -6.2703
514 1 1.79832 8.9916 25.1765 -8.33264
296 2 0 7.19328 25.1765 -6.91104
808 1 1.79832 7.19328 23.3781 -8.30607
1057 1 0 8.9916 23.3781 -8.13869
1810 2 1.79832 10.7899 23.3781 -6.92451
2808 3 0 10.7899 25.1765 -6.556
809 2 3.59664 7.19328 25.1765 -6.90006
1058 1 5.39496 8.9916 25.1765 -8.2375
1808 2 5.39496 7.19328 23.3781 -6.98776
2058 3 3.59664 8.9916 23.3781 -6.4188
2809 2 5.39496 10.7899 23.3781 -6.98118
3311 1 3.59664 10.7899 25.1765 -8.32204
43 1 10.7899 8.9916 23.3781 -8.2624
297 1 10.7899 10.7899 25.1765 -8.03053
1312 1 7.19328 7.19328 25.1765 -8.13769
1562 2 8.9916 8.9916 25.1765 -6.98824
1809 3 10.7899 7.19328 25.1765 -6.54236
2807 3 8.9916 7.19328 23.3781 -6.34772
3058 3 7.19328 8.9916 23.3781 -6.42258
3811 2 7.19328 10.7899 25.1765 -7.04259
3810 1 8.9916 10.7899 23.3781 -8.36522
811 1 12.5882 10.7899 23.3781 -8.21363
2059 2 12.5882 8.9916 25.1765 -7.06466
3809 2 12.5882 7.19328 23.3781 -7.07481
812 3 14.3866 10.7899 25.1765 -6.4682
810 1 16.1849 7.19328 23.3781 -8.24555
1059 2 14.3866 8.9916 23.3781 -7.01642
1811 3 16.1849 10.7899 23.3781 -6.3304
2311 2 14.3866 7.19328 25.1765 -7.0778
2562 2 16.1849 8.9916 25.1765 -6.93616
2060 3 0 12.5882 23.3781 -6.62127
3059 2 1.79832 12.5882 25.1765 -7.01973
3060 1 3.59664 12.5882 23.3781 -8.48885
3562 3 5.39496 12.5882 25.1765 -6.66118
45 2 8.9916 12.5882 25.1765 -7.09481
44 2 7.19328 12.5882 23.3781 -7.0981
1060 3 10.7899 12.5882 23.3781 -6.43376
515 1 12.5882 12.5882 25.1765 -8.16978
1061 3 16.1849 12.5882 25.1765 -6.37592
2061 2 14.3866 12.5882 23.3781 -6.89839
1313 2 0 14.3866 25.1765 -7.03578
1563 1 1.79832 16.1849 25.1765 -8.11665
2810 3 1.79832 14.3866 23.3781 -6.3491
3061 1 0 16.1849 23.3781 -8.1469
46 1 3.59664 16.1849 23.3781 -8.24882
1812 2 3.59664 14.3866 25.1765 -7.00573
2062 2 5.39496 16.1849 25.1765 -6.95199
3812 2 5.39496 14.3866 23.3781 -7.06696
813 3 8.9916 14.3866 23.3781 -6.58529
1062 1 7.19328 16.1849 23.3781 -8.41499
2063 3 10.7899 16.1849 23.3781 -6.60669
2312 2 7.19328 14.3866 25.1765 -7.09154
2563 3 8.9916 16.1849 25.1765 -6.55411
2811 1 10.7899 14.3866 25.1765 -8.39225
1813 3 12.5882 14.3866 23.3781 -6.47785
3062 2 12.5882 16.1849 25.1765 -6.97004
2812 2 16.1849 14.3866 23.3781 -6.91901
3063 1 14.3866 16.1849 23.3781 -8.26773
3312 1 14.3866 14.3866 25.1765 -8.25679
3563 2 16.1849 16.1849 25.1765 -6.98036
751 1 1.79832 0 30.5714 -8.36085
47 1 0 1.79832 26.9748 -8.61494
298 3 0 0 28.7731 -6.41259
548 2 1.79832 1.79832 28.7731 -6.88067
1063 1 0 1.79832 30.5714 -8.24018
3813 3 1.79832 0 26.9748 -6.43724
299 2 5.39496 0 26.9748 -6.99502
549 1 3.59664 1.79832 26.9748 -8.53666
1314 3 3.59664 0 28.7731 -6.44224
1564 2 5.39496 1.79832 28.7731 -6.96432
1814 1 5.39496 0 30.5714 -8.41021
2064 1 3.59664 1.79832 30.5714 -8.29523
752 1 8.9916 0 26.9748 -8.36757
48 2 10.7899 1.79832 30.5714 -7.08298
1064 2 7.19328 1.79832 26.9748 -6.95197
1565 1 10.7899 1.79832 26.9748 -7.93961
2313 3 7.19328 0 28.7731 -6.522
2564 1 8.9916 1.79832 28.7731 -8.19302
2813 1 8.9916 0 30.5714 -8.34028
3064 2 7.19328 1.79832 30.5714 -6.9731
3313 1 10.7899 0 28.7731 -7.99519
1315 1 12.5882 0 26.9748 -8.01434
3564 1 12.5882 1.79832 28.7731 -8.02762
3814 2 12.5882 0 30.5714 -7.01574
753 1 16.1849 0 30.5714 -8.0883
300 1 14.3866 0 28.7731 -8.0648
550 2 16.1849 1.79832 28.7731 -7.0536
1065 1 14.3866 1.79832 30.5714 -8.06526
1815 2 16.1849 0 26.9748 -6.98002
2065 3 14.3866 1.79832 26.9748 -6.22283
1316 3 0 3.59664 28.7731 -6.45272
1566 2 1.79832 5.39496 28.7731 -7.03031
1816 2 1.79832 3.59664 30.5714 -7.02764
2066 2 0 5.39496 30.5714 -7.02306
2314 3 1.79832 3.59664 26.9748 -6.32357
2565 1 0 5.39496 26.9748 -8.5493
2315 3 3.59664 3.59664 28.7731 -6.4445
2566 3 5.39496 5.39496 28.7731 -6.63414
2815 1 5.39496 3.59664 30.5714 -8.38541
2814 3 5.39496 3.59664 26.9748 -6.44386
3066 2 3.59664 5.39496 30.5714 -6.99692