ITEM: TIMESTEP
0
ITEM: NUMBER OF ATOMS
4000
ITEM: BOX BOUNDS pp pp pp
0.0000000000000000e+00 3.5966380000000001e+01
0.0000000000000000e+00 3.5966380000000001e+01
0.0000000000000000e+00 3.5966380000000001e+01
ITEM: ATOMS id type x y z c_peratom
267 1 0 0 0 -8.02182
516 2 1.79832 1.79832 0 -6.9698
767 1 1.79832 0 1.79832 -8.1157
1016 2 0 1.79832 1.79832 -7.02306
1267 3 0 0 3.59664 -6.51747
1517 1 1.79832 1.79832 3.59664 -8.21284
1268 1 3.59664 0 0 -8.32735
1518 2 5.39496 1.79832 0 -7.04818
1767 2 5.39496 0 1.79832 -7.04951
2017 2 3.59664 1.79832 1.79832 -7.09067
2266 2 3.59664 0 3.59664 -6.98663
2517 3 5.39496 1.79832 3.59664 -6.58801
1 1 10.7899 1.79832 1.79832 -7.98418
268 1 10.7899 0 3.59664 -7.92421
2267 2 7.19328 0 0 -7.05771
2518 1 8.9916 1.79832 0 -8.21167
2766 1 8.9916 0 1.79832 -8.13858
3017 3 7.19328 1.79832 1.79832 -6.49467
3266 2 7.19328 0 3.59664 -6.90542
3267 3 10.7899 0 0 -6.2569
3517 1 8.9916 1.79832 3.59664 -8.25661
517 1 12.5882 1.79832 3.59664 -8.02594
3518 1 12.5882 1.79832 0 -8.3158
3767 2 12.5882 0 1.79832 -6.93472
269 1 14.3866 0 0 -8.01123
518 2 16.1849 1.79832 0 -7.05569
768 1 16.1849 0 1.79832 -8.21193
1017 2 14.3866 1.79832 1.79832 -6.96421
1269 3 14.3866 0 3.59664 -6.30978
1519 3 16.1849 1.79832 3.59664 -6.34242
1270 1 0 3.59664 0 -8.05798
1520 2 1.79832 5.39496 0 -6.95474
1768 1 1.79832 3.59664 1.79832 -8.01105
2018 1 0 5.39496 1.79832 -8.05169
2268 1 0 3.59664 3.59664 -8.14794
2519 1 1.79832 5.39496 3.59664 -8.07801
2269 2 3.59664 3.59664 0 -7.07591
2520 1 5.39496 5.39496 0 -8.13397
2767 2 5.39496 3.59664 1.79832 -7.08568
3018 1 3.59664 5.39496 1.79832 -8.06503
3268 3 3.59664 3.59664 3.59664 -6.32071
3519 1 5.39496 5.39496 3.59664 -8.16025
2 1 7.19328 5.39496 1.79832 -7.9629
271 2 10.7899 3.59664 0 -6.94546
270 3 7.19328 3.59664 3.59664 -6.36083
519 1 8.9916 5.39496 3.59664 -8.15663
1018 1 10.7899 5.39496 1.79832 -8.23368
1271 1 10.7899 3.59664 3.59664 -7.97184
3269 1 7.19328 3.59664 0 -8.04441
3520 1 8.9916 5.39496 0 -8.1058
3768 2 8.9916 3.59664 1.79832 -7.04701
520 2 12.5882 5.39496 0 -7.01138
769 3 12.5882 3.59664 1.79832 -6.32479
1521 1 12.5882 5.39496 3.59664 -8.29058
1272 2 14.3866 3.59664 0 -7.02804
1522 2 16.1849 5.39496 0 -7.02139
1769 1 16.1849 3.59664 1.79832 -8.19706
2019 3 14.3866 5.39496 1.79832 -6.51518
2270 1 14.3866 3.59664 3.59664 -8.07611
2521 1 16.1849 5.39496 3.59664 -8.51143
274 2 0 10.7899 3.59664 -6.96363
2271 3 0 7.19328 0 -6.37408
2522 2 1.79832 8.9916 0 -6.96706
2768 3 1.79832 7.19328 1.79832 -6.32447
3019 1 0 8.9916 1.79832 -8.21174
3273 1 0 10.7899 0 -8.06931
3270 1 0 7.19328 3.59664 -8.22276
3521 3 1.79832 8.9916 3.59664 -6.36415
3770 1 1.79832 10.7899 1.79832 -8.30145
3 2 3.59664 8.9916 1.79832 -6.98773
275 3 3.59664 10.7899 0 -6.47043
272 1 3.59664 7.19328 3.59664 -8.07649
521 1 5.39496 8.9916 3.59664 -8.05978
771 1 5.39496 10.7899 1.79832 -8.20537
1275 3 3.59664 10.7899 3.59664 -6.36989
3271 2 3.59664 7.19328 0 -7.05288
3522 1 5.39496 8.9916 0 -8.23272
3769 2 5.39496 7.19328 1.79832 -7.12188
273 1 7.19328 7.19328 0 -7.94975
522 3 8.9916 8.9916 0 -6.40087
770 3 8.9916 7.19328 1.79832 -6.26301
1019 1 7.19328 8.9916 1.79832 -8.15679
1276 2 7.19328 10.7899 0 -6.92612
1274 3 10.7899 7.19328 0 -6.4297
1273 1 7.19328 7.19328 3.59664 -7.97573
1523 2 8.9916 8.9916 3.59664 -6.97222
1771 3 8.9916 10.7899 1.79832 -6.52788
2020 3 10.7899 8.9916 1.79832 -6.54345
2275 3 10.7899 10.7899 0 -6.50319
2274 2 7.19328 10.7899 3.59664 -6.97898
2272 3 10.7899 7.19328 3.59664 -6.49718
3274 3 10.7899 10.7899 3.59664 -6.58523
1524 1 12.5882 8.9916 0 -8.62072
1770 2 12.5882 7.19328 1.79832 -6.94163
2523 2 12.5882 8.9916 3.59664 -7.03653
2770 1 12.5882 10.7899 1.79832 -8.31402
276 2 14.3866 10.7899 3.59664 -7.09499
2273 3 14.3866 7.19328 0 -6.53763
2524 1 16.1849 8.9916 0 -8.33058
2769 2 16.1849 7.19328 1.79832 -6.93405
3020 3 14.3866 8.9916 1.79832 -6.5077
3275 2 14.3866 10.7899 0 -6.97754
3272 3 14.3866 7.19328 3.59664 -6.59294
3523 2 16.1849 8.9916 3.59664 -6.96495
3771 1 16.1849 10.7899 1.79832 -8.1314
4 2 0 12.5882 1.79832 -7.00839
523 2 1.79832 12.5882 3.59664 -6.96479
3524 1 1.79832 12.5882 0 -8.24216
524 2 5.39496 12.5882 0 -7.0078
1020 3 3.59664 12.5882 1.79832 -6.43759
1525 3 5.39496 12.5882 3.59664 -6.39288
1526 1 8.9916 12.5882 0 -8.38033
2021 1 7.19328 12.5882 1.79832 -8.31838
2525 2 8.9916 12.5882 3.59664 -6.97609
3021 2 10.7899 12.5882 1.79832 -7.02357
2526 2 12.5882 12.5882 0 -7.05574
3525 2 12.5882 12.5882 3.59664 -7.03708
5 1 14.3866 12.5882 1.79832 -8.2375
525 1 16.1849 12.5882 3.59664 -7.99863
3526 3 16.1849 12.5882 0 -6.40203
277 1 0 14.3866 0 -8.28099
526 2 1.79832 16.1849 0 -6.93461
772 3 1.79832 14.3866 1.79832 -6.4293
1021 3 0 16.1849 1.79832 -6.41252
1277 3 0 14.3866 3.59664 -6.53081
1527 3 1.79832 16.1849 3.59664 -6.30995
1278 2 3.59664 14.3866 0 -6.98109
1528 1 5.39496 16.1849 0 -8.06349
1772 3 5.39496 14.3866 1.79832 -6.37602
2022 1 3.59664 16.1849 1.79832 -8.17425
2276 1 3.59664 14.3866 3.59664 -8.51034
2527 1 5.39496 16.1849 3.59664 -8.28964
6 2 10.7899 16.1849 1.79832 -7.04178
278 2 10.7899 14.3866 3.59664 -7.08922
2277 1 7.19328 14.3866 0 -8.30056
2528 3 8.9916 16.1849 0 -6.51027
2771 3 8.9916 14.3866 1.79832 -6.55137
3022 2 7.19328 16.1849 1.79832 -6.98199
3277 2 10.7899 14.3866 0 -7.08444
3276 2 7.19328 14.3866 3.59664 -6.95675
3527 1 8.9916 16.1849 3.59664 -8.40188
527 3 12.5882 16.1849 3.59664 -6.77031
3528 3 12.5882 16.1849 0 -6.64449
3772 3 12.5882 14.3866 1.79832 -6.74747
279 2 14.3866 14.3866 0 -7.06795
528 3 16.1849 16.1849 0 -6.61814
773 2 16.1849 14.3866 1.79832 -7.00682
1022 2 14.3866 16.1849 1.79832 -7.06831
1279 2 14.3866 14.3866 3.59664 -7.10253
1529 1 16.1849 16.1849 3.59664 -8.23665
1773 3 1.79832 0 5.39496 -6.5132
2023 3 0 1.79832 5.39496 -6.44151
2278 1 0 0 7.19328 -8.28227
2529 1 1.79832 1.79832 7.19328 -8.24996
2773 2 3.59664 0 7.19328 -6.98258
2772 1 5.39496 0 5.39496 -8.4372
3024 2 5.39496 1.79832 7.19328 -6.9625
3023 1 3.59664 1.79832 5.39496 -8.22008
7 3 7.19328 1.79832 5.39496 -6.45183
1023 1 10.7899 1.79832 5.39496 -8.30084
3278 3 7.19328 0 7.19328 -6.33833
3529 3 8.9916 1.79832 7.19328 -6.36852
3774 3 10.7899 0 7.19328 -6.52474
3773 3 8.9916 0 5.39496 -6.31287
8 2 12.5882 1.79832 7.19328 -6.96382
774 1 12.5882 0 5.39496 -8.21372
280 3 14.3866 0 7.19328 -6.61035
529 2 16.1849 1.79832 7.19328 -6.88661
1774 2 16.1849 0 5.39496 -6.94813
2024 1 14.3866 1.79832 5.39496 -8.2474
775 3 0 3.59664 7.19328 -6.542
1024 2 1.79832 5.39496 7.19328 -6.87485
2774 3 1.79832 3.59664 5.39496 -6.34355
3025 3 0 5.39496 5.39496 -6.43537
9 3 3.59664 5.39496 5.39496 -6.36151
1280 2 3.59664 3.59664 7.19328 -7.01042
1530 3 5.39496 5.39496 7.19328 -6.44823
3775 2 5.39496 3.59664 5.39496 -6.92863
776 3 8.9916 3.59664 5.39496 -6.2953
1025 3 7.19328 5.39496 5.39496 -6.32686
1775 1 7.19328 3.59664 7.19328 -8.39868
2026 2 10.7899 5.39496 5.39496 -6.9357
2025 3 8.9916 5.39496 7.19328 -6.3187
2279 3 10.7899 3.59664 7.19328 -6.41815
1776 2 12.5882 3.59664 5.39496 -7.07633
2530 3 12.5882 5.39496 7.19328 -6.38254
2776 1 14.3866 3.59664 7.19328 -8.31017
2775 3 16.1849 3.59664 5.39496 -6.32378
3027 1 16.1849 5.39496 7.19328 -8.20397
3026 2 14.3866 5.39496 5.39496 -6.97776
10 2 0 8.9916 5.39496 -6.90075
779 3 1.79832 10.7899 5.39496 -6.58167
1778 1 0 10.7899 7.19328 -8.31462
3279 3 0 7.19328 7.19328 -6.56366
3530 3 1.79832 8.9916 7.19328 -6.42356
3776 1 1.79832 7.19328 5.39496 -8.39745
11 1 5.39496 8.9916 7.19328 -8.20917
777 1 5.39496 7.19328 5.39496 -8.28821
1026 3 3.59664 8.9916 5.39496 -6.27896
1779 1 5.39496 10.7899 5.39496 -8.27777
2280 3 3.59664 10.7899 7.19328 -6.47632
3777 3 3.59664 7.19328 7.19328 -6.32358
281 2 7.19328 7.19328 7.19328 -6.94335
530 2 8.9916 8.9916 7.19328 -7.02199
778 1 10.7899 7.19328 7.19328 -8.24926
1777 1 8.9916 7.19328 5.39496 -8.27336
2027 3 7.19328 8.9916 5.39496 -6.33096
2779 1 7.19328 10.7899 7.19328 -8.21135
2778 3 8.9916 10.7899 5.39496 -6.56268
3028 2 10.7899 8.9916 5.39496 -7.01404
3280 3 10.7899 10.7899 7.19328 -6.52191
1027 3 12.5882 8.9916 7.19328 -6.40559
2777 2 12.5882 7.19328 5.39496 -7.06827
3779 1 12.5882 10.7899 5.39496 -8.33159
12 2 14.3866 8.9916 5.39496 -7.06984
780 1 16.1849 10.7899 5.39496 -8.33882
1281 2 14.3866 7.19328 7.19328 -7.05364
1531 1 16.1849 8.9916 7.19328 -8.30269
3780 3 14.3866 10.7899 7.19328 -6.37646
3778 3 16.1849 7.19328 5.39496 -6.4978
1028 2 0 12.5882 5.39496 -6.96512
2028 3 1.79832 12.5882 7.19328 -6.50529
2029 3 3.59664 12.5882 5.39496 -6.51134
2531 3 5.39496 12.5882 7.19328 -6.50436
13 1 10.7899 12.5882 5.39496 -8.45936
3030 2 8.9916 12.5882 7.19328 -6.96159
3029 1 7.19328 12.5882 5.39496 -8.42309
3531 1 12.5882 12.5882 7.19328 -8.33862
14 2 16.1849 12.5882 7.19328 -6.97701
1029 2 14.3866 12.5882 5.39496 -6.99789
282 3 0 14.3866 7.19328 -6.27816
531 2 1.79832 16.1849 7.19328 -6.95604
1780 3 1.79832 14.3866 5.39496 -6.53631
2030 1 0 16.1849 5.39496 -8.27385
781 2 3.59664 14.3866 7.19328 -6.98119
1030 1 5.39496 16.1849 7.19328 -8.40378
2780 3 5.39496 14.3866 5.39496 -6.50735
3031 2 3.59664 16.1849 5.39496 -6.98073
15 2 7.19328 16.1849 5.39496 -7.04819
1031 2 10.7899 16.1849 5.39496 -7.01262
1282 2 7.19328 14.3866 7.19328 -6.98516
1532 3 8.9916 16.1849 7.19328 -6.65661
1781 2 10.7899 14.3866 7.19328 -7.00183
3781 3 8.9916 14.3866 5.39496 -6.61027
782 3 12.5882 14.3866 5.39496 -6.6102
2031 1 12.5882 16.1849 7.19328 -8.37122
1782 1 16.1849 14.3866 5.39496 -8.19839
2032 2 14.3866 16.1849 5.39496 -7.03484
2281 3 14.3866 14.3866 7.19328 -6.48741
2532 1 16.1849 16.1849 7.19328 -8.37255
16 2 0 1.79832 12.5882 -7.01293
2781 1 1.79832 0 8.9916 -8.2718
3032 2 0 1.79832 8.9916 -7.0357
3281 1 0 0 10.7899 -8.25727
3532 3 1.79832 1.79832 10.7899 -6.46313
3782 3 1.79832 0 12.5882 -6.55395
251 3 3.59664 0 10.7899 -6.44059
532 1 5.39496 1.79832 10.7899 -8.3579
783 2 5.39496 0 12.5882 -6.96937
1032 1 3.59664 1.79832 12.5882 -8.58565
3282 1 5.39496 0 8.9916 -8.33577
3533 3 3.59664 1.79832 8.9916 -6.38154
17 1 7.19328 1.79832 8.9916 -8.21121
533 2 10.7899 1.79832 8.9916 -6.94619
1283 3 7.19328 0 10.7899 -6.5549
1533 2 8.9916 1.79832 10.7899 -7.03853
1783 2 8.9916 0 12.5882 -7.09835
2033 3 7.19328 1.79832 12.5882 -6.53177
2282 3 10.7899 0 10.7899 -6.71248
3033 3 10.7899 1.79832 12.5882 -6.58926
3783 3 8.9916 0 8.9916 -6.55417
252 3 12.5882 0 8.9916 -6.62837
2533 2 12.5882 1.79832 10.7899 -6.87095
2782 3 12.5882 0 12.5882 -6.44047
18 3 14.3866 1.79832 12.5882 -6.2915
784 3 16.1849 0 8.9916 -6.52366
1033 3 14.3866 1.79832 8.9916 -6.44167
3283 1 14.3866 0 10.7899 -8.62489
3534 3 16.1849 1.79832 10.7899 -6.28585
3784 3 16.1849 0 12.5882 -6.36536
253 2 0 3.59664 10.7899 -7.01055
534 3 1.79832 5.39496 10.7899 -6.41449
785 3 1.79832 3.59664 12.5882 -6.53343
1034 3 0 5.39496 12.5882 -6.39564
1284 1 1.79832 3.59664 8.9916 -8.39314
1534 3 0 5.39496 8.9916 -6.53384
1285 3 3.59664 3.59664 10.7899 -6.42592
1535 2 5.39496 5.39496 10.7899 -7.00358
1785 3 5.39496 3.59664 12.5882 -6.37502
1784 2 5.39496 3.59664 8.9916 -6.98117
2035 2 3.59664 5.39496 12.5882 -6.90995
2034 1 3.59664 5.39496 8.9916 -8.3738
19 3 10.7899 5.39496 12.5882 -6.56714
2284 2 7.19328 3.59664 10.7899 -7.00929
2283 1 8.9916 3.59664 8.9916 -8.1403
2535 2 8.9916 5.39496 10.7899 -7.00892
2534 1 7.19328 5.39496 8.9916 -8.37528
2783 2 8.9916 3.59664 12.5882 -7.02007
3035 1 10.7899 5.39496 8.9916 -8.27905
3034 1 7.19328 5.39496 12.5882 -8.25778
3284 1 10.7899 3.59664 10.7899 -8.39485
2784 3 12.5882 3.59664 8.9916 -6.38271
3535 2 12.5882 5.39496 10.7899 -6.97611
3785 3 12.5882 3.59664 12.5882 -6.38099
254 1 14.3866 3.59664 10.7899 -8.43043
535 1 16.1849 5.39496 10.7899 -8.0962
786 3 16.1849 3.59664 12.5882 -6.2491
1035 1 14.3866 5.39496 12.5882 -8.0659
3285 3 16.1849 3.59664 8.9916 -6.21774
3536 1 14.3866 5.39496 8.9916 -8.0153
20 2 0 8.9916 8.9916 -6.9746
1286 1 0 7.19328 10.7899 -8.30035
1536 2 1.79832 8.9916 10.7899 -7.04762
1786 1 1.79832 7.19328 12.5882 -8.43733
2036 3 0 8.9916 12.5882 -6.38753
2287 2 0 10.7899 10.7899 -7.14451
2286 2 1.79832 10.7899 8.9916 -6.97194
2786 3 1.79832 10.7899 12.5882 -6.51674
3786 1 1.79832 7.19328 8.9916 -8.33572
255 2 5.39496 7.19328 8.9916 -6.9651
536 1 3.59664 8.9916 8.9916 -8.39124
2285 3 3.59664 7.19328 10.7899 -6.51938
2536 2 5.39496 8.9916 10.7899 -7.07049
2787 2 5.39496 10.7899 8.9916 -6.97369
2785 2 5.39496 7.19328 12.5882 -7.02461
3036 2 3.59664 8.9916 12.5882 -6.98018
3287 3 3.59664 10.7899 10.7899 -6.59963
3788 3 5.39496 10.7899 12.5882 -6.41641
256 3 10.7899 7.19328 10.7899 -6.51074
257 3 7.19328 10.7899 10.7899 -6.59975
21 3 7.19328 8.9916 12.5882 -6.52306
789 3 8.9916 10.7899 12.5882 -6.511
787 3 8.9916 7.19328 8.9916 -6.5508
1037 3 10.7899 8.9916 12.5882 -6.49537
1036 2 7.19328 8.9916 8.9916 -7.03822
1289 2 10.7899 10.7899 10.7899 -7.04628
1537 2 10.7899 8.9916 8.9916 -6.98971
3288 3 8.9916 10.7899 8.9916 -6.62374
3286 3 7.19328 7.19328 10.7899 -6.6469
3537 2 8.9916 8.9916 10.7899 -7.05748
3787 3 8.9916 7.19328 12.5882 -6.51394
537 1 12.5882 8.9916 10.7899 -8.13983
788 2 12.5882 7.19328 12.5882 -7.02987
1287 1 12.5882 7.19328 8.9916 -8.05103
1789 1 12.5882 10.7899 12.5882 -8.16602
3789 1 12.5882 10.7899 8.9916 -8.1605
258 3 16.1849 10.7899 8.9916 -6.63443
1288 1 14.3866 7.19328 10.7899 -7.89784
1538 2 16.1849 8.9916 10.7899 -7.01471
1788 2 16.1849 7.19328 12.5882 -7.0738
1787 1 16.1849 7.19328 8.9916 -8.04097
2038 1 14.3866 8.9916 12.5882 -8.17838
2037 1 14.3866 8.9916 8.9916 -8.15579
2288 3 14.3866 10.7899 10.7899 -6.4126
2788 3 16.1849 10.7899 12.5882 -6.60769
2538 2 1.79832 12.5882 10.7899 -7.07376
2537 1 0 12.5882 8.9916 -8.20508
3037 2 0 12.5882 12.5882 -7.18833
22 1 3.59664 12.5882 12.5882 -8.2824
3038 3 3.59664 12.5882 8.9916 -6.66992
3538 2 5.39496 12.5882 10.7899 -6.97418
23 2 10.7899 12.5882 8.9916 -6.93705
538 3 8.9916 12.5882 10.7899 -6.5117
1038 1 7.19328 12.5882 12.5882 -8.41816
2039 1 10.7899 12.5882 12.5882 -8.44029
3539 1 7.19328 12.5882 8.9916 -8.52432
1539 1 12.5882 12.5882 10.7899 -8.36031
539 2 14.3866 12.5882 8.9916 -6.99916
2539 2 16.1849 12.5882 10.7899 -7.12488
3039 3 14.3866 12.5882 12.5882 -6.49592
24 2 0 16.1849 12.5882 -7.06758
790 1 1.79832 14.3866 8.9916 -8.35691
1039 1 0 16.1849 8.9916 -8.13375
3289 3 0 14.3866 10.7899 -6.55412
3540 2 1.79832 16.1849 10.7899 -7.01004
3790 2 1.79832 14.3866 12.5882 -7.1456
259 2 3.59664 14.3866 10.7899 -7.07024
540 2 5.39496 16.1849 10.7899 -7.06077
791 3 5.39496 14.3866 12.5882 -6.44918
1040 1 3.59664 16.1849 12.5882 -8.24284
1290 3 5.39496 14.3866 8.9916 -6.66256
1540 3 3.59664 16.1849 8.9916 -6.59888
1291 2 7.19328 14.3866 10.7899 -7.07518
1541 3 8.9916 16.1849 10.7899 -6.59171
1791 2 8.9916 14.3866 12.5882 -7.04056
1790 3 8.9916 14.3866 8.9916 -6.58952
2041 2 7.19328 16.1849 12.5882 -7.06372
2040 2 7.19328 16.1849 8.9916 -7.03475
2290 3 10.7899 14.3866 10.7899 -6.48564
2540 1 10.7899 16.1849 8.9916 -8.33519
3040 3 10.7899 16.1849 12.5882 -6.58742
2289 3 12.5882 14.3866 8.9916 -6.48406
2541 2 12.5882 16.1849 10.7899 -6.92155
2789 2 12.5882 14.3866 12.5882 -6.88792
25 1 14.3866 16.1849 12.5882 -8.41728
2790 2 16.1849 14.3866 8.9916 -7.13862
3041 2 14.3866 16.1849 8.9916 -6.9992
3290 3 14.3866 14.3866 10.7899 -6.6098
3541 2 16.1849 16.1849 10.7899 -7.05269
3791 3 16.1849 14.3866 12.5882 -6.57725
260 2 0 0 14.3866 -7.08567
541 3 1.79832 1.79832 14.3866 -6.50184
792 3 1.79832 0 16.1849 -6.48986
1041 1 0 1.79832 16.1849 -8.26886
1292 2 3.59664 0 14.3866 -6.95497
1542 3 5.39496 1.79832 14.3866 -6.3714
1792 1 5.39496 0 16.1849 -8.21986
2042 3 3.59664 1.79832 16.1849 -6.42964
26 1 10.7899 1.79832 16.1849 -7.96961
2291 1 7.19328 0 14.3866 -8.32178
2542 3 8.9916 1.79832 14.3866 -6.44233
2791 1 8.9916 0 16.1849 -8.13227
3042 2 7.19328 1.79832 16.1849 -6.93868
3291 2 10.7899 0 14.3866 -7.00787
3542 1 12.5882 1.79832 14.3866 -8.26099
3792 1 12.5882 0 16.1849 -8.03021
261 1 14.3866 0 14.3866 -8.26507
542 2 16.1849 1.79832 14.3866 -6.88418
793 3 16.1849 0 16.1849 -6.36345
1042 1 14.3866 1.79832 16.1849 -8.03399
1293 1 0 3.59664 14.3866 -8.42965
1543 3 1.79832 5.39496 14.3866 -6.46591
1793 2 1.79832 3.59664 16.1849 -6.92343
2043 2 0 5.39496 16.1849 -6.91849
2292 3 3.59664 3.59664 14.3866 -6.41082
2543 1 5.39496 5.39496 14.3866 -8.13434
2792 1 5.39496 3.59664 16.1849 -8.39558
3043 1 3.59664 5.39496 16.1849 -8.29096
262 2 10.7899 3.59664 14.3866 -6.93629
27 3 7.19328 5.39496 16.1849 -6.26268
1043 3 10.7899 5.39496 16.1849 -6.47581
3292 1 7.19328 3.59664 14.3866 -8.23131
3543 2 8.9916 5.39496 14.3866 -6.96572
3793 1 8.9916 3.59664 16.1849 -8.32453
543 2 12.5882 5.39496 14.3866 -6.99761
794 3 12.5882 3.59664 16.1849 -6.33449
1294 1 14.3866 3.59664 14.3866 -8.31324
1544 1 16.1849 5.39496 14.3866 -8.48405
1794 3 16.1849 3.59664 16.1849 -6.2691
2044 3 14.3866 5.39496 16.1849 -6.45448
2293 3 0 7.19328 14.3866 -6.31781
2544 1 1.79832 8.9916 14.3866 -8.20896
2793 2 1.79832 7.19328 16.1849 -6.92917
3044 3 0 8.9916 16.1849 -6.18302
3294 1 0 10.7899 14.3866 -8.25104
3795 1 1.79832 10.7899 16.1849 -8.06726
264 1 3.59664 10.7899 14.3866 -7.93581
28 1 3.59664 8.9916 16.1849 -8.01376
796 2 5.39496 10.7899 16.1849 -7.04116
3293 3 3.59664 7.19328 14.3866 -6.3269
3544 1 5.39496 8.9916 14.3866 -8.13921
3794 1 5.39496 7.19328 16.1849 -8.09956
263 1 7.19328 7.19328 14.3866 -8.1012
544 3 8.9916 8.9916 14.3866 -6.39686
795 1 8.9916 7.19328 16.1849 -8.3397
1044 2 7.19328 8.9916 16.1849 -7.01849
1296 1 7.19328 10.7899 14.3866 -8.25038
1295 1 10.7899 7.19328 14.3866 -8.4124
1796 2 8.9916 10.7899 16.1849 -7.05939
2045 1 10.7899 8.9916 16.1849 -8.14723
2295 3 10.7899 10.7899 14.3866 -6.4412
1545 2 12.5882 8.9916 14.3866 -6.96635
1795 2 12.5882 7.19328 16.1849 -7.08148
2795 1 12.5882 10.7899 16.1849 -8.124
2294 2 14.3866 7.19328 14.3866 -7.00308
2545 3 16.1849 8.9916 14.3866 -6.57974
2794 3 16.1849 7.19328 16.1849 -6.45268
3045 3 14.3866 8.9916 16.1849 -6.42393
3295 1 14.3866 10.7899 14.3866 -8.29724
3796 3 16.1849 10.7899 16.1849 -6.38781
29 2 0 12.5882 16.1849 -7.05762
3545 2 1.79832 12.5882 14.3866 -7.07232
545 1 5.39496 12.5882 14.3866 -8.10611
1045 1 3.59664 12.5882 16.1849 -7.9798
1546 2 8.9916 12.5882 14.3866 -7.06705
2046 2 7.19328 12.5882 16.1849 -7.04931
3046 2 10.7899 12.5882 16.1849 -7.06313
2546 3 12.5882 12.5882 14.3866 -6.35001
30 1 14.3866 12.5882 16.1849 -8.04783
3546 3 16.1849 12.5882 14.3866 -6.39546
265 2 0 14.3866 14.3866 -7.15371
546 1 1.79832 16.1849 14.3866 -8.09748
797 1 1.79832 14.3866 16.1849 -8.07488
1046 1 0 16.1849 16.1849 -8.0973
1297 1 3.59664 14.3866 14.3866 -7.98674
1547 1 5.39496 16.1849 14.3866 -8.17188
1797 3 5.39496 14.3866 16.1849 -6.27451
2047 3 3.59664 16.1849 16.1849 -6.38894
31 3 10.7899 16.1849 16.1849 -6.54186
2296 2 7.19328 14.3866 14.3866 -7.02378
2547 3 8.9916 16.1849 14.3866 -6.63059
2796 2 8.9916 14.3866 16.1849 -7.15336
3047 1 7.19328 16.1849 16.1849 -8.28376
3296 3 10.7899 14.3866 14.3866 -6.58418
3547 3 12.5882 16.1849 14.3866 -6.47692
3797 1 12.5882 14.3866 16.1849 -8.35557
266 2 14.3866 14.3866 14.3866 -6.94428
547 1 16.1849 16.1849 14.3866 -8.08694
798 1 16.1849 14.3866 16.1849 -8.00055
1047 2 14.3866 16.1849 16.1849 -6.96459
1298 3 0 0 17.9832 -6.45186
1548 1 1.79832 1.79832 17.9832 -8.35243
1798 3 1.79832 0 19.7815 -6.31509
2048 3 0 1.79832 19.7815 -6.30404
2297 2 0 0 21.5798 -6.94501
2548 1 1.79832 1.79832 21.5798 -8.29582
2298 1 3.59664 0 17.9832 -8.0865
2549 2 5.39496 1.79832 17.9832 -6.96796
2797 1 5.39496 0 19.7815 -7.96136
3048 3 3.59664 1.79832 19.7815 -6.30656
3297 3 3.59664 0 21.5798 -6.2045
3548 1 5.39496 1.79832 21.5798 -8.10457
501 2 8.9916 1.79832 21.5798 -7.06605
32 1 7.19328 1.79832 19.7815 -8.08193
284 2 10.7899 0 17.9832 -7.05785
283 2 7.19328 0 21.5798 -7.07578
1048 3 10.7899 1.79832 19.7815 -6.49576
1299 1 10.7899 0 21.5798 -8.38186
3298 1 7.19328 0 17.9832 -8.02602
3549 2 8.9916 1.79832 17.9832 -7.04463
3798 2 8.9916 0 19.7815 -7.1277
502 1 12.5882 1.79832 17.9832 -8.03114
799 2 12.5882 0 19.7815 -7.00938
1549 2 12.5882 1.79832 21.5798 -7.01276
1300 1 14.3866 0 17.9832 -8.2046
1550 2 16.1849 1.79832 17.9832 -6.97817
1799 2 16.1849 0 19.7815 -6.97756
2049 1 14.3866 1.79832 19.7815 -8.19695
2299 3 14.3866 0 21.5798 -6.51271
2550 2 16.1849 1.79832 21.5798 -7.02956
2300 1 0 3.59664 17.9832 -8.43881
2551 3 1.79832 5.39496 17.9832 -6.43836
2798 2 1.79832 3.59664 19.7815 -6.99116
3049 2 0 5.39496 19.7815 -6.96536
3299 1 0 3.59664 21.5798 -8.24026
3550 2 1.79832 5.39496 21.5798 -7.01195
503 3 5.39496 5.39496 21.5798 -6.56214
33 3 3.59664 5.39496 19.7815 -6.61868
285 2 3.59664 3.59664 21.5798 -6.98904
3300 3 3.59664 3.59664 17.9832 -6.49203
3551 2 5.39496 5.39496 17.9832 -6.92495
3799 3 5.39496 3.59664 19.7815 -6.48989
504 3 8.9916 5.39496 17.9832 -6.31089
286 3 7.19328 3.59664 17.9832 -6.38855
800 1 8.9916 3.59664 19.7815 -8.31805
1049 3 7.19328 5.39496 19.7815 -6.48372
1302 1 10.7899 3.59664 17.9832 -8.19066
1301 1 7.19328 3.59664 21.5798 -8.22825
1551 2 8.9916 5.39496 21.5798 -6.98615
2050 2 10.7899 5.39496 19.7815 -7.03031
2301 3 10.7899 3.59664 21.5798 -6.62503
1552 2 12.5882 5.39496 17.9832 -7.04305
1800 2 12.5882 3.59664 19.7815 -7.04833
2552 3 12.5882 5.39496 21.5798 -6.65311
2302 1 14.3866 3.59664 17.9832 -8.13261
2553 1 16.1849 5.39496 17.9832 -8.26162
2799 1 16.1849 3.59664 19.7815 -7.98505
3050 2 14.3866 5.39496 19.7815 -7.05164
3301 3 14.3866 3.59664 21.5798 -6.56536
3552 1 16.1849 5.39496 21.5798 -8.15486
505 2 1.79832 8.9916 21.5798 -6.99264
34 1 0 8.9916 19.7815 -7.99302
290 1 0 10.7899 17.9832 -8.2003
287 1 0 7.19328 21.5798 -8.22767
802 2 1.79832 10.7899 19.7815 -6.92987
1305 1 0 10.7899 21.5798 -8.37966
3302 1 0 7.19328 17.9832 -8.27786
3553 2 1.79832 8.9916 17.9832 -6.93381
3800 3 1.79832 7.19328 19.7815 -6.43971
506 1 5.39496 8.9916 17.9832 -8.30378
288 1 3.59664 7.19328 17.9832 -8.24578
801 2 5.39496 7.19328 19.7815 -6.9438
1050 3 3.59664 8.9916 19.7815 -6.56916
1306 3 3.59664 10.7899 17.9832 -6.31703
1303 2 3.59664 7.19328 21.5798 -7.05403
1553 3 5.39496 8.9916 21.5798 -6.51718
1802 3 5.39496 10.7899 19.7815 -6.4057
2305 3 3.59664 10.7899 21.5798 -6.56023
291 3 10.7899 10.7899 21.5798 -6.3752
1304 3 7.19328 7.19328 17.9832 -6.37109
1554 2 8.9916 8.9916 17.9832 -6.99307
1801 1 8.9916 7.19328 19.7815 -8.51673
2051 1 7.19328 8.9916 19.7815 -8.31591
2306 3 7.19328 10.7899 17.9832 -6.4758
2304 2 10.7899 7.19328 17.9832 -7.04091
2303 3 7.19328 7.19328 21.5798 -6.45591
2554 3 8.9916 8.9916 21.5798 -6.33455
2801 1 8.9916 10.7899 19.7815 -8.36582
3051 2 10.7899 8.9916 19.7815 -6.98807
3306 2 10.7899 10.7899 17.9832 -7.09474
3305 2 7.19328 10.7899 21.5798 -6.95678
3303 3 10.7899 7.19328 21.5798 -6.54455
2555 1 12.5882 8.9916 17.9832 -8.32412
2800 3 12.5882 7.19328 19.7815 -6.66982
3554 3 12.5882 8.9916 21.5798 -6.57875
3802 3 12.5882 10.7899 19.7815 -6.38106
507 3 16.1849 8.9916 21.5798 -6.41358
35 3 14.3866 8.9916 19.7815 -6.35255
292 1 14.3866 10.7899 17.9832 -8.05792
289 2 14.3866 7.19328 21.5798 -6.99492
803 1 16.1849 10.7899 19.7815 -8.16181
1307 1 14.3866 10.7899 21.5798 -8.33341
3304 2 14.3866 7.19328 17.9832 -6.94154
3555 1 16.1849 8.9916 17.9832 -8.35164
3801 1 16.1849 7.19328 19.7815 -8.21927
508 3 1.79832 12.5882 17.9832 -6.32624
1051 3 0 12.5882 19.7815 -6.40614
1555 3 1.79832 12.5882 21.5798 -6.47525
1556 1 5.39496 12.5882 17.9832 -8.3638
2052 1 3.59664 12.5882 19.7815 -8.50259
2556 2 5.39496 12.5882 21.5798 -6.87731
36 2 10.7899 12.5882 19.7815 -7.06852
2557 3 8.9916 12.5882 17.9832 -6.71662
3052 3 7.19328 12.5882 19.7815 -6.50795
3556 1 8.9916 12.5882 21.5798 -8.27796
509 1 12.5882 12.5882 21.5798 -8.0948
3557 2 12.5882 12.5882 17.9832 -7.04387
510 1 16.1849 12.5882 17.9832 -8.01526
1052 1 14.3866 12.5882 19.7815 -8.00004
1557 3 16.1849 12.5882 21.5798 -6.40103
1308 2 0 14.3866 17.9832 -7.0032
1558 2 1.79832 16.1849 17.9832 -7.09605
1803 3 1.79832 14.3866 19.7815 -6.55081
2053 3 0 16.1849 19.7815 -6.5866
2307 3 0 14.3866 21.5798 -6.49058
2558 3 1.79832 16.1849 21.5798 -6.60143
2308 1 3.59664 14.3866 17.9832 -8.30908
2559 3 5.39496 16.1849 17.9832 -6.43439
2802 3 5.39496 14.3866 19.7815 -6.46029
3053 2 3.59664 16.1849 19.7815 -7.01245
3307 3 3.59664 14.3866 21.5798 -6.52048
3558 3 5.39496 16.1849 21.5798 -6.57953
511 3 8.9916 16.1849 21.5798 -6.5475
37 1 7.19328 16.1849 19.7815 -8.44528
294 2 10.7899 14.3866 17.9832 -7.12487
293 3 7.19328 14.3866 21.5798 -6.57669
1053 2 10.7899 16.1849 19.7815 -7.0647
1309 1 10.7899 14.3866 21.5798 -8.14406
3308 2 7.19328 14.3866 17.9832 -6.99717
3559 2 8.9916 16.1849 17.9832 -7.063
3803 2 8.9916 14.3866 19.7815 -7.00533
512 1 12.5882 16.1849 17.9832 -8.11814
804 1 12.5882 14.3866 19.7815 -8.02031
1559 1 12.5882 16.1849 21.5798 -7.97161
1310 2 14.3866 14.3866 17.9832 -7.02094
1560 2 16.1849 16.1849 17.9832 -7.05245
1804 3 16.1849 14.3866 19.7815 -6.36073
2054 3 14.3866 16.1849 19.7815 -6.24246
2309 1 14.3866 14.3866 21.5798 -8.21688
2560 2 16.1849 16.1849 21.5798 -6.99532
2803 1 1.79832 0 23.3781 -8.15718
3054 3 0 1.79832 23.3781 -6.29129
3309 1 0 0 25.1765 -8.24108
3560 2 1.79832 1.79832 25.1765 -6.97922
39 2 5.39496 1.79832 25.1765 -7.05069
38 1 3.59664 1.79832 23.3781 -8.06895
3805 2 3.59664 0 25.1765 -7.08055
3804 1 5.39496 0 23.3781 -7.95795
513 3 8.9916 1.79832 25.1765 -6.37979
295 1 7.19328 0 25.1765 -8.24381
806 2 10.7899 0 25.1765 -6.96807
805 3 8.9916 0 23.3781 -6.48072
1054 1 7.19328 1.79832 23.3781 -8.13376
2055 2 10.7899 1.79832 23.3781 -6.98348
1055 1 12.5882 1.79832 25.1765 -8.34924
1805 3 12.5882 0 23.3781 -6.55122
1311 3 14.3866 0 25.1765 -6.43864
1561 2 16.1849 1.79832 25.1765 -6.95997
2804 1 16.1849 0 23.3781 -8.36579
3055 2 14.3866 1.79832 23.3781 -7.04668
40 2 0 5.39496 23.3781 -7.03922
1806 2 0 3.59664 25.1765 -6.91132
2056 1 1.79832 5.39496 25.1765 -8.33429
3806 1 1.79832 3.59664 23.3781 -8.03884
807 3 5.39496 3.59664 23.3781 -6.37631
1056 1 3.59664 5.39496 23.3781 -8.41909
2310 2 3.59664 3.59664 25.1765 -6.97845
2561 3 5.39496 5.39496 25.1765 -6.57556
1807 2 8.9916 3.59664 23.3781 -6.97776
2057 2 7.19328 5.39496 23.3781 -6.94617
2805 1 7.19328 3.59664 25.1765 -8.43593
3057 1 10.7899 5.39496 23.3781 -8.41406
3056 3 8.9916 5.39496 25.1765 -6.5269
3310 1 10.7899 3.59664 25.1765 -8.43885
2806 3 12.5882 3.59664 23.3781 -6.53973
3561 2 12.5882 5.39496 25.1765 -6.9903
42 1 16.1849 5.39496 25.1765 -8.15759
41 3 14.3866 5.39496 23.3781 -6.53994
3808 1 14.3866 3.59664 25.1765 -8.23751
3807 2 16.1849 3.59664 23.3781 -7.03557
514 3 1.79832 8.9916 25.1765 -6.34477
296 1 0 7.19328 25.1765 -8.3523
808 3 1.79832 7.19328 23.3781 -6.46263
1057 3 0 8.9916 23.3781 -6.24965
1810 3 1.79832 10.7899 23.3781 -6.42945
2808 1 0 10.7899 25.1765 -8.29781
809 3 3.59664 7.19328 25.1765 -6.4857
1058 3 5.39496 8.9916 25.1765 -6.43066
1808 2 5.39496 7.19328 23.3781 -6.96619
2058 2 3.59664 8.9916 23.3781 -6.94133
2809 1 5.39496 10.7899 23.3781 -8.42641
3311 1 3.59664 10.7899 25.1765 -8.34247
43 2 10.7899 8.9916 23.3781 -6.93802
297 2 10.7899 10.7899 25.1765 -7.04855
1312 2 7.19328 7.19328 25.1765 -7.07733
1562 1 8.9916 8.9916 25.1765 -8.02875
1809 2 10.7899 7.19328 25.1765 -7.02085
2807 1 8.9916 7.19328 23.3781 -8.33992
3058 1 7.19328 8.9916 23.3781 -8.31329
3811 3 7.19328 10.7899 25.1765 -6.33033
3810 1 8.9916 10.7899 23.3781 -8.35309
811 1 12.5882 10.7899 23.3781 -8.50182
2059 3 12.5882 8.9916 25.1765 -6.50977
3809 2 12.5882 7.19328 23.3781 -7.04573
812 2 14.3866 10.7899 25.1765 -6.95938
810 2 16.1849 7.19328 23.3781 -7.0222
1059 3 14.3866 8.9916 23.3781 -6.6094
1811 2 16.1849 10.7899 23.3781 -6.97385
2311 2 14.3866 7.19328 25.1765 -7.05486
2562 2 16.1849 8.9916 25.1765 -7.02475
2060 3 0 12.5882 23.3781 -6.39643
3059 2 1.79832 12.5882 25.1765 -6.97332
3060 3 3.59664 12.5882 23.3781 -6.5586
3562 3 5.39496 12.5882 25.1765 -6.48039
45 2 8.9916 12.5882 25.1765 -7.02673
44 3 7.19328 12.5882 23.3781 -6.53755
1060 3 10.7899 12.5882 23.3781 -6.42729
515 3 12.5882 12.5882 25.1765 -6.53322
1061 1 16.1849 12.5882 25.1765 -8.52754
2061 3 14.3866 12.5882 23.3781 -6.40118
1313 3 0 14.3866 25.1765 -6.5348
1563 2 1.79832 16.1849 25.1765 -6.93507
2810 3 1.79832 14.3866 23.3781 -6.5818
3061 3 0 16.1849 23.3781 -6.53742
46 1 3.59664 16.1849 23.3781 -8.65701
1812 3 3.59664 14.3866 25.1765 -6.64517
2062 2 5.39496 16.1849 25.1765 -7.05445
3812 3 5.39496 14.3866 23.3781 -6.6351
813 2 8.9916 14.3866 23.3781 -7.04305
1062 3 7.19328 16.1849 23.3781 -6.7739
2063 2 10.7899 16.1849 23.3781 -7.03188
2312 2 7.19328 14.3866 25.1765 -7.12118
2563 2 8.9916 16.1849 25.1765 -7.16682
2811 3 10.7899 14.3866 25.1765 -6.54957
1813 2 12.5882 14.3866 23.3781 -6.96587
3062 1 12.5882 16.1849 25.1765 -8.2014
2812 3 16.1849 14.3866 23.3781 -6.54153
3063 1 14.3866 16.1849 23.3781 -8.18057
3312 3 14.3866 14.3866 25.1765 -6.42117
3563 2 16.1849 16.1849 25.1765 -7.00498
751 2 1.79832 0 30.5714 -7.01029
47 3 0 1.79832 26.9748 -6.46681
298 1 0 0 28.7731 -8.27792
548 3 1.79832 1.79832 28.7731 -6.47388
1063 2 0 1.79832 30.5714 -6.93819
3813 3 1.79832 0 26.9748 -6.51867
299 2 5.39496 0 26.9748 -7.11149
549 3 3.59664 1.79832 26.9748 -6.6342
1314 2 3.59664 0 28.7731 -7.04519
1564 2 5.39496 1.79832 28.7731 -6.97106
1814 2 5.39496 0 30.5714 -7.0154
2064 1 3.59664 1.79832 30.5714 -8.22215
752 3 8.9916 0 26.9748 -6.50696
48 2 10.7899 1.79832 30.5714 -6.9176
1064 1 7.19328 1.79832 26.9748 -8.25378
1565 3 10.7899 1.79832 26.9748 -6.36798
2313 2 7.19328 0 28.7731 -6.99411
2564 1 8.9916 1.79832 28.7731 -8.23859
2813 1 8.9916 0 30.5714 -8.29132
3064 3 7.19328 1.79832 30.5714 -6.45628
3313 2 10.7899 0 28.7731 -6.90449
1315 1 12.5882 0 26.9748 -8.54067
3564 3 12.5882 1.79832 28.7731 -6.44401
3814 1 12.5882 0 30.5714 -8.47759
753 1 16.1849 0 30.5714 -8.18497
300 3 14.3866 0 28.7731 -6.25027
550 1 16.1849 1.79832 28.7731 -8.18017
1065 2 14.3866 1.79832 30.5714 -6.91182
1815 1 16.1849 0 26.9748 -8.42397
2065 3 14.3866 1.79832 26.9748 -6.29339
1316 3 0 3.59664 28.7731 -6.57692
1566 2 1.79832 5.39496 28.7731 -6.98469
1816 1 1.79832 3.59664 30.5714 -8.3346
2066 1 0 5.39496 30.5714 -8.43423
2314 3 1.79832 3.59664 26.9748 -6.55017
2565 3 0 5.39496 26.9748 -6.57358
2315 1 3.59664 3.59664 28.7731 -8.3637
2566 2 5.39496 5.39496 28.7731 -7.00605
2815 1 5.39496 3.59664 30.5714 -8.35969
2814 3 5.39496 3.59664 26.9748 -6.52712