ITEM: TIMESTEP
0
ITEM: NUMBER OF ATOMS
4000
ITEM: BOX BOUNDS pp pp pp
0.0000000000000000e+00 3.5576430000000002e+01
0.0000000000000000e+00 3.5576430000000002e+01
0.0000000000000000e+00 3.5576430000000002e+01
ITEM: ATOMS id type x y z c_peratom
267 1 0 0 0 -8.43435
516 1 1.77882 1.77882 0 -8.171
767 2 1.77882 0 1.77882 -6.86575
1016 2 0 1.77882 1.77882 -6.95918
1267 1 0 0 3.55764 -8.55206
1268 3 3.55764 0 0 -6.3247
1270 1 0 3.55764 0 -8.36839
1517 3 1.77882 1.77882 3.55764 -6.39854
1768 1 1.77882 3.55764 1.77882 -8.38447
2017 3 3.55764 1.77882 1.77882 -6.2826
2266 1 3.55764 0 3.55764 -8.5792
2268 2 0 3.55764 3.55764 -7.01874
2269 2 3.55764 3.55764 0 -7.0076
3268 1 3.55764 3.55764 3.55764 -8.58516
1518 1 5.33646 1.77882 0 -8.38662
1767 2 5.33646 0 1.77882 -6.95961
2517 1 5.33646 1.77882 3.55764 -8.37482
2767 3 5.33646 3.55764 1.77882 -6.37407
1 1 10.6729 1.77882 1.77882 -8.23025
268 3 10.6729 0 3.55764 -6.22911
270 1 7.11529 3.55764 3.55764 -8.39067
271 2 10.6729 3.55764 0 -6.9582
1271 1 10.6729 3.55764 3.55764 -8.09809
2267 2 7.11529 0 0 -6.94866
2518 1 8.89411 1.77882 0 -8.19808
2766 1 8.89411 0 1.77882 -8.16036
3017 2 7.11529 1.77882 1.77882 -6.96755
3266 1 7.11529 0 3.55764 -8.5241
3269 2 7.11529 3.55764 0 -7.01031
3267 1 10.6729 0 0 -8.12114
3517 1 8.89411 1.77882 3.55764 -8.27083
3768 2 8.89411 3.55764 1.77882 -7.023
517 3 12.4518 1.77882 3.55764 -6.24665
769 2 12.4518 3.55764 1.77882 -6.9953
3518 1 12.4518 1.77882 0 -8.41374
3767 3 12.4518 0 1.77882 -6.13037
269 3 14.2306 0 0 -6.36163
376 3 17.7882 0 0 -6.52055
518 2 16.0094 1.77882 0 -6.97371
768 3 16.0094 0 1.77882 -6.44769
1017 2 14.2306 1.77882 1.77882 -6.91402
1126 3 17.7882 1.77882 1.77882 -6.62544
1379 1 17.7882 3.55764 0 -8.30992
1377 2 17.7882 0 3.55764 -7.01478
1269 1 14.2306 0 3.55764 -8.41183
1272 1 14.2306 3.55764 0 -8.32964
1519 3 16.0094 1.77882 3.55764 -6.56388
1769 2 16.0094 3.55764 1.77882 -6.97151
2270 1 14.2306 3.55764 3.55764 -8.4902
2394 3 17.7882 3.55764 3.55764 -6.69942
1520 2 1.77882 5.33646 0 -7.04283
2018 3 0 5.33646 1.77882 -6.52528
2519 2 1.77882 5.33646 3.55764 -7.01357
3018 2 3.55764 5.33646 1.77882 -7.06054
2520 2 5.33646 5.33646 0 -7.06833
3519 2 5.33646 5.33646 3.55764 -6.9197
2 1 7.11529 5.33646 1.77882 -8.40535
519 1 8.89411 5.33646 3.55764 -8.03675
1018 1 10.6729 5.33646 1.77882 -8.28584
3520 3 8.89411 5.33646 0 -6.2118
520 2 12.4518 5.33646 0 -6.98782
1521 1 12.4518 5.33646 3.55764 -8.07389
1522 1 16.0094 5.33646 0 -8.2697
2002 3 17.7882 5.33646 1.77882 -6.30435
2019 3 14.2306 5.33646 1.77882 -6.22251
2521 2 16.0094 5.33646 3.55764 -6.9517
3 2 3.55764 8.89411 1.77882 -6.9458
272 1 3.55764 7.11529 3.55764 -8.55413
274 2 0 10.6729 3.55764 -6.89149
275 3 3.55764 10.6729 0 -6.36192
1275 3 3.55764 10.6729 3.55764 -6.39218
2271 3 0 7.11529 0 -6.57393
2522 1 1.77882 8.89411 0 -8.54785
2768 3 1.77882 7.11529 1.77882 -6.54125
3019 1 0 8.89411 1.77882 -8.53181
3273 1 0 10.6729 0 -8.30207
3271 3 3.55764 7.11529 0 -6.69875
3270 3 0 7.11529 3.55764 -6.57296
3521 3 1.77882 8.89411 3.55764 -6.49364
3770 1 1.77882 10.6729 1.77882 -8.20007
521 2 5.33646 8.89411 3.55764 -6.95881
771 3 5.33646 10.6729 1.77882 -6.34781
3522 2 5.33646 8.89411 0 -7.07642
3769 2 5.33646 7.11529 1.77882 -7.04477
273 3 7.11529 7.11529 0 -6.43518
522 3 8.89411 8.89411 0 -6.34716
770 1 8.89411 7.11529 1.77882 -8.32095
1019 1 7.11529 8.89411 1.77882 -8.43378
1276 2 7.11529 10.6729 0 -6.95817
1274 2 10.6729 7.11529 0 -6.92716
1273 2 7.11529 7.11529 3.55764 -6.90822
1523 3 8.89411 8.89411 3.55764 -6.0556
1771 1 8.89411 10.6729 1.77882 -8.2762
2020 2 10.6729 8.89411 1.77882 -6.91939
2272 1 10.6729 7.11529 3.55764 -8.37674
2275 2 10.6729 10.6729 0 -7.0258
2274 1 7.11529 10.6729 3.55764 -8.11381
3274 1 10.6729 10.6729 3.55764 -8.50182
1524 2 12.4518 8.89411 0 -7.09652
1770 3 12.4518 7.11529 1.77882 -6.21702
2523 3 12.4518 8.89411 3.55764 -6.3162
2770 2 12.4518 10.6729 1.77882 -6.92848
384 1 17.7882 10.6729 3.55764 -7.99069
276 3 14.2306 10.6729 3.55764 -6.28211
2273 1 14.2306 7.11529 0 -8.20104
2396 2 17.7882 7.11529 0 -6.8873
2524 2 16.0094 8.89411 0 -6.99637
2769 2 16.0094 7.11529 1.77882 -6.97786
3144 1 17.7882 8.89411 1.77882 -7.9801
3020 1 14.2306 8.89411 1.77882 -8.18766
3398 3 17.7882 10.6729 0 -6.02172
3396 1 17.7882 7.11529 3.55764 -8.11656
3275 1 14.2306 10.6729 0 -8.06832
3272 1 14.2306 7.11529 3.55764 -8.25276
3523 1 16.0094 8.89411 3.55764 -8.09303
3771 1 16.0094 10.6729 1.77882 -8.02947
4 3 0 12.4518 1.77882 -6.31038
523 1 1.77882 12.4518 3.55764 -8.45436
1020 1 3.55764 12.4518 1.77882 -8.40699
3524 1 1.77882 12.4518 0 -8.12389
524 2 5.33646 12.4518 0 -6.87357
1525 1 5.33646 12.4518 3.55764 -8.38468
1526 3 8.89411 12.4518 0 -6.22444
2021 1 7.11529 12.4518 1.77882 -8.3553
2525 1 8.89411 12.4518 3.55764 -8.10603
3021 1 10.6729 12.4518 1.77882 -8.52214
2526 2 12.4518 12.4518 0 -6.95771
3525 3 12.4518 12.4518 3.55764 -6.32877
5 1 14.2306 12.4518 1.77882 -8.44705
129 2 17.7882 12.4518 1.77882 -6.91328
525 1 16.0094 12.4518 3.55764 -8.25285
3526 1 16.0094 12.4518 0 -8.32487
316 2 3.55764 17.7882 3.55764 -7.01958
277 1 0 14.2306 0 -8.35783
526 3 1.77882 16.0094 0 -6.33431
772 1 1.77882 14.2306 1.77882 -8.48562
1021 3 0 16.0094 1.77882 -6.43686
1278 3 3.55764 14.2306 0 -6.21037
1277 3 0 14.2306 3.55764 -6.4136
1527 2 1.77882 16.0094 3.55764 -6.90344
2022 3 3.55764 16.0094 1.77882 -6.41466
2328 3 0 17.7882 0 -6.5835
2276 3 3.55764 14.2306 3.55764 -6.11963
2828 3 1.77882 17.7882 1.77882 -6.53204
3330 1 3.55764 17.7882 0 -8.62194
3329 2 0 17.7882 3.55764 -7.01091
1528 2 5.33646 16.0094 0 -6.89359
1772 3 5.33646 14.2306 1.77882 -6.28101
2527 1 5.33646 16.0094 3.55764 -8.41894
3830 2 5.33646 17.7882 1.77882 -6.97222
6 2 10.6729 16.0094 1.77882 -6.93018
317 1 7.11529 17.7882 0 -8.6335
278 2 10.6729 14.2306 3.55764 -6.90859
815 1 8.89411 17.7882 1.77882 -8.3197
1333 1 10.6729 17.7882 0 -8.29448
1332 1 7.11529 17.7882 3.55764 -8.2038
2331 3 10.6729 17.7882 3.55764 -6.40763
2277 3 7.11529 14.2306 0 -6.35368
2528 3 8.89411 16.0094 0 -6.31608
2771 2 8.89411 14.2306 1.77882 -6.92459
3022 3 7.11529 16.0094 1.77882 -6.29233
3277 3 10.6729 14.2306 0 -6.35638
3276 1 7.11529 14.2306 3.55764 -8.18772
3527 1 8.89411 16.0094 3.55764 -8.29765
527 3 12.4518 16.0094 3.55764 -6.64177
1831 2 12.4518 17.7882 1.77882 -7.0165
3528 3 12.4518 16.0094 0 -6.41827
3772 3 12.4518 14.2306 1.77882 -6.52157
386 1 17.7882 14.2306 0 -8.2238
279 2 14.2306 14.2306 0 -6.86145
528 3 16.0094 16.0094 0 -6.35
773 3 16.0094 14.2306 1.77882 -6.40205
1131 2 17.7882 16.0094 1.77882 -6.97066
1022 3 14.2306 16.0094 1.77882 -6.61827
1387 3 17.7882 14.2306 3.55764 -6.30663
1279 2 14.2306 14.2306 3.55764 -6.9832
1529 3 16.0094 16.0094 3.55764 -6.54161
2438 2 17.7882 17.7882 0 -6.94368
2332 1 14.2306 17.7882 0 -8.45949
2830 2 16.0094 17.7882 1.77882 -6.9736
3455 3 17.7882 17.7882 3.55764 -6.26687
3333 2 14.2306 17.7882 3.55764 -7.10507
775 2 0 3.55764 7.11529 -7.04263
1280 1 3.55764 3.55764 7.11529 -8.4337
1773 3 1.77882 0 5.33646 -6.22545
2023 3 0 1.77882 5.33646 -6.50084
2278 1 0 0 7.11529 -8.42868
2529 3 1.77882 1.77882 7.11529 -6.30575
2774 2 1.77882 3.55764 5.33646 -6.99875
2773 1 3.55764 0 7.11529 -8.53554
3023 2 3.55764 1.77882 5.33646 -6.90241
2772 2 5.33646 0 5.33646 -6.90355
3024 2 5.33646 1.77882 7.11529 -6.91008
3775 3 5.33646 3.55764 5.33646 -6.23225
7 3 7.11529 1.77882 5.33646 -6.25051
776 3 8.89411 3.55764 5.33646 -6.16191
1023 2 10.6729 1.77882 5.33646 -6.91028
1775 3 7.11529 3.55764 7.11529 -6.41582
2279 1 10.6729 3.55764 7.11529 -8.30518
3278 3 7.11529 0 7.11529 -6.43138
3529 1 8.89411 1.77882 7.11529 -8.66899
3774 3 10.6729 0 7.11529 -6.31848
3773 3 8.89411 0 5.33646 -6.29528
8 1 12.4518 1.77882 7.11529 -8.2092
774 1 12.4518 0 5.33646 -8.32504
1776 1 12.4518 3.55764 5.33646 -8.04847
280 2 14.2306 0 7.11529 -7.03499
529 2 16.0094 1.77882 7.11529 -6.98622
884 1 17.7882 3.55764 7.11529 -8.67238
1774 3 16.0094 0 5.33646 -6.52194
2024 2 14.2306 1.77882 5.33646 -6.9914
2007 2 17.7882 1.77882 5.33646 -6.97016
2403 3 17.7882 0 7.11529 -6.53449
2776 1 14.2306 3.55764 7.11529 -8.44147
2775 3 16.0094 3.55764 5.33646 -6.44097
9 3 3.55764 5.33646 5.33646 -6.21694
1024 1 1.77882 5.33646 7.11529 -8.23276
3025 2 0 5.33646 5.33646 -7.03309
1530 1 5.33646 5.33646 7.11529 -8.33822
1025 3 7.11529 5.33646 5.33646 -6.14065
2026 2 10.6729 5.33646 5.33646 -6.94882
2025 3 8.89411 5.33646 7.11529 -6.22394
2530 2 12.4518 5.33646 7.11529 -6.92177
3150 2 17.7882 5.33646 5.33646 -6.95197
3027 2 16.0094 5.33646 7.11529 -6.94491
3026 1 14.2306 5.33646 5.33646 -8.16344
10 3 0 8.89411 5.33646 -6.54392
779 3 1.77882 10.6729 5.33646 -6.60225
1026 2 3.55764 8.89411 5.33646 -6.97483
1778 3 0 10.6729 7.11529 -6.41044
2280 3 3.55764 10.6729 7.11529 -6.6106
3279 3 0 7.11529 7.11529 -6.39749
3530 3 1.77882 8.89411 7.11529 -6.61087
3777 1 3.55764 7.11529 7.11529 -8.22245
3776 2 1.77882 7.11529 5.33646 -6.97544
11 1 5.33646 8.89411 7.11529 -8.28089
777 1 5.33646 7.11529 5.33646 -8.16541
1779 3 5.33646 10.6729 5.33646 -6.31978
281 1 7.11529 7.11529 7.11529 -8.21634
530 3 8.89411 8.89411 7.11529 -6.1829
778 1 10.6729 7.11529 7.11529 -8.64753
1777 1 8.89411 7.11529 5.33646 -8.25165
2027 1 7.11529 8.89411 5.33646 -8.15466
2779 3 7.11529 10.6729 7.11529 -6.30532
2778 1 8.89411 10.6729 5.33646 -8.35232
3028 3 10.6729 8.89411 5.33646 -6.23791
3280 2 10.6729 10.6729 7.11529 -6.84964
1027 3 12.4518 8.89411 7.11529 -6.39879
2777 2 12.4518 7.11529 5.33646 -6.88155
3779 2 12.4518 10.6729 5.33646 -6.87321
12 3 14.2306 8.89411 5.33646 -6.38175
135 2 17.7882 8.89411 5.33646 -7.04587
780 2 16.0094 10.6729 5.33646 -6.86765
1281 3 14.2306 7.11529 7.11529 -6.37809
1531 1 16.0094 8.89411 7.11529 -8.50705
1887 1 17.7882 10.6729 7.11529 -8.29869
3404 3 17.7882 7.11529 7.11529 -6.39729
3780 3 14.2306 10.6729 7.11529 -6.34303
3778 1 16.0094 7.11529 5.33646 -8.22638
1028 2 0 12.4518 5.33646 -6.91756
2029 2 3.55764 12.4518 5.33646 -6.93943
2028 2 1.77882 12.4518 7.11529 -7.01815
2531 2 5.33646 12.4518 7.11529 -6.96654
13 3 10.6729 12.4518 5.33646 -6.25949
3030 1 8.89411 12.4518 7.11529 -8.38675
3029 3 7.11529 12.4518 5.33646 -6.10505
3531 3 12.4518 12.4518 7.11529 -6.40353
14 2 16.0094 12.4518 7.11529 -6.92576
1138 3 17.7882 12.4518 5.33646 -6.23129
1029 1 14.2306 12.4518 5.33646 -8.42117
326 2 0 17.7882 7.11529 -6.91784
282 1 0 14.2306 7.11529 -8.06302
531 3 1.77882 16.0094 7.11529 -6.11483
822 2 3.55764 17.7882 7.11529 -6.97935
781 1 3.55764 14.2306 7.11529 -8.13322
1780 1 1.77882 14.2306 5.33646 -8.18062
2030 1 0 16.0094 5.33646 -8.39209
3031 1 3.55764 16.0094 5.33646 -8.15475
3835 1 1.77882 17.7882 5.33646 -8.12326
821 2 5.33646 17.7882 5.33646 -6.9895
1030 2 5.33646 16.0094 7.11529 -6.98617
2780 1 5.33646 14.2306 5.33646 -8.13458
15 3 7.11529 16.0094 5.33646 -6.20185
1031 3 10.6729 16.0094 5.33646 -6.4157
1342 2 7.11529 17.7882 7.11529 -6.93525
1282 1 7.11529 14.2306 7.11529 -8.3632
1532 3 8.89411 16.0094 7.11529 -6.23945
1838 2 10.6729 17.7882 7.11529 -6.94427
1837 1 8.89411 17.7882 5.33646 -8.45829
1781 1 10.6729 14.2306 7.11529 -8.58627
3781 2 8.89411 14.2306 5.33646 -6.7853
782 1 12.4518 14.2306 5.33646 -8.59981
2031 2 12.4518 16.0094 7.11529 -7.09663
2837 2 12.4518 17.7882 5.33646 -7.07416
451 2 17.7882 17.7882 7.11529 -7.02127
391 1 17.7882 14.2306 7.11529 -8.44231
1782 1 16.0094 14.2306 5.33646 -8.3497
2032 2 14.2306 16.0094 5.33646 -7.0169
2014 3 17.7882 16.0094 5.33646 -6.33559
2341 3 14.2306 17.7882 7.11529 -6.66887
2281 2 14.2306 14.2306 7.11529 -6.99681
2532 1 16.0094 16.0094 7.11529 -8.30214
3838 1 16.0094 17.7882 5.33646 -8.57142
251 3 3.55764 0 10.6729 -6.3513
253 2 0 3.55764 10.6729 -6.93274
16 1 0 1.77882 12.4518 -8.65623
785 1 1.77882 3.55764 12.4518 -8.2482
1032 1 3.55764 1.77882 12.4518 -8.38979
1285 3 3.55764 3.55764 10.6729 -6.19031
1284 1 1.77882 3.55764 8.89411 -8.41699
2781 1 1.77882 0 8.89411 -8.68511
3032 3 0 1.77882 8.89411 -6.39841
3281 3 0 0 10.6729 -6.48669
3533 3 3.55764 1.77882 8.89411 -6.33395
3532 2 1.77882 1.77882 10.6729 -6.86181
3782 2 1.77882 0 12.4518 -6.92676
532 1 5.33646 1.77882 10.6729 -8.53716
783 1 5.33646 0 12.4518 -8.37077
1785 3 5.33646 3.55764 12.4518 -6.37245
1784 3 5.33646 3.55764 8.89411 -6.37257
3282 2 5.33646 0 8.89411 -6.88481
17 2 7.11529 1.77882 8.89411 -6.94012
533 1 10.6729 1.77882 8.89411 -8.3766
1283 1 7.11529 0 10.6729 -8.57453
1533 2 8.89411 1.77882 10.6729 -6.96253
1783 3 8.89411 0 12.4518 -6.48327
2033 2 7.11529 1.77882 12.4518 -6.94208
2284 2 7.11529 3.55764 10.6729 -7.02645
2283 1 8.89411 3.55764 8.89411 -8.45141
2282 3 10.6729 0 10.6729 -6.45898
2783 1 8.89411 3.55764 12.4518 -8.36709
3033 2 10.6729 1.77882 12.4518 -6.94161
3284 2 10.6729 3.55764 10.6729 -6.93414
3783 3 8.89411 0 8.89411 -6.41682
252 3 12.4518 0 8.89411 -6.51754
2533 1 12.4518 1.77882 10.6729 -8.51953
2784 2 12.4518 3.55764 8.89411 -6.95478
2782 2 12.4518 0 12.4518 -6.9268
3785 3 12.4518 3.55764 12.4518 -6.26143
254 1 14.2306 3.55764 10.6729 -8.48384
394 2 17.7882 3.55764 10.6729 -6.86739
141 3 17.7882 1.77882 12.4518 -6.39341
18 3 14.2306 1.77882 12.4518 -6.25291
786 2 16.0094 3.55764 12.4518 -6.88075
784 2 16.0094 0 8.89411 -6.97166
1033 2 14.2306 1.77882 8.89411 -6.99609
3157 3 17.7882 1.77882 8.89411 -6.3734
3406 1 17.7882 0 10.6729 -8.68121
3285 3 16.0094 3.55764 8.89411 -6.41176
3283 2 14.2306 0 10.6729 -6.95226
3534 1 16.0094 1.77882 10.6729 -8.42413
3784 1 16.0094 0 12.4518 -8.39713
534 1 1.77882 5.33646 10.6729 -8.27526
1034 3 0 5.33646 12.4518 -6.30276
1534 1 0 5.33646 8.89411 -8.34662
2035 1 3.55764 5.33646 12.4518 -8.26958
2034 1 3.55764 5.33646 8.89411 -8.09481
1535 2 5.33646 5.33646 10.6729 -6.95266
19 1 10.6729 5.33646 12.4518 -8.34307
2535 3 8.89411 5.33646 10.6729 -6.42934
2534 2 7.11529 5.33646 8.89411 -6.90446
3035 3 10.6729 5.33646 8.89411 -6.37185
3034 2 7.11529 5.33646 12.4518 -6.95514
3535 1 12.4518 5.33646 10.6729 -8.58085
535 3 16.0094 5.33646 10.6729 -6.45149
1144 2 17.7882 5.33646 12.4518 -7.03197
1035 2 14.2306 5.33646 12.4518 -6.91837
1643 2 17.7882 5.33646 8.89411 -6.95984
3536 3 14.2306 5.33646 8.89411 -6.43502
20 3 0 8.89411 8.89411 -6.4144
536 3 3.55764 8.89411 8.89411 -6.3196
1286 3 0 7.11529 10.6729 -6.38634
1536 1 1.77882 8.89411 10.6729 -8.50091
1786 2 1.77882 7.11529 12.4518 -6.97716
2036 2 0 8.89411 12.4518 -6.94889
2287 2 0 10.6729 10.6729 -6.85849
2286 2 1.77882 10.6729 8.89411 -6.95169
2285 2 3.55764 7.11529 10.6729 -6.93393
2786 3 1.77882 10.6729 12.4518 -6.43571
3036 1 3.55764 8.89411 12.4518 -8.41192
3287 1 3.55764 10.6729 10.6729 -8.55128
3786 2 1.77882 7.11529 8.89411 -6.90952
255 1 5.33646 7.11529 8.89411 -8.14187
2536 3 5.33646 8.89411 10.6729 -6.28588
2787 2 5.33646 10.6729 8.89411 -6.94022
2785 2 5.33646 7.11529 12.4518 -6.96579
3788 3 5.33646 10.6729 12.4518 -6.37525
256 2 10.6729 7.11529 10.6729 -6.93892
257 2 7.11529 10.6729 10.6729 -6.98433
21 1 7.11529 8.89411 12.4518 -8.51588
789 2 8.89411 10.6729 12.4518 -7.00498
787 3 8.89411 7.11529 8.89411 -6.2986
1037 3 10.6729 8.89411 12.4518 -6.63356
1036 1 7.11529 8.89411 8.89411 -8.38856
1289 2 10.6729 10.6729 10.6729 -7.04487
1537 1 10.6729 8.89411 8.89411 -8.46488
3288 2 8.89411 10.6729 8.89411 -6.97683
3286 1 7.11529 7.11529 10.6729 -8.48692
3537 2 8.89411 8.89411 10.6729 -7.02522
3787 3 8.89411 7.11529 12.4518 -6.44362
537 2 12.4518 8.89411 10.6729 -6.95866
788 2 12.4518 7.11529 12.4518 -7.02472
1287 3 12.4518 7.11529 8.89411 -6.41292
1789 1 12.4518 10.6729 12.4518 -8.61277
3789 1 12.4518 10.6729 8.89411 -8.51712
258 3 16.0094 10.6729 8.89411 -6.34666
145 2 17.7882 8.89411 8.89411 -6.85966
1395 1 17.7882 7.11529 10.6729 -8.21117
1288 3 14.2306 7.11529 10.6729 -6.38967
1538 1 16.0094 8.89411 10.6729 -8.41279
1788 1 16.0094 7.11529 12.4518 -8.29691
1787 3 16.0094 7.11529 8.89411 -6.3995
2145 3 17.7882 8.89411 12.4518 -6.03573
2038 2 14.2306 8.89411 12.4518 -6.92569
2037 1 14.2306 8.89411 8.89411 -8.53792
2256 3 17.7882 10.6729 10.6729 -6.40836
2288 3 14.2306 10.6729 10.6729 -6.27168
2788 1 16.0094 10.6729 12.4518 -8.61833
22 3 3.55764 12.4518 12.4518 -6.53799
2538 3 1.77882 12.4518 10.6729 -6.30831
2537 1 0 12.4518 8.89411 -8.29336
3038 2 3.55764 12.4518 8.89411 -6.99328
3037 1 0 12.4518 12.4518 -8.49509
3538 1 5.33646 12.4518 10.6729 -8.57621
23 3 10.6729 12.4518 8.89411 -6.3839
538 2 8.89411 12.4518 10.6729 -7.00588
1038 3 7.11529 12.4518 12.4518 -6.54646
2039 3 10.6729 12.4518 12.4518 -6.47723
3539 3 7.11529 12.4518 8.89411 -6.43537
1539 1 12.4518 12.4518 10.6729 -8.58934
539 3 14.2306 12.4518 8.89411 -6.43058
2662 1 17.7882 12.4518 8.89411 -8.45514
2539 2 16.0094 12.4518 10.6729 -6.86099
3163 3 17.7882 12.4518 12.4518 -6.47315
3039 2 14.2306 12.4518 12.4518 -6.95967
259 1 3.55764 14.2306 10.6729 -8.38439
24 3 0 16.0094 12.4518 -6.41086
829 3 1.77882 17.7882 8.89411 -6.14142
790 1 1.77882 14.2306 8.89411 -8.06573
1040 3 3.55764 16.0094 12.4518 -6.37833
1039 1 0 16.0094 8.89411 -8.3044
1251 1 0 17.7882 10.6729 -8.29592
1540 1 3.55764 16.0094 8.89411 -8.40046
1845 1 1.77882 17.7882 12.4518 -8.54809
2345 3 3.55764 17.7882 10.6729 -6.23232
3289 1 0 14.2306 10.6729 -8.2009
3540 2 1.77882 16.0094 10.6729 -6.89209
3790 2 1.77882 14.2306 12.4518 -6.97534
540 1 5.33646 16.0094 10.6729 -8.42665
791 3 5.33646 14.2306 12.4518 -6.4248
1252 3 5.33646 17.7882 8.89411 -6.15979
1290 2 5.33646 14.2306 8.89411 -6.99235
2845 3 5.33646 17.7882 12.4518 -6.26221
332 1 10.6729 17.7882 10.6729 -8.35281
1291 2 7.11529 14.2306 10.6729 -6.94928
1541 3 8.89411 16.0094 10.6729 -6.1271
1846 1 8.89411 17.7882 8.89411 -8.54594
1791 1 8.89411 14.2306 12.4518 -8.57507
1790 1 8.89411 14.2306 8.89411 -8.48842
2041 1 7.11529 16.0094 12.4518 -8.32365
2040 1 7.11529 16.0094 8.89411 -8.27063
2290 2 10.6729 14.2306 10.6729 -6.96526
2540 3 10.6729 16.0094 8.89411 -6.40537
3040 1 10.6729 16.0094 12.4518 -8.40905
3346 3 7.11529 17.7882 10.6729 -6.17544
3847 1 8.89411 17.7882 12.4518 -8.46537
832 2 12.4518 17.7882 12.4518 -6.94637
2346 2 12.4518 17.7882 8.89411 -7.05526
2289 2 12.4518 14.2306 8.89411 -6.983
2541 2 12.4518 16.0094 10.6729 -7.0357
2789 2 12.4518 14.2306 12.4518 -6.9974
149 3 17.7882 16.0094 12.4518 -6.46423
25 3 14.2306 16.0094 12.4518 -6.67137
1149 2 17.7882 16.0094 8.89411 -7.046
1255 3 14.2306 17.7882 10.6729 -6.51929
1454 3 17.7882 17.7882 10.6729 -6.53295
1848 2 16.0094 17.7882 12.4518 -6.85495
2846 2 16.0094 17.7882 8.89411 -7.02903
2790 1 16.0094 14.2306 8.89411 -8.29399
3041 2 14.2306 16.0094 8.89411 -7.09648
3414 2 17.7882 14.2306 10.6729 -6.9758
3290 3 14.2306 14.2306 10.6729 -6.52561
3541 1 16.0094 16.0094 10.6729 -8.76269
3791 3 16.0094 14.2306 12.4518 -6.65574
260 2 0 0 14.2306 -6.94881
541 2 1.77882 1.77882 14.2306 -6.89956
792 3 1.77882 0 16.0094 -6.33921
1041 1 0 1.77882 16.0094 -8.45791
1298 2 0 0 17.7882 -7.03325
1293 3 0 3.55764 14.2306 -6.1499
1292 1 3.55764 0 14.2306 -8.18324
1548 2 1.77882 1.77882 17.7882 -6.93711
1793 3 1.77882 3.55764 16.0094 -6.30604
2042 3 3.55764 1.77882 16.0094 -6.38879
2300 3 0 3.55764 17.7882 -6.10247
2298 1 3.55764 0 17.7882 -8.33182
2292 3 3.55764 3.55764 14.2306 -6.29746
3300 2 3.55764 3.55764 17.7882 -6.84671
1542 3 5.33646 1.77882 14.2306 -6.30445
1792 1 5.33646 0 16.0094 -8.35666
2549 1 5.33646 1.77882 17.7882 -8.34815
2792 3 5.33646 3.55764 16.0094 -6.41605
262 1 10.6729 3.55764 14.2306 -8.48077
286 3 7.11529 3.55764 17.7882 -6.44497
284 1 10.6729 0 17.7882 -8.49712
26 3 10.6729 1.77882 16.0094 -6.35884
1302 1 10.6729 3.55764 17.7882 -8.70836
2291 3 7.11529 0 14.2306 -6.34543
2542 3 8.89411 1.77882 14.2306 -6.49885
2791 3 8.89411 0 16.0094 -6.31265
3042 1 7.11529 1.77882 16.0094 -8.61346
3298 2 7.11529 0 17.7882 -6.88735
3292 2 7.11529 3.55764 14.2306 -6.9685
3291 2 10.6729 0 14.2306 -6.83398
3549 2 8.89411 1.77882 17.7882 -6.9656
3793 2 8.89411 3.55764 16.0094 -6.95094
502 2 12.4518 1.77882 17.7882 -6.85486
794 3 12.4518 3.55764 16.0094 -6.3175
3542 1 12.4518 1.77882 14.2306 -8.5041
3792 3 12.4518 0 16.0094 -6.24551
261 1 14.2306 0 14.2306 -8.35906
401 2 17.7882 0 14.2306 -6.89225
542 3 16.0094 1.77882 14.2306 -6.33803
793 1 16.0094 0 16.0094 -8.47146
1151 2 17.7882 1.77882 16.0094 -6.9638
1042 1 14.2306 1.77882 16.0094 -8.54209
1407 1 17.7882 0 17.7882 -8.26175
1402 1 17.7882 3.55764 14.2306 -8.52113
1300 3 14.2306 0 17.7882 -6.34986
1294 3 14.2306 3.55764 14.2306 -6.36709
1550 2 16.0094 1.77882 17.7882 -6.98579
1794 2 16.0094 3.55764 16.0094 -6.93927
2410 1 17.7882 3.55764 17.7882 -8.43165
2302 3 14.2306 3.55764 17.7882 -6.45898
1543 1 1.77882 5.33646 14.2306 -8.32611
2043 1 0 5.33646 16.0094 -8.17443
2551 1 1.77882 5.33646 17.7882 -8.38478
3043 3 3.55764 5.33646 16.0094 -6.25428
2543 1 5.33646 5.33646 14.2306 -8.52221
3551 2 5.33646 5.33646 17.7882 -6.89131
27 2 7.11529 5.33646 16.0094 -6.96863
504 2 8.89411 5.33646 17.7882 -6.95344
1043 3 10.6729 5.33646 16.0094 -6.37291
3543 1 8.89411 5.33646 14.2306 -8.53941
543 2 12.4518 5.33646 14.2306 -6.84694
1552 3 12.4518 5.33646 17.7882 -6.35115
1544 1 16.0094 5.33646 14.2306 -8.10794
2152 2 17.7882 5.33646 16.0094 -6.99985
2044 1 14.2306 5.33646 16.0094 -8.64162
2553 3 16.0094 5.33646 17.7882 -6.47826
264 2 3.55764 10.6729 14.2306 -7.01589
290 2 0 10.6729 17.7882 -6.94576
288 1 3.55764 7.11529 17.7882 -8.11735
28 1 3.55764 8.89411 16.0094 -8.31508
1306 3 3.55764 10.6729 17.7882 -6.35022
2293 1 0 7.11529 14.2306 -8.56132
2544 3 1.77882 8.89411 14.2306 -6.45649
2793 2 1.77882 7.11529 16.0094 -6.89651
3044 3 0 8.89411 16.0094 -6.41909
3302 3 0 7.11529 17.7882 -5.99073
3294 2 0 10.6729 14.2306 -7.06816
3293 1 3.55764 7.11529 14.2306 -8.09965
3553 1 1.77882 8.89411 17.7882 -8.31533
3795 2 1.77882 10.6729 16.0094 -7.06384
506 3 5.33646 8.89411 17.7882 -6.3201
796 2 5.33646 10.6729 16.0094 -6.93941
3544 2 5.33646 8.89411 14.2306 -6.9756
3794 1 5.33646 7.11529 16.0094 -8.3686
263 3 7.11529 7.11529 14.2306 -6.45034
544 2 8.89411 8.89411 14.2306 -6.9509
795 3 8.89411 7.11529 16.0094 -6.49343
1044 2 7.11529 8.89411 16.0094 -6.93919
1304 3 7.11529 7.11529 17.7882 -6.59246
1296 1 7.11529 10.6729 14.2306 -8.7066
1295 2 10.6729 7.11529 14.2306 -6.91544
1554 3 8.89411 8.89411 17.7882 -6.41129
1796 3 8.89411 10.6729 16.0094 -6.39289
2045 1 10.6729 8.89411 16.0094 -8.41864
2306 3 7.11529 10.6729 17.7882 -6.37876
2304 1 10.6729 7.11529 17.7882 -8.51286
2295 1 10.6729 10.6729 14.2306 -8.64451
3306 2 10.6729 10.6729 17.7882 -6.85884
1545 2 12.4518 8.89411 14.2306 -6.9714
1795 3 12.4518 7.11529 16.0094 -6.29868
2555 1 12.4518 8.89411 17.7882 -8.47885
2795 2 12.4518 10.6729 16.0094 -6.88259
415 1 17.7882 10.6729 17.7882 -8.42255
292 2 14.2306 10.6729 17.7882 -6.93959
2262 1 17.7882 7.11529 14.2306 -8.21654
2294 1 14.2306 7.11529 14.2306 -8.34944
2545 3 16.0094 8.89411 14.2306 -6.07081
2794 1 16.0094 7.11529 16.0094 -8.51345
3169 3 17.7882 8.89411 16.0094 -6.07732
3045 3 14.2306 8.89411 16.0094 -6.3434
3427 3 17.7882 7.11529 17.7882 -6.4671
3419 1 17.7882 10.6729 14.2306 -8.38446
3304 3 14.2306 7.11529 17.7882 -6.39162
3295 3 14.2306 10.6729 14.2306 -6.33404
3555 2 16.0094 8.89411 17.7882 -6.93212
3796 1 16.0094 10.6729 16.0094 -8.46176
29 2 0 12.4518 16.0094 -7.09117
508 3 1.77882 12.4518 17.7882 -6.64607
1045 3 3.55764 12.4518 16.0094 -6.73006
3545 2 1.77882 12.4518 14.2306 -7.16654
545 2 5.33646 12.4518 14.2306 -7.02137
1556 1 5.33646 12.4518 17.7882 -8.60555
1546 3 8.89411 12.4518 14.2306 -6.45451
2046 3 7.11529 12.4518 16.0094 -6.40781
2557 1 8.89411 12.4518 17.7882 -8.62132
3046 3 10.6729 12.4518 16.0094 -6.38424
2546 3 12.4518 12.4518 14.2306 -6.41742
3557 1 12.4518 12.4518 17.7882 -8.5296
154 2 17.7882 12.4518 16.0094 -6.99917
30 1 14.2306 12.4518 16.0094 -8.29018
510 1 16.0094 12.4518 17.7882 -8.4026
3546 3 16.0094 12.4518 14.2306 -6.34472
265 2 0 14.2306 14.2306 -7.06555
347 1 3.55764 17.7882 17.7882 -8.45548
546 3 1.77882 16.0094 14.2306 -6.49572
797 2 1.77882 14.2306 16.0094 -7.10282
1046 3 0 16.0094 16.0094 -6.60193
1308 2 0 14.2306 17.7882 -7.0486
1297 2 3.55764 14.2306 14.2306 -7.06549
1558 3 1.77882 16.0094 17.7882 -6.56648
2047 1 3.55764 16.0094 16.0094 -8.43723
2353 3 0 17.7882 14.2306 -6.48684
2308 2 3.55764 14.2306 17.7882 -6.97503
2853 3 1.77882 17.7882 16.0094 -6.32008
3359 2 0 17.7882 17.7882 -6.92189
3354 1 3.55764 17.7882 14.2306 -8.41967
1547 2 5.33646 16.0094 14.2306 -6.94138
1797 3 5.33646 14.2306 16.0094 -6.45711
2559 2 5.33646 16.0094 17.7882 -6.98053
3855 1 5.33646 17.7882 16.0094 -8.09252
340 1 7.11529 17.7882 14.2306 -8.26993
294 3 10.6729 14.2306 17.7882 -6.24118
31 2 10.6729 16.0094 16.0094 -6.91966
840 3 8.89411 17.7882 16.0094 -6.54749
1262 3 10.6729 17.7882 14.2306 -6.52761
1348 2 7.11529 17.7882 17.7882 -6.9439
2363 3 10.6729 17.7882 17.7882 -6.44146
2296 2 7.11529 14.2306 14.2306 -6.90714
2547 3 8.89411 16.0094 14.2306 -6.31221
2796 3 8.89411 14.2306 16.0094 -6.42818
3047 1 7.11529 16.0094 16.0094 -8.50291
3308 1 7.11529 14.2306 17.7882 -8.36389
3296 2 10.6729 14.2306 14.2306 -6.90756
3559 3 8.89411 16.0094 17.7882 -6.35093
512 1 12.4518 16.0094 17.7882 -8.47856
1856 2 12.4518 17.7882 16.0094 -6.92059
3547 3 12.4518 16.0094 14.2306 -6.60396
3797 1 12.4518 14.2306 16.0094 -8.54277
266 2 14.2306 14.2306 14.2306 -7.01159
406 3 17.7882 14.2306 14.2306 -6.50291
547 2 16.0094 16.0094 14.2306 -6.92504
798 1 16.0094 14.2306 16.0094 -8.4345
1156 1 17.7882 16.0094 16.0094 -8.48389
1047 2 14.2306 16.0094 16.0094 -6.91595
1417 2 17.7882 14.2306 17.7882 -6.97564
1310 3 14.2306 14.2306 17.7882 -6.19579
1560 3 16.0094 16.0094 17.7882 -6.39495
2463 3 17.7882 17.7882 14.2306 -6.27949
2355 3 14.2306 17.7882 14.2306 -6.58099
2855 3 16.0094 17.7882 16.0094 -6.34045
3469 1 17.7882 17.7882 17.7882 -8.34147
3363 3 14.2306 17.7882 17.7882 -6.27283
285 1 3.55764 3.55764 21.3459 -8.45632
1798 2 1.77882 0 19.567 -6.97589
2048 2 0 1.77882 19.567 -6.95691
2297 3 0 0 21.3459 -6.3682
2548 3 1.77882 1.77882 21.3459 -6.40587
2798 1 1.77882 3.55764 19.567 -8.49173
3048 3 3.55764 1.77882 19.567 -6.28623
3299 3 0 3.55764 21.3459 -6.31891
3297 3 3.55764 0 21.3459 -6.22968
2797 1 5.33646 0 19.567 -8.33368
3548 3 5.33646 1.77882 21.3459 -6.14205
3799 3 5.33646 3.55764 19.567 -6.35918
501 2 8.89411 1.77882 21.3459 -7.01104
32 1 7.11529 1.77882 19.567 -8.20391
283 1 7.11529 0 21.3459 -8.06089
800 1 8.89411 3.55764 19.567 -8.41985
1048 2 10.6729 1.77882 19.567 -6.90327
1301 2 7.11529 3.55764 21.3459 -6.84894
1299 1 10.6729 0 21.3459 -8.46686
2301 1 10.6729 3.55764 21.3459 -8.58691
3798 1 8.89411 0 19.567 -8.02513
799 3 12.4518 0 19.567 -6.30978
1549 3 12.4518 1.77882 21.3459 -6.4739
1800 3 12.4518 3.55764 19.567 -6.50877
1799 3 16.0094 0 19.567 -6.36726
2157 1 17.7882 1.77882 19.567 -8.47378
2049 1 14.2306 1.77882 19.567 -8.86558
2408 2 17.7882 0 21.3459 -7.01872
2299 3 14.2306 0 21.3459 -6.45742
2550 2 16.0094 1.77882 21.3459 -7.02016
2799 2 16.0094 3.55764 19.567 -7.04987
3425 2 17.7882 3.55764 21.3459 -7.04953
3301 2 14.2306 3.55764 21.3459 -7.03965
33 1 3.55764 5.33646 19.567 -8.26449
3049 3 0 5.33646 19.567 -6.03088
3550 1 1.77882 5.33646 21.3459 -8.43631
503 3 5.33646 5.33646 21.3459 -6.34185
1049 3 7.11529 5.33646 19.567 -6.59059
1551 3 8.89411 5.33646 21.3459 -6.26494
2050 3 10.6729 5.33646 19.567 -6.32781
2552 2 12.4518 5.33646 21.3459 -6.9655
3174 3 17.7882 5.33646 19.567 -6.5274
3050 2 14.2306 5.33646 19.567 -6.99085
3552 2 16.0094 5.33646 21.3459 -7.12155
505 2 1.77882 8.89411 21.3459 -6.86931
34 1 0 8.89411 19.567 -8.10385
287 3 0 7.11529 21.3459 -6.26406
802 3 1.77882 10.6729 19.567 -6.22545
1050 1 3.55764 8.89411 19.567 -8.36489
1305 1 0 10.6729 21.3459 -8.19647
1303 2 3.55764 7.11529 21.3459 -6.92748
2305 2 3.55764 10.6729 21.3459 -6.89302
3800 1 1.77882 7.11529 19.567 -8.12982
801 3 5.33646 7.11529 19.567 -6.45782
1553 2 5.33646 8.89411 21.3459 -6.94674
1802 1 5.33646 10.6729 19.567 -8.53262
291 2 10.6729 10.6729 21.3459 -6.88048
1801 2 8.89411 7.11529 19.567 -6.85324
2051 3 7.11529 8.89411 19.567 -6.45386
2303 3 7.11529 7.11529 21.3459 -6.41141
2554 3 8.89411 8.89411 21.3459 -6.20444
2801 1 8.89411 10.6729 19.567 -8.54289
3051 1 10.6729 8.89411 19.567 -8.4131
3305 1 7.11529 10.6729 21.3459 -8.35407
3303 3 10.6729 7.11529 21.3459 -6.3244
2800 1 12.4518 7.11529 19.567 -8.56778
3554 3 12.4518 8.89411 21.3459 -6.29485
3802 3 12.4518 10.6729 19.567 -6.34907
507 2 16.0094 8.89411 21.3459 -7.10303
159 2 17.7882 8.89411 19.567 -7.07612
35 3 14.2306 8.89411 19.567 -6.54857
413 2 17.7882 7.11529 21.3459 -7.07133
289 3 14.2306 7.11529 21.3459 -6.60145
803 2 16.0094 10.6729 19.567 -7.00874
1415 2 17.7882 10.6729 21.3459 -6.99718
1307 2 14.2306 10.6729 21.3459 -7.04951
3801 3 16.0094 7.11529 19.567 -6.75716
1051 1 0 12.4518 19.567 -8.28875
1555 1 1.77882 12.4518 21.3459 -8.32465
2052 3 3.55764 12.4518 19.567 -6.38202
2556 3 5.33646 12.4518 21.3459 -6.28267
36 3 10.6729 12.4518 19.567 -6.26106
3052 3 7.11529 12.4518 19.567 -6.23436
3556 3 8.89411 12.4518 21.3459 -6.37476
509 1 12.4518 12.4518 21.3459 -8.47894
1161 3 17.7882 12.4518 19.567 -6.4315
1052 3 14.2306 12.4518 19.567 -6.24825
1557 1 16.0094 12.4518 21.3459 -8.47891
346 1 0 17.7882 21.3459 -8.42914
1347 2 3.55764 17.7882 21.3459 -6.94174
1803 3 1.77882 14.2306 19.567 -6.39295
2053 2 0 16.0094 19.567 -6.98245
2307 1 0 14.2306 21.3459 -8.32098
2558 1 1.77882 16.0094 21.3459 -8.36283
3053 2 3.55764 16.0094 19.567 -6.94936
3307 1 3.55764 14.2306 21.3459 -8.56351
3860 3 1.77882 17.7882 19.567 -6.36201
846 3 5.33646 17.7882 19.567 -6.50732
2802 2 5.33646 14.2306 19.567 -6.95503
3558 2 5.33646 16.0094 21.3459 -7.03597
511 3 8.89411 16.0094 21.3459 -6.22934
37 1 7.11529 16.0094 19.567 -8.39364
293 1 7.11529 14.2306 21.3459 -8.46963
1053 1 10.6729 16.0094 19.567 -8.41485
1309 3 10.6729 14.2306 21.3459 -6.32715
1862 1 8.89411 17.7882 19.567 -8.44353
2362 2 7.11529 17.7882 21.3459 -7.02459
3362 2 10.6729 17.7882 21.3459 -7.01286
3803 2 8.89411 14.2306 19.567 -6.8525
804 1 12.4518 14.2306 19.567 -8.38534
1559 1 12.4518 16.0094 21.3459 -8.36097
2861 2 12.4518 17.7882 19.567 -6.88592
472 2 17.7882 17.7882 21.3459 -6.95721
350 2 14.2306 17.7882 21.3459 -6.98415
1804 3 16.0094 14.2306 19.567 -6.45861
2162 2 17.7882 16.0094 19.567 -6.90933
2054 3 14.2306 16.0094 19.567 -6.34679
2418 1 17.7882 14.2306 21.3459 -8.59436