ITEM: TIMESTEP
0
ITEM: NUMBER OF ATOMS
4000
ITEM: BOX BOUNDS pp pp pp
0.0000000000000000e+00 3.6097780000000000e+01
0.0000000000000000e+00 3.6097780000000000e+01
0.0000000000000000e+00 3.6097780000000000e+01
ITEM: ATOMS id type x y z c_peratom
267 1 0 0 0 -8.44821
516 2 1.80489 1.80489 0 -7.01264
767 3 1.80489 0 1.80489 -6.54991
1016 2 0 1.80489 1.80489 -7.02684
1267 2 0 0 3.60978 -7.00099
1517 2 1.80489 1.80489 3.60978 -6.98609
1268 3 3.60978 0 0 -6.36472
1518 1 5.41467 1.80489 0 -8.25569
1767 1 5.41467 0 1.80489 -8.17273
2017 1 3.60978 1.80489 1.80489 -8.09149
2266 3 3.60978 0 3.60978 -6.346
2517 1 5.41467 1.80489 3.60978 -8.02534
1 3 10.8293 1.80489 1.80489 -6.38175
268 2 10.8293 0 3.60978 -7.00903
2267 3 7.21956 0 0 -6.29039
2518 1 9.02445 1.80489 0 -8.35714
2766 2 9.02445 0 1.80489 -6.90621
3017 3 7.21956 1.80489 1.80489 -6.36022
3266 1 7.21956 0 3.60978 -7.99922
3267 1 10.8293 0 0 -7.98793
3517 3 9.02445 1.80489 3.60978 -6.43459
269 3 14.4391 0 0 -6.18912
517 2 12.6342 1.80489 3.60978 -7.0737
1017 1 14.4391 1.80489 1.80489 -7.91511
1269 3 14.4391 0 3.60978 -6.28658
3518 1 12.6342 1.80489 0 -7.96461
3767 1 12.6342 0 1.80489 -8.31443
518 1 16.244 1.80489 0 -8.06084
768 1 16.244 0 1.80489 -7.95601
1519 1 16.244 1.80489 3.60978 -7.95681
1270 2 0 3.60978 0 -7.00587
1520 2 1.80489 5.41467 0 -7.10638
1768 1 1.80489 3.60978 1.80489 -8.08159
2018 1 0 5.41467 1.80489 -8.14212
2268 3 0 3.60978 3.60978 -6.54629
2519 2 1.80489 5.41467 3.60978 -6.96025
2269 1 3.60978 3.60978 0 -8.06551
2520 3 5.41467 5.41467 0 -6.55789
2767 2 5.41467 3.60978 1.80489 -7.02172
3018 2 3.60978 5.41467 1.80489 -7.0413
3268 1 3.60978 3.60978 3.60978 -8.00212
3519 2 5.41467 5.41467 3.60978 -6.94509
2 1 7.21956 5.41467 1.80489 -8.28279
271 2 10.8293 3.60978 0 -6.97715
270 3 7.21956 3.60978 3.60978 -6.36691
519 1 9.02445 5.41467 3.60978 -8.36901
1018 3 10.8293 5.41467 1.80489 -6.45859
1271 1 10.8293 3.60978 3.60978 -8.37688
3269 2 7.21956 3.60978 0 -7.04241
3520 2 9.02445 5.41467 0 -6.96525
3768 3 9.02445 3.60978 1.80489 -6.41972
520 3 12.6342 5.41467 0 -6.42682
769 1 12.6342 3.60978 1.80489 -8.14484
1272 1 14.4391 3.60978 0 -7.93147
1521 2 12.6342 5.41467 3.60978 -6.94714
2019 2 14.4391 5.41467 1.80489 -6.92517
2270 2 14.4391 3.60978 3.60978 -7.00532
1522 2 16.244 5.41467 0 -7.03485
1769 1 16.244 3.60978 1.80489 -8.14274
2521 3 16.244 5.41467 3.60978 -6.43527
274 1 0 10.8293 3.60978 -8.32212
2271 1 0 7.21956 0 -8.22954
2522 2 1.80489 9.02445 0 -7.03481
2768 2 1.80489 7.21956 1.80489 -7.12679
3019 2 0 9.02445 1.80489 -6.97899
3273 2 0 10.8293 0 -6.9778
3270 1 0 7.21956 3.60978 -8.38831
3521 3 1.80489 9.02445 3.60978 -6.40458
3770 3 1.80489 10.8293 1.80489 -6.4021
3 2 3.60978 9.02445 1.80489 -6.96623
275 1 3.60978 10.8293 0 -8.25293
272 3 3.60978 7.21956 3.60978 -6.54438
521 1 5.41467 9.02445 3.60978 -8.1484
771 2 5.41467 10.8293 1.80489 -7.03933
1275 1 3.60978 10.8293 3.60978 -8.13122
3271 3 3.60978 7.21956 0 -6.6468
3522 1 5.41467 9.02445 0 -8.15833
3769 3 5.41467 7.21956 1.80489 -6.42076
273 1 7.21956 7.21956 0 -8.0973
522 1 9.02445 9.02445 0 -8.25645
770 1 9.02445 7.21956 1.80489 -8.1186
1019 1 7.21956 9.02445 1.80489 -8.01247
1276 2 7.21956 10.8293 0 -7.04613
1274 2 10.8293 7.21956 0 -6.92524
1273 3 7.21956 7.21956 3.60978 -6.33076
1523 2 9.02445 9.02445 3.60978 -6.92737
1771 1 9.02445 10.8293 1.80489 -8.24765
2020 3 10.8293 9.02445 1.80489 -6.43895
2275 3 10.8293 10.8293 0 -6.47288
2274 2 7.21956 10.8293 3.60978 -7.08531
2272 3 10.8293 7.21956 3.60978 -6.43341
3274 1 10.8293 10.8293 3.60978 -8.10414
276 1 14.4391 10.8293 3.60978 -8.26066
1524 3 12.6342 9.02445 0 -6.50768
1770 3 12.6342 7.21956 1.80489 -6.5407
2273 3 14.4391 7.21956 0 -6.52356
2523 2 12.6342 9.02445 3.60978 -6.90641
2770 3 12.6342 10.8293 1.80489 -6.37276
3020 1 14.4391 9.02445 1.80489 -8.25954
3275 1 14.4391 10.8293 0 -8.25852
3272 1 14.4391 7.21956 3.60978 -8.41161
2524 2 16.244 9.02445 0 -7.03048
2769 3 16.244 7.21956 1.80489 -6.49649
3523 3 16.244 9.02445 3.60978 -6.29384
3771 1 16.244 10.8293 1.80489 -8.13921
4 1 0 12.6342 1.80489 -7.9331
277 1 0 14.4391 0 -8.04347
523 2 1.80489 12.6342 3.60978 -7.0341
772 1 1.80489 14.4391 1.80489 -8.0115
1277 1 0 14.4391 3.60978 -8.07735
3524 2 1.80489 12.6342 0 -7.04068
524 3 5.41467 12.6342 0 -6.5154
1020 1 3.60978 12.6342 1.80489 -8.04794
1278 2 3.60978 14.4391 0 -6.91692
1525 2 5.41467 12.6342 3.60978 -7.05161
1772 1 5.41467 14.4391 1.80489 -8.27015
2276 2 3.60978 14.4391 3.60978 -7.04002
278 2 10.8293 14.4391 3.60978 -7.04743
1526 3 9.02445 12.6342 0 -6.47247
2021 3 7.21956 12.6342 1.80489 -6.53636
2277 3 7.21956 14.4391 0 -6.51925
2525 2 9.02445 12.6342 3.60978 -7.08306
2771 3 9.02445 14.4391 1.80489 -6.61505
3021 3 10.8293 12.6342 1.80489 -6.45779
3277 1 10.8293 14.4391 0 -8.17644
3276 3 7.21956 14.4391 3.60978 -6.54251
5 3 14.4391 12.6342 1.80489 -6.4544
279 3 14.4391 14.4391 0 -6.55468
1279 3 14.4391 14.4391 3.60978 -6.53663
2526 2 12.6342 12.6342 0 -6.94151
3525 1 12.6342 12.6342 3.60978 -8.33593
3772 2 12.6342 14.4391 1.80489 -6.96886
525 3 16.244 12.6342 3.60978 -6.37216
773 3 16.244 14.4391 1.80489 -6.57307
3526 2 16.244 12.6342 0 -6.97539
526 2 1.80489 16.244 0 -7.015
1021 2 0 16.244 1.80489 -7.07573
1527 1 1.80489 16.244 3.60978 -8.09464
1528 1 5.41467 16.244 0 -8.3658
2022 3 3.60978 16.244 1.80489 -6.39302
2527 2 5.41467 16.244 3.60978 -6.95756
6 1 10.8293 16.244 1.80489 -8.36387
2528 2 9.02445 16.244 0 -7.03923
3022 2 7.21956 16.244 1.80489 -6.97711
3527 2 9.02445 16.244 3.60978 -7.03732
527 3 12.6342 16.244 3.60978 -6.61015
1022 2 14.4391 16.244 1.80489 -6.9291
3528 3 12.6342 16.244 0 -6.44572
528 3 16.244 16.244 0 -6.5385
1529 3 16.244 16.244 3.60978 -6.4152
1773 3 1.80489 0 5.41467 -6.44603
2023 2 0 1.80489 5.41467 -7.05009
2278 3 0 0 7.21956 -6.47981
2529 2 1.80489 1.80489 7.21956 -6.89071
2773 3 3.60978 0 7.21956 -6.31885
2772 1 5.41467 0 5.41467 -8.18196
3024 1 5.41467 1.80489 7.21956 -8.04101
3023 1 3.60978 1.80489 5.41467 -8.15039
7 1 7.21956 1.80489 5.41467 -8.04869
1023 2 10.8293 1.80489 5.41467 -7.06332
3278 2 7.21956 0 7.21956 -7.04205
3529 1 9.02445 1.80489 7.21956 -8.05072
3774 2 10.8293 0 7.21956 -7.01415
3773 1 9.02445 0 5.41467 -8.16879
8 3 12.6342 1.80489 7.21956 -6.56078
280 3 14.4391 0 7.21956 -6.52709
774 2 12.6342 0 5.41467 -7.05433
2024 2 14.4391 1.80489 5.41467 -7.02661
529 2 16.244 1.80489 7.21956 -7.07152
1774 1 16.244 0 5.41467 -8.16367
775 3 0 3.60978 7.21956 -6.66754
1024 2 1.80489 5.41467 7.21956 -6.94134
2774 3 1.80489 3.60978 5.41467 -6.51257
3025 3 0 5.41467 5.41467 -6.51494
9 1 3.60978 5.41467 5.41467 -8.34828
1280 1 3.60978 3.60978 7.21956 -8.07734
1530 2 5.41467 5.41467 7.21956 -6.99996
3775 3 5.41467 3.60978 5.41467 -6.34797
776 2 9.02445 3.60978 5.41467 -6.9283
1025 3 7.21956 5.41467 5.41467 -6.532
1775 2 7.21956 3.60978 7.21956 -7.03282
2026 3 10.8293 5.41467 5.41467 -6.37561
2025 3 9.02445 5.41467 7.21956 -6.40353
2279 1 10.8293 3.60978 7.21956 -8.32317
1776 3 12.6342 3.60978 5.41467 -6.51267
2530 3 12.6342 5.41467 7.21956 -6.29053
2776 3 14.4391 3.60978 7.21956 -6.41053
3026 1 14.4391 5.41467 5.41467 -8.29766
2775 1 16.244 3.60978 5.41467 -8.19689
3027 3 16.244 5.41467 7.21956 -6.2682
10 3 0 9.02445 5.41467 -6.36557
779 3 1.80489 10.8293 5.41467 -6.38811
1778 3 0 10.8293 7.21956 -6.41987
3279 1 0 7.21956 7.21956 -8.34245
3530 3 1.80489 9.02445 7.21956 -6.44935
3776 3 1.80489 7.21956 5.41467 -6.42293
11 3 5.41467 9.02445 7.21956 -6.42472
777 2 5.41467 7.21956 5.41467 -6.92408
1026 1 3.60978 9.02445 5.41467 -8.39099
1779 1 5.41467 10.8293 5.41467 -8.07577
2280 2 3.60978 10.8293 7.21956 -6.97718
3777 3 3.60978 7.21956 7.21956 -6.39547
281 3 7.21956 7.21956 7.21956 -6.37402
530 1 9.02445 9.02445 7.21956 -8.23011
778 1 10.8293 7.21956 7.21956 -8.33644
1777 3 9.02445 7.21956 5.41467 -6.33916
2027 1 7.21956 9.02445 5.41467 -8.18467
2779 3 7.21956 10.8293 7.21956 -6.4376
2778 1 9.02445 10.8293 5.41467 -7.99769
3028 1 10.8293 9.02445 5.41467 -8.08364
3280 1 10.8293 10.8293 7.21956 -7.97902
12 3 14.4391 9.02445 5.41467 -6.3118
1027 2 12.6342 9.02445 7.21956 -6.97641
1281 1 14.4391 7.21956 7.21956 -8.25173
2777 3 12.6342 7.21956 5.41467 -6.33407
3780 1 14.4391 10.8293 7.21956 -8.34015
3779 1 12.6342 10.8293 5.41467 -7.92653
780 3 16.244 10.8293 5.41467 -6.40652
1531 2 16.244 9.02445 7.21956 -6.99775
3778 3 16.244 7.21956 5.41467 -6.46138
282 2 0 14.4391 7.21956 -7.14239
1028 2 0 12.6342 5.41467 -7.02001
1780 2 1.80489 14.4391 5.41467 -7.09801
2028 1 1.80489 12.6342 7.21956 -8.17636
781 3 3.60978 14.4391 7.21956 -6.36076
2029 1 3.60978 12.6342 5.41467 -8.24428
2531 3 5.41467 12.6342 7.21956 -6.31815
2780 3 5.41467 14.4391 5.41467 -6.31709
13 2 10.8293 12.6342 5.41467 -7.0958
1282 1 7.21956 14.4391 7.21956 -7.90095
1781 1 10.8293 14.4391 7.21956 -8.09644
3030 2 9.02445 12.6342 7.21956 -7.0641
3029 1 7.21956 12.6342 5.41467 -8.17889
3781 2 9.02445 14.4391 5.41467 -7.12726
782 3 12.6342 14.4391 5.41467 -6.54583
1029 3 14.4391 12.6342 5.41467 -6.34307
2281 2 14.4391 14.4391 7.21956 -6.96245
3531 1 12.6342 12.6342 7.21956 -8.03996
14 3 16.244 12.6342 7.21956 -6.48974
1782 1 16.244 14.4391 5.41467 -8.50108
531 2 1.80489 16.244 7.21956 -7.03909
2030 2 0 16.244 5.41467 -7.0286
1030 1 5.41467 16.244 7.21956 -8.18735
3031 1 3.60978 16.244 5.41467 -8.15763
15 1 7.21956 16.244 5.41467 -8.14924
1031 2 10.8293 16.244 5.41467 -7.08161
1532 1 9.02445 16.244 7.21956 -8.12884
2032 2 14.4391 16.244 5.41467 -6.97221
2031 2 12.6342 16.244 7.21956 -6.97808
2532 3 16.244 16.244 7.21956 -6.43441
16 3 0 1.80489 12.6342 -6.64359
2781 1 1.80489 0 9.02445 -8.34935
3032 1 0 1.80489 9.02445 -8.41288
3281 2 0 0 10.8293 -6.84791
3532 3 1.80489 1.80489 10.8293 -6.50591
3782 3 1.80489 0 12.6342 -6.57647
251 2 3.60978 0 10.8293 -6.93837
532 1 5.41467 1.80489 10.8293 -8.08425
783 1 5.41467 0 12.6342 -8.39874
1032 2 3.60978 1.80489 12.6342 -6.99646
3282 1 5.41467 0 9.02445 -8.32641
3533 3 3.60978 1.80489 9.02445 -6.31589
17 2 7.21956 1.80489 9.02445 -6.9792
533 2 10.8293 1.80489 9.02445 -7.01834
1283 3 7.21956 0 10.8293 -6.40689
1533 3 9.02445 1.80489 10.8293 -6.60356
1783 2 9.02445 0 12.6342 -6.9587
2033 3 7.21956 1.80489 12.6342 -6.44344
2282 2 10.8293 0 10.8293 -6.97384
3033 3 10.8293 1.80489 12.6342 -6.64339
3783 3 9.02445 0 9.02445 -6.54162
252 1 12.6342 0 9.02445 -8.30937
18 1 14.4391 1.80489 12.6342 -8.10166
1033 2 14.4391 1.80489 9.02445 -6.98777
2533 1 12.6342 1.80489 10.8293 -8.19165
2782 3 12.6342 0 12.6342 -6.59883
3283 3 14.4391 0 10.8293 -6.50979
784 2 16.244 0 9.02445 -7.09589
3534 1 16.244 1.80489 10.8293 -8.36137
3784 2 16.244 0 12.6342 -7.04738
253 3 0 3.60978 10.8293 -6.62876
534 2 1.80489 5.41467 10.8293 -6.95949
785 2 1.80489 3.60978 12.6342 -7.05058
1034 3 0 5.41467 12.6342 -6.6498
1284 3 1.80489 3.60978 9.02445 -6.43143
1534 3 0 5.41467 9.02445 -6.53761
1285 1 3.60978 3.60978 10.8293 -8.18077
1535 1 5.41467 5.41467 10.8293 -8.13934
1785 1 5.41467 3.60978 12.6342 -8.24224
1784 1 5.41467 3.60978 9.02445 -7.94588
2035 3 3.60978 5.41467 12.6342 -6.55248
2034 1 3.60978 5.41467 9.02445 -8.00832
19 2 10.8293 5.41467 12.6342 -7.09118
2284 3 7.21956 3.60978 10.8293 -6.35012
2283 1 9.02445 3.60978 9.02445 -8.2382
2535 3 9.02445 5.41467 10.8293 -6.55044
2534 1 7.21956 5.41467 9.02445 -8.24831
2783 3 9.02445 3.60978 12.6342 -6.55619
3035 3 10.8293 5.41467 9.02445 -6.39089
3034 2 7.21956 5.41467 12.6342 -6.88844
3284 2 10.8293 3.60978 10.8293 -7.04162
254 2 14.4391 3.60978 10.8293 -7.12425
1035 1 14.4391 5.41467 12.6342 -8.11302
2784 1 12.6342 3.60978 9.02445 -8.17602
3536 1 14.4391 5.41467 9.02445 -8.17614
3535 2 12.6342 5.41467 10.8293 -7.12582
3785 2 12.6342 3.60978 12.6342 -7.09963
535 2 16.244 5.41467 10.8293 -7.06736
786 2 16.244 3.60978 12.6342 -7.10552
3285 3 16.244 3.60978 9.02445 -6.51745
20 2 0 9.02445 9.02445 -7.0088
1286 1 0 7.21956 10.8293 -8.15576
1536 1 1.80489 9.02445 10.8293 -8.29053
1786 2 1.80489 7.21956 12.6342 -7.03638
2036 3 0 9.02445 12.6342 -6.52303
2287 2 0 10.8293 10.8293 -7.05048
2286 3 1.80489 10.8293 9.02445 -6.48458
2786 2 1.80489 10.8293 12.6342 -7.00077
3786 1 1.80489 7.21956 9.02445 -8.11551
255 1 5.41467 7.21956 9.02445 -8.30995
536 2 3.60978 9.02445 9.02445 -7.01627
2285 2 3.60978 7.21956 10.8293 -7.02374
2536 2 5.41467 9.02445 10.8293 -7.0346
2787 2 5.41467 10.8293 9.02445 -7.07795
2785 3 5.41467 7.21956 12.6342 -6.5504
3036 3 3.60978 9.02445 12.6342 -6.60539
3287 2 3.60978 10.8293 10.8293 -7.05089
3788 3 5.41467 10.8293 12.6342 -6.53641
256 2 10.8293 7.21956 10.8293 -7.04223
257 3 7.21956 10.8293 10.8293 -6.66506
21 2 7.21956 9.02445 12.6342 -6.93824
789 3 9.02445 10.8293 12.6342 -6.50864
787 3 9.02445 7.21956 9.02445 -6.41669
1037 2 10.8293 9.02445 12.6342 -6.97625
1036 3 7.21956 9.02445 9.02445 -6.5049
1289 3 10.8293 10.8293 10.8293 -6.49676
1537 3 10.8293 9.02445 9.02445 -6.42653
3288 2 9.02445 10.8293 9.02445 -6.99388
3286 3 7.21956 7.21956 10.8293 -6.44931
3537 1 9.02445 9.02445 10.8293 -8.57256
3787 3 9.02445 7.21956 12.6342 -6.53755
537 3 12.6342 9.02445 10.8293 -6.51262
788 2 12.6342 7.21956 12.6342 -7.10874
1288 2 14.4391 7.21956 10.8293 -7.07552
1287 1 12.6342 7.21956 9.02445 -8.2414
1789 3 12.6342 10.8293 12.6342 -6.36348
2038 1 14.4391 9.02445 12.6342 -8.05303
2037 2 14.4391 9.02445 9.02445 -7.01587
2288 1 14.4391 10.8293 10.8293 -8.06957
3789 2 12.6342 10.8293 9.02445 -7.0839
258 3 16.244 10.8293 9.02445 -6.44551
1538 1 16.244 9.02445 10.8293 -8.04539
1788 1 16.244 7.21956 12.6342 -7.98582
1787 1 16.244 7.21956 9.02445 -8.06542
2788 1 16.244 10.8293 12.6342 -7.87724
790 2 1.80489 14.4391 9.02445 -7.04004
2538 3 1.80489 12.6342 10.8293 -6.53932
2537 1 0 12.6342 9.02445 -8.29616
3037 2 0 12.6342 12.6342 -7.03552
3289 2 0 14.4391 10.8293 -7.02319
3790 1 1.80489 14.4391 12.6342 -8.18234
259 1 3.60978 14.4391 10.8293 -8.08181
22 3 3.60978 12.6342 12.6342 -6.44361
791 2 5.41467 14.4391 12.6342 -6.89284
1290 1 5.41467 14.4391 9.02445 -8.04654
3038 1 3.60978 12.6342 9.02445 -8.22799
3538 2 5.41467 12.6342 10.8293 -7.04032
23 1 10.8293 12.6342 9.02445 -8.01651
538 2 9.02445 12.6342 10.8293 -6.9942
1038 3 7.21956 12.6342 12.6342 -6.42205
1291 1 7.21956 14.4391 10.8293 -8.26678
1791 3 9.02445 14.4391 12.6342 -6.44266
1790 1 9.02445 14.4391 9.02445 -7.94884
2039 2 10.8293 12.6342 12.6342 -6.92943
2290 1 10.8293 14.4391 10.8293 -8.05694
3539 2 7.21956 12.6342 9.02445 -7.06708
539 1 14.4391 12.6342 9.02445 -8.12694
1539 1 12.6342 12.6342 10.8293 -8.0528
2289 3 12.6342 14.4391 9.02445 -6.30546
2789 1 12.6342 14.4391 12.6342 -8.04903
3039 2 14.4391 12.6342 12.6342 -6.98434
3290 2 14.4391 14.4391 10.8293 -7.02221
2539 1 16.244 12.6342 10.8293 -8.15822
2790 3 16.244 14.4391 9.02445 -6.43219
3791 2 16.244 14.4391 12.6342 -7.08459
24 3 0 16.244 12.6342 -6.52632
1039 2 0 16.244 9.02445 -7.0449
3540 1 1.80489 16.244 10.8293 -8.37587
540 1 5.41467 16.244 10.8293 -8.22773
1040 3 3.60978 16.244 12.6342 -6.52269
1540 2 3.60978 16.244 9.02445 -7.01225
1541 3 9.02445 16.244 10.8293 -6.26445
2041 3 7.21956 16.244 12.6342 -6.44304
2040 3 7.21956 16.244 9.02445 -6.27298
2540 1 10.8293 16.244 9.02445 -8.086
3040 2 10.8293 16.244 12.6342 -6.87613
25 1 14.4391 16.244 12.6342 -8.05204
2541 1 12.6342 16.244 10.8293 -8.07289
3041 2 14.4391 16.244 9.02445 -7.00532
3541 1 16.244 16.244 10.8293 -8.05936
260 1 0 0 14.4391 -8.2954
541 3 1.80489 1.80489 14.4391 -6.60529
792 1 1.80489 0 16.244 -8.26397
1041 3 0 1.80489 16.244 -6.52735
1292 3 3.60978 0 14.4391 -6.47282
1542 3 5.41467 1.80489 14.4391 -6.51167
1792 2 5.41467 0 16.244 -6.99378
2042 3 3.60978 1.80489 16.244 -6.64892
26 1 10.8293 1.80489 16.244 -8.07823
2291 2 7.21956 0 14.4391 -6.96588
2542 2 9.02445 1.80489 14.4391 -6.99651
2791 1 9.02445 0 16.244 -8.2627
3042 3 7.21956 1.80489 16.244 -6.49954
3291 3 10.8293 0 14.4391 -6.51232
261 2 14.4391 0 14.4391 -7.06162
1042 3 14.4391 1.80489 16.244 -6.59084
3542 2 12.6342 1.80489 14.4391 -6.95371
3792 1 12.6342 0 16.244 -8.19284
542 1 16.244 1.80489 14.4391 -8.14036
793 1 16.244 0 16.244 -8.14086
1293 2 0 3.60978 14.4391 -7.1397
1543 2 1.80489 5.41467 14.4391 -7.13647
1793 2 1.80489 3.60978 16.244 -7.02866
2043 2 0 5.41467 16.244 -7.1081
2292 3 3.60978 3.60978 14.4391 -6.62346
2543 3 5.41467 5.41467 14.4391 -6.44405
2792 2 5.41467 3.60978 16.244 -6.89629
3043 3 3.60978 5.41467 16.244 -6.5701
262 3 10.8293 3.60978 14.4391 -6.44276
27 1 7.21956 5.41467 16.244 -8.05173
1043 1 10.8293 5.41467 16.244 -8.04838
3292 1 7.21956 3.60978 14.4391 -8.23374
3543 1 9.02445 5.41467 14.4391 -8.08875
3793 1 9.02445 3.60978 16.244 -7.98216
543 1 12.6342 5.41467 14.4391 -8.18349
794 3 12.6342 3.60978 16.244 -6.46653
1294 2 14.4391 3.60978 14.4391 -7.08845
2044 3 14.4391 5.41467 16.244 -6.45805
1544 1 16.244 5.41467 14.4391 -8.161
1794 2 16.244 3.60978 16.244 -7.07795
2293 2 0 7.21956 14.4391 -7.02463
2544 3 1.80489 9.02445 14.4391 -6.57917
2793 1 1.80489 7.21956 16.244 -8.38903
3044 3 0 9.02445 16.244 -6.41412
3294 2 0 10.8293 14.4391 -6.93826
3795 1 1.80489 10.8293 16.244 -8.19787
264 1 3.60978 10.8293 14.4391 -8.35297
28 2 3.60978 9.02445 16.244 -7.04154
796 3 5.41467 10.8293 16.244 -6.49507
3293 2 3.60978 7.21956 14.4391 -6.98222
3544 3 5.41467 9.02445 14.4391 -6.47131
3794 1 5.41467 7.21956 16.244 -8.37872
263 1 7.21956 7.21956 14.4391 -8.35981
544 3 9.02445 9.02445 14.4391 -6.54221
795 2 9.02445 7.21956 16.244 -6.98022
1044 3 7.21956 9.02445 16.244 -6.51005
1296 1 7.21956 10.8293 14.4391 -8.39033
1295 2 10.8293 7.21956 14.4391 -7.09259
1796 2 9.02445 10.8293 16.244 -6.99549
2045 1 10.8293 9.02445 16.244 -8.23183
2295 3 10.8293 10.8293 14.4391 -6.46292
1545 1 12.6342 9.02445 14.4391 -7.98957
1795 1 12.6342 7.21956 16.244 -8.06665
2294 2 14.4391 7.21956 14.4391 -7.03238
2795 1 12.6342 10.8293 16.244 -8.02394
3045 1 14.4391 9.02445 16.244 -8.14794
3295 1 14.4391 10.8293 14.4391 -7.96272
2545 3 16.244 9.02445 14.4391 -6.19099
2794 3 16.244 7.21956 16.244 -6.37948
3796 2 16.244 10.8293 16.244 -7.00015
265 1 0 14.4391 14.4391 -8.23483
29 3 0 12.6342 16.244 -6.44886
797 3 1.80489 14.4391 16.244 -6.48824
3545 1 1.80489 12.6342 14.4391 -8.15982
545 1 5.41467 12.6342 14.4391 -8.28436
1045 2 3.60978 12.6342 16.244 -6.99859
1297 2 3.60978 14.4391 14.4391 -6.93199
1797 1 5.41467 14.4391 16.244 -8.2527
1546 1 9.02445 12.6342 14.4391 -8.38824
2046 3 7.21956 12.6342 16.244 -6.38472
2296 3 7.21956 14.4391 14.4391 -6.41391
2796 1 9.02445 14.4391 16.244 -8.23571
3046 2 10.8293 12.6342 16.244 -6.97172
3296 3 10.8293 14.4391 14.4391 -6.47882
266 1 14.4391 14.4391 14.4391 -8.03739
30 1 14.4391 12.6342 16.244 -8.06603
2546 3 12.6342 12.6342 14.4391 -6.36789
3797 3 12.6342 14.4391 16.244 -6.45798
798 1 16.244 14.4391 16.244 -8.12398
3546 1 16.244 12.6342 14.4391 -7.87972
546 2 1.80489 16.244 14.4391 -6.96961
1046 1 0 16.244 16.244 -8.20429
1547 3 5.41467 16.244 14.4391 -6.56213
2047 3 3.60978 16.244 16.244 -6.63927
31 2 10.8293 16.244 16.244 -6.89303
2547 3 9.02445 16.244 14.4391 -6.4773
3047 1 7.21956 16.244 16.244 -8.47378
1047 2 14.4391 16.244 16.244 -7.03353
3547 3 12.6342 16.244 14.4391 -6.47239
547 1 16.244 16.244 14.4391 -7.92598
1298 2 0 0 18.0489 -7.05407
1548 2 1.80489 1.80489 18.0489 -7.02308
1798 1 1.80489 0 19.8538 -8.21962
2048 3 0 1.80489 19.8538 -6.49802
2297 2 0 0 21.6587 -7.05298
2548 2 1.80489 1.80489 21.6587 -7.0767
2298 2 3.60978 0 18.0489 -7.08509
2549 3 5.41467 1.80489 18.0489 -6.55588
2797 1 5.41467 0 19.8538 -8.18559
3048 2 3.60978 1.80489 19.8538 -7.0694
3297 2 3.60978 0 21.6587 -7.03285
3548 2 5.41467 1.80489 21.6587 -7.015
501 3 9.02445 1.80489 21.6587 -6.5443
32 1 7.21956 1.80489 19.8538 -8.33502
284 2 10.8293 0 18.0489 -7.07926
283 3 7.21956 0 21.6587 -6.48193
1048 3 10.8293 1.80489 19.8538 -6.6012
1299 3 10.8293 0 21.6587 -6.67871
3298 2 7.21956 0 18.0489 -6.94582
3549 2 9.02445 1.80489 18.0489 -7.0525
3798 3 9.02445 0 19.8538 -6.60295
502 2 12.6342 1.80489 18.0489 -7.02891
799 2 12.6342 0 19.8538 -7.07751
1300 2 14.4391 0 18.0489 -7.02608
1549 2 12.6342 1.80489 21.6587 -7.04259
2049 1 14.4391 1.80489 19.8538 -8.19522
2299 1 14.4391 0 21.6587 -8.1349
1550 2 16.244 1.80489 18.0489 -7.00198
1799 3 16.244 0 19.8538 -6.38757
2550 1 16.244 1.80489 21.6587 -8.0933
2300 1 0 3.60978 18.0489 -8.11361
2551 1 1.80489 5.41467 18.0489 -8.10804
2798 1 1.80489 3.60978 19.8538 -8.16675
3049 1 0 5.41467 19.8538 -7.9846
3299 3 0 3.60978 21.6587 -6.47636
3550 3 1.80489 5.41467 21.6587 -6.37543
503 1 5.41467 5.41467 21.6587 -8.30507
33 3 3.60978 5.41467 19.8538 -6.32434
285 1 3.60978 3.60978 21.6587 -8.35491
3300 2 3.60978 3.60978 18.0489 -7.00962
3551 3 5.41467 5.41467 18.0489 -6.46887
3799 3 5.41467 3.60978 19.8538 -6.46818
504 3 9.02445 5.41467 18.0489 -6.45804
286 1 7.21956 3.60978 18.0489 -8.31686
800 2 9.02445 3.60978 19.8538 -6.91957
1049 3 7.21956 5.41467 19.8538 -6.48548
1302 1 10.8293 3.60978 18.0489 -8.26868
1301 3 7.21956 3.60978 21.6587 -6.48087
1551 3 9.02445 5.41467 21.6587 -6.47339
2050 2 10.8293 5.41467 19.8538 -6.97112
2301 1 10.8293 3.60978 21.6587 -8.39725
1552 3 12.6342 5.41467 18.0489 -6.4167
1800 2 12.6342 3.60978 19.8538 -6.98
2302 3 14.4391 3.60978 18.0489 -6.49593
2552 3 12.6342 5.41467 21.6587 -6.38083
3050 1 14.4391 5.41467 19.8538 -8.17204
3301 1 14.4391 3.60978 21.6587 -7.95899
2553 1 16.244 5.41467 18.0489 -8.43048
2799 3 16.244 3.60978 19.8538 -6.4053
3552 1 16.244 5.41467 21.6587 -8.16942
505 1 1.80489 9.02445 21.6587 -8.38832
34 2 0 9.02445 19.8538 -7.08685
290 2 0 10.8293 18.0489 -7.08092
287 1 0 7.21956 21.6587 -8.13945
802 2 1.80489 10.8293 19.8538 -7.02623
1305 3 0 10.8293 21.6587 -6.68632
3302 3 0 7.21956 18.0489 -6.26841
3553 2 1.80489 9.02445 18.0489 -7.03581
3800 1 1.80489 7.21956 19.8538 -8.19898
506 3 5.41467 9.02445 18.0489 -6.62994
288 2 3.60978 7.21956 18.0489 -6.98729
801 1 5.41467 7.21956 19.8538 -8.52761
1050 2 3.60978 9.02445 19.8538 -7.07654
1306 2 3.60978 10.8293 18.0489 -7.09669
1303 3 3.60978 7.21956 21.6587 -6.37646
1553 3 5.41467 9.02445 21.6587 -6.44298
1802 2 5.41467 10.8293 19.8538 -6.97689
2305 3 3.60978 10.8293 21.6587 -6.51263
291 2 10.8293 10.8293 21.6587 -7.04467
1304 2 7.21956 7.21956 18.0489 -6.93303
1554 3 9.02445 9.02445 18.0489 -6.56718
1801 2 9.02445 7.21956 19.8538 -6.95965
2051 3 7.21956 9.02445 19.8538 -6.47702
2306 2 7.21956 10.8293 18.0489 -7.03626
2304 2 10.8293 7.21956 18.0489 -7.04177
2303 3 7.21956 7.21956 21.6587 -6.3343
2554 1 9.02445 9.02445 21.6587 -8.02818
2801 1 9.02445 10.8293 19.8538 -8.13423
3051 1 10.8293 9.02445 19.8538 -8.1079
3306 2 10.8293 10.8293 18.0489 -7.07775
3305 1 7.21956 10.8293 21.6587 -8.14108
3303 3 10.8293 7.21956 21.6587 -6.39816
35 2 14.4391 9.02445 19.8538 -6.92457
292 1 14.4391 10.8293 18.0489 -8.12312
289 2 14.4391 7.21956 21.6587 -6.97589
1307 1 14.4391 10.8293 21.6587 -8.26108
2555 2 12.6342 9.02445 18.0489 -7.12472
2800 1 12.6342 7.21956 19.8538 -8.31618
3304 2 14.4391 7.21956 18.0489 -6.97515
3554 3 12.6342 9.02445 21.6587 -6.44192
3802 1 12.6342 10.8293 19.8538 -7.97842
507 3 16.244 9.02445 21.6587 -6.50384
803 3 16.244 10.8293 19.8538 -6.45805
3555 3 16.244 9.02445 18.0489 -6.39804
3801 3 16.244 7.21956 19.8538 -6.4253
508 1 1.80489 12.6342 18.0489 -8.4183
1051 3 0 12.6342 19.8538 -6.7151
1308 2 0 14.4391 18.0489 -6.988
1555 3 1.80489 12.6342 21.6587 -6.68785
1803 2 1.80489 14.4391 19.8538 -7.06322
2307 2 0 14.4391 21.6587 -7.11252
1556 1 5.41467 12.6342 18.0489 -8.44181
2052 3 3.60978 12.6342 19.8538 -6.47948
2308 3 3.60978 14.4391 18.0489 -6.47132
2556 1 5.41467 12.6342 21.6587 -8.22195
2802 3 5.41467 14.4391 19.8538 -6.47675
3307 1 3.60978 14.4391 21.6587 -8.13494
36 1 10.8293 12.6342 19.8538 -8.16307
294 1 10.8293 14.4391 18.0489 -8.23324
293 3 7.21956 14.4391 21.6587 -6.61828
1309 2 10.8293 14.4391 21.6587 -6.95748
2557 2 9.02445 12.6342 18.0489 -7.04041
3052 2 7.21956 12.6342 19.8538 -7.0257
3308 3 7.21956 14.4391 18.0489 -6.50454
3556 2 9.02445 12.6342 21.6587 -7.01251
3803 3 9.02445 14.4391 19.8538 -6.61132
509 2 12.6342 12.6342 21.6587 -7.06288
804 3 12.6342 14.4391 19.8538 -6.53796
1052 1 14.4391 12.6342 19.8538 -8.28149
1310 2 14.4391 14.4391 18.0489 -7.02723
2309 3 14.4391 14.4391 21.6587 -6.39346
3557 2 12.6342 12.6342 18.0489 -7.09084
510 2 16.244 12.6342 18.0489 -7.06779
1557 3 16.244 12.6342 21.6587 -6.39426
1804 2 16.244 14.4391 19.8538 -6.95322
1558 2 1.80489 16.244 18.0489 -6.97082
2053 2 0 16.244 19.8538 -7.07298
2558 1 1.80489 16.244 21.6587 -8.00652
2559 2 5.41467 16.244 18.0489 -6.87935
3053 1 3.60978 16.244 19.8538 -8.353
3558 3 5.41467 16.244 21.6587 -6.50988
511 3 9.02445 16.244 21.6587 -6.5662
37 2 7.21956 16.244 19.8538 -6.96769
1053 3 10.8293 16.244 19.8538 -6.59234
3559 3 9.02445 16.244 18.0489 -6.55216
512 1 12.6342 16.244 18.0489 -8.32603
1559 3 12.6342 16.244 21.6587 -6.50938
2054 2 14.4391 16.244 19.8538 -7.03215
1560 3 16.244 16.244 18.0489 -6.50087
2560 1 16.244 16.244 21.6587 -8.04554
47 2 0 1.80489 27.0733 -7.15632
2803 1 1.80489 0 23.4636 -8.28891
3054 2 0 1.80489 23.4636 -7.02556
3309 2 0 0 25.2684 -7.08608
3560 2 1.80489 1.80489 25.2684 -7.11202
3813 2 1.80489 0 27.0733 -7.0648
549 3 3.60978 1.80489 27.0733 -6.46977
39 3 5.41467 1.80489 25.2684 -6.3889
38 2 3.60978 1.80489 23.4636 -7.04756
299 1 5.41467 0 27.0733 -8.31074
3805 1 3.60978 0 25.2684 -8.10853
3804 1 5.41467 0 23.4636 -8.20052
513 2 9.02445 1.80489 25.2684 -7.01382
295 3 7.21956 0 25.2684 -6.58321
752 3 9.02445 0 27.0733 -6.63303
806 1 10.8293 0 25.2684 -8.2637
805 2 9.02445 0 23.4636 -7.01544
1064 3 7.21956 1.80489 27.0733 -6.43658
1054 2 7.21956 1.80489 23.4636 -6.96679
1565 2 10.8293 1.80489 27.0733 -6.95997
2055 3 10.8293 1.80489 23.4636 -6.41338
1055 3 12.6342 1.80489 25.2684 -6.33148
1315 1 12.6342 0 27.0733 -8.36267
1311 2 14.4391 0 25.2684 -7.03018
1805 1 12.6342 0 23.4636 -8.289
2065 2 14.4391 1.80489 27.0733 -7.05316
3055 2 14.4391 1.80489 23.4636 -7.08147
1561 1 16.244 1.80489 25.2684 -8.14561
1815 1 16.244 0 27.0733 -8.10771
2804 3 16.244 0 23.4636 -6.35149
40 2 0 5.41467 23.4636 -7.02329
1806 3 0 3.60978 25.2684 -6.68038
2056 3 1.80489 5.41467 25.2684 -6.52494
2314 2 1.80489 3.60978 27.0733 -7.06839
2565 2 0 5.41467 27.0733 -7.08942
3806 3 1.80489 3.60978 23.4636 -6.6004
807 3 5.41467 3.60978 23.4636 -6.41636
1056 3 3.60978 5.41467 23.4636 -6.39894
2310 1 3.60978 3.60978 25.2684 -8.42975
2561 3 5.41467 5.41467 25.2684 -6.33479
2814 2 5.41467 3.60978 27.0733 -6.92517
3065 1 3.60978 5.41467 27.0733 -8.17729
50 1 10.8293 5.41467 27.0733 -8.09782
1807 3 9.02445 3.60978 23.4636 -6.43999
2057 1 7.21956 5.41467 23.4636 -8.23868
2805 1 7.21956 3.60978 25.2684 -8.31814
3057 2 10.8293 5.41467 23.4636 -6.90103
3056 2 9.02445 5.41467 25.2684 -7.04762
3314 1 9.02445 3.60978 27.0733 -8.04966
3310 1 10.8293 3.60978 25.2684 -8.18053
3565 2 7.21956 5.41467 27.0733 -7.01478
552 1 14.4391 5.41467 27.0733 -8.30903
41 1 14.4391 5.41467 23.4636 -8.15054
2806 1 12.6342 3.60978 23.4636 -8.01937
3561 1 12.6342 5.41467 25.2684 -7.98308
3816 3 12.6342 3.60978 27.0733 -6.37222
3808 1 14.4391 3.60978 25.2684 -8.01306
42 2 16.244 5.41467 25.2684 -7.00608
302 2 16.244 3.60978 27.0733 -7.06148
3807 1 16.244 3.60978 23.4636 -7.87235
514 1 1.80489 9.02445 25.2684 -8.33903
296 2 0 7.21956 25.2684 -7.05664
808 3 1.80489 7.21956 23.4636 -6.49412
755 1 1.80489 7.21956 27.0733 -8.10251
1067 2 0 9.02445 27.0733 -7.06022
1057 3 0 9.02445 23.4636 -6.5403
1810 3 1.80489 10.8293 23.4636 -6.5757
2808 3 0 10.8293 25.2684 -6.62358
3317 1 1.80489 10.8293 27.0733 -8.16248
809 3 3.60978 7.21956 25.2684 -6.44057
1058 3 5.41467 9.02445 25.2684 -6.41769
1318 3 5.41467 7.21956 27.0733 -6.38844
1568 2 3.60978 9.02445 27.0733 -6.91503
1808 3 5.41467 7.21956 23.4636 -6.39932
2058 3 3.60978 9.02445 23.4636 -6.42575
2809 1 5.41467 10.8293 23.4636 -8.42505
3311 2 3.60978 10.8293 25.2684 -6.93446
3819 1 5.41467 10.8293 27.0733 -8.17144
43 1 10.8293 9.02445 23.4636 -8.10779
305 1 9.02445 10.8293 27.0733 -8.09151
297 1 10.8293 10.8293 25.2684 -7.97731
1312 1 7.21956 7.21956 25.2684 -8.2681
1562 2 9.02445 9.02445 25.2684 -7.02698
1818 2 9.02445 7.21956 27.0733 -7.07122
1809 3 10.8293 7.21956 25.2684 -6.26945
2068 1 7.21956 9.02445 27.0733 -8.12899
2568 1 10.8293 9.02445 27.0733 -7.92389
2807 1 9.02445 7.21956 23.4636 -8.20614
3058 3 7.21956 9.02445 23.4636 -6.30222
3811 2 7.21956 10.8293 25.2684 -6.87591
3810 1 9.02445 10.8293 23.4636 -8.21769
812 2 14.4391 10.8293 25.2684 -7.07567
811 2 12.6342 10.8293 23.4636 -7.00258
758 1 12.6342 10.8293 27.0733 -7.881
1059 2 14.4391 9.02445 23.4636 -7.07173
2059 1 12.6342 9.02445 25.2684 -8.08477
2317 1 12.6342 7.21956 27.0733 -7.94951
2311 2 14.4391 7.21956 25.2684 -7.07391
3068 2 14.4391 9.02445 27.0733 -7.078
3809 3 12.6342 7.21956 23.4636 -6.40082
810 3 16.244 7.21956 23.4636 -6.49474
1321 1 16.244 10.8293 27.0733 -8.012
1811 1 16.244 10.8293 23.4636 -8.25199
2562 2 16.244 9.02445 25.2684 -7.14636
2817 3 16.244 7.21956 27.0733 -6.62719
1313 2 0 14.4391 25.2684 -7.05223
1821 1 1.80489 14.4391 27.0733 -7.99844
2060 2 0 12.6342 23.4636 -7.12967
2810 2 1.80489 14.4391 23.4636 -7.09501
3059 3 1.80489 12.6342 25.2684 -6.52027
3568 2 0 12.6342 27.0733 -7.05396
53 1 3.60978 12.6342 27.0733 -7.99536
1812 1 3.60978 14.4391 25.2684 -8.16103
2320 1 5.41467 14.4391 27.0733 -8.16677
3060 2 3.60978 12.6342 23.4636 -6.98236
3562 3 5.41467 12.6342 25.2684 -6.42781
3812 2 5.41467 14.4391 23.4636 -7.00834
555 2 7.21956 12.6342 27.0733 -6.93761
45 3 9.02445 12.6342 25.2684 -6.46702
44 3 7.21956 12.6342 23.4636 -6.5008
813 3 9.02445 14.4391 23.4636 -6.60957
1070 3 10.8293 12.6342 27.0733 -6.36472
1060 3 10.8293 12.6342 23.4636 -6.44146
2312 2 7.21956 14.4391 25.2684 -7.00868
2820 3 9.02445 14.4391 27.0733 -6.57192
2811 3 10.8293 14.4391 25.2684 -6.41765
515 1 12.6342 12.6342 25.2684 -8.18657
1571 1 14.4391 12.6342 27.0733 -8.17413
1813 1 12.6342 14.4391 23.4636 -8.18527
2061 2 14.4391 12.6342 23.4636 -6.99513
3320 3 12.6342 14.4391 27.0733 -6.45981
3312 3 14.4391 14.4391 25.2684 -6.34697
1061 2 16.244 12.6342 25.2684 -7.09229
2812 1 16.244 14.4391 23.4636 -8.2891
3822 2 16.244 14.4391 27.0733 -6.98419
1563 2 1.80489 16.244 25.2684 -7.13351
2071 1 0 16.244 27.0733 -8.03207
3061 1 0 16.244 23.4636 -8.06861
46 1 3.60978 16.244 23.4636 -8.07266