ITEM: TIMESTEP
0
ITEM: NUMBER OF ATOMS
4000
ITEM: BOX BOUNDS pp pp pp
0.0000000000000000e+00 3.5907429999999998e+01
0.0000000000000000e+00 3.5907429999999998e+01
0.0000000000000000e+00 3.5907429999999998e+01
ITEM: ATOMS id type x y z c_peratom
267 1 0 0 0 -8.11243
516 3 1.79537 1.79537 0 -6.28074
767 3 1.79537 0 1.79537 -6.36642
1016 1 0 1.79537 1.79537 -8.24674
1267 3 0 0 3.59074 -6.37808
1268 1 3.59074 0 0 -8.50826
1270 1 0 3.59074 0 -8.0839
1517 2 1.79537 1.79537 3.59074 -6.95399
1768 2 1.79537 3.59074 1.79537 -7.10881
2017 3 3.59074 1.79537 1.79537 -6.55738
2266 1 3.59074 0 3.59074 -8.64176
2268 2 0 3.59074 3.59074 -7.01709
2269 2 3.59074 3.59074 0 -7.08629
3268 2 3.59074 3.59074 3.59074 -6.99756
1518 2 5.38611 1.79537 0 -7.04978
1767 3 5.38611 0 1.79537 -6.46709
2517 3 5.38611 1.79537 3.59074 -6.61638
2767 3 5.38611 3.59074 1.79537 -6.66952
1 1 10.7722 1.79537 1.79537 -8.21934
268 2 10.7722 0 3.59074 -7.02628
270 3 7.18149 3.59074 3.59074 -6.52476
271 1 10.7722 3.59074 0 -8.08615
1271 1 10.7722 3.59074 3.59074 -8.08502
2267 1 7.18149 0 0 -8.48473
2518 3 8.97686 1.79537 0 -6.44993
2766 2 8.97686 0 1.79537 -6.96411
3017 3 7.18149 1.79537 1.79537 -6.578
3266 2 7.18149 0 3.59074 -6.96489
3269 2 7.18149 3.59074 0 -7.02945
3267 3 10.7722 0 0 -6.46669
3517 1 8.97686 1.79537 3.59074 -8.18864
3768 2 8.97686 3.59074 1.79537 -7.01717
517 3 12.5676 1.79537 3.59074 -6.35134
769 1 12.5676 3.59074 1.79537 -8.05215
3518 2 12.5676 1.79537 0 -6.96224
3767 2 12.5676 0 1.79537 -7.0496
269 1 14.363 0 0 -8.42049
376 1 17.9537 0 0 -8.1509
518 2 16.1583 1.79537 0 -7.07484
768 2 16.1583 0 1.79537 -7.08649
1017 2 14.363 1.79537 1.79537 -7.03503
1126 1 17.9537 1.79537 1.79537 -8.24193
1379 2 17.9537 3.59074 0 -7.04363
1376 1 17.9537 0 3.59074 -8.34143
1269 2 14.363 0 3.59074 -7.06275
1272 3 14.363 3.59074 0 -6.44942
1519 3 16.1583 1.79537 3.59074 -6.43901
1769 2 16.1583 3.59074 1.79537 -7.09042
2270 1 14.363 3.59074 3.59074 -8.18811
2393 2 17.9537 3.59074 3.59074 -7.03591
1520 2 1.79537 5.38611 0 -7.12444
2018 2 0 5.38611 1.79537 -7.01832
2519 1 1.79537 5.38611 3.59074 -8.26287
3018 2 3.59074 5.38611 1.79537 -7.07138
2520 2 5.38611 5.38611 0 -7.06379
3519 3 5.38611 5.38611 3.59074 -6.53736
2 1 7.18149 5.38611 1.79537 -8.28963
519 2 8.97686 5.38611 3.59074 -6.98278
1018 1 10.7722 5.38611 1.79537 -7.99223
3520 1 8.97686 5.38611 0 -8.06718
520 1 12.5676 5.38611 0 -8.02831
1521 1 12.5676 5.38611 3.59074 -8.24931
1522 3 16.1583 5.38611 0 -6.61663
2002 2 17.9537 5.38611 1.79537 -7.12078
2019 2 14.363 5.38611 1.79537 -7.03533
2521 2 16.1583 5.38611 3.59074 -7.11127
3 2 3.59074 8.97686 1.79537 -7.06612
272 2 3.59074 7.18149 3.59074 -6.95692
274 3 0 10.7722 3.59074 -6.76363
275 1 3.59074 10.7722 0 -8.28438
1275 1 3.59074 10.7722 3.59074 -8.39632
2271 2 0 7.18149 0 -7.06258
2522 3 1.79537 8.97686 0 -6.59145
2768 3 1.79537 7.18149 1.79537 -6.64563
3019 3 0 8.97686 1.79537 -6.64075
3273 3 0 10.7722 0 -6.62133
3271 3 3.59074 7.18149 0 -6.61811
3270 1 0 7.18149 3.59074 -8.32298
3521 3 1.79537 8.97686 3.59074 -6.60047
3770 2 1.79537 10.7722 1.79537 -6.9996
521 1 5.38611 8.97686 3.59074 -8.1156
771 1 5.38611 10.7722 1.79537 -8.24601
3522 2 5.38611 8.97686 0 -7.02039
3769 1 5.38611 7.18149 1.79537 -8.18945
273 1 7.18149 7.18149 0 -8.07634
522 2 8.97686 8.97686 0 -7.12888
770 2 8.97686 7.18149 1.79537 -7.16851
1019 2 7.18149 8.97686 1.79537 -7.126
1276 3 7.18149 10.7722 0 -6.66801
1274 1 10.7722 7.18149 0 -8.12381
1273 2 7.18149 7.18149 3.59074 -7.03001
1523 2 8.97686 8.97686 3.59074 -7.12338
1771 2 8.97686 10.7722 1.79537 -7.10325
2020 2 10.7722 8.97686 1.79537 -7.03449
2272 2 10.7722 7.18149 3.59074 -7.08919
2275 3 10.7722 10.7722 0 -6.56267
2274 2 7.18149 10.7722 3.59074 -7.02865
3274 1 10.7722 10.7722 3.59074 -8.31403
1524 1 12.5676 8.97686 0 -8.17209
1770 3 12.5676 7.18149 1.79537 -6.32534
2523 2 12.5676 8.97686 3.59074 -7.00851
2770 3 12.5676 10.7722 1.79537 -6.30658
383 1 17.9537 10.7722 3.59074 -8.3299
276 3 14.363 10.7722 3.59074 -6.24109
2273 1 14.363 7.18149 0 -8.25562
2396 3 17.9537 7.18149 0 -6.5879
2524 3 16.1583 8.97686 0 -6.41745
2769 2 16.1583 7.18149 1.79537 -7.01945
3144 1 17.9537 8.97686 1.79537 -8.57103
3020 1 14.363 8.97686 1.79537 -8.44383
3398 3 17.9537 10.7722 0 -6.39625
3395 3 17.9537 7.18149 3.59074 -6.51137
3275 1 14.363 10.7722 0 -8.02024
3272 2 14.363 7.18149 3.59074 -7.0439
3523 3 16.1583 8.97686 3.59074 -6.28567
3771 3 16.1583 10.7722 1.79537 -6.22714
4 3 0 12.5676 1.79537 -6.67504
523 2 1.79537 12.5676 3.59074 -7.09629
1020 2 3.59074 12.5676 1.79537 -7.05785
3524 2 1.79537 12.5676 0 -6.99154
524 2 5.38611 12.5676 0 -7.02768
1525 3 5.38611 12.5676 3.59074 -6.53197
1526 3 8.97686 12.5676 0 -6.47258
2021 2 7.18149 12.5676 1.79537 -6.94534
2525 3 8.97686 12.5676 3.59074 -6.50518
3021 1 10.7722 12.5676 1.79537 -8.32932
2526 1 12.5676 12.5676 0 -8.13494
3525 2 12.5676 12.5676 3.59074 -6.93504
5 1 14.363 12.5676 1.79537 -8.2599
129 3 17.9537 12.5676 1.79537 -6.40837
525 1 16.1583 12.5676 3.59074 -8.28279
3526 1 16.1583 12.5676 0 -8.35949
314 1 3.59074 17.9537 3.59074 -8.31176
277 3 0 14.363 0 -6.5192
526 2 1.79537 16.1583 0 -6.93913
772 1 1.79537 14.363 1.79537 -8.63306
1021 3 0 16.1583 1.79537 -6.63899
1278 3 3.59074 14.363 0 -6.47568
1277 2 0 14.363 3.59074 -6.98582
1527 3 1.79537 16.1583 3.59074 -6.51305
2022 3 3.59074 16.1583 1.79537 -6.5083
2328 3 0 17.9537 0 -6.55701
2276 2 3.59074 14.363 3.59074 -6.97287
2828 2 1.79537 17.9537 1.79537 -7.03609
3329 2 3.59074 17.9537 0 -6.98947
3328 2 0 17.9537 3.59074 -7.01989
1528 1 5.38611 16.1583 0 -8.52611
1772 3 5.38611 14.363 1.79537 -6.55708
2527 3 5.38611 16.1583 3.59074 -6.34736
3829 3 5.38611 17.9537 1.79537 -6.42933
6 2 10.7722 16.1583 1.79537 -7.03431
315 2 7.18149 17.9537 0 -6.99154
278 3 10.7722 14.363 3.59074 -6.60069
814 1 8.97686 17.9537 1.79537 -8.56014
1331 2 10.7722 17.9537 0 -7.04074
1330 3 7.18149 17.9537 3.59074 -6.46377
2329 2 10.7722 17.9537 3.59074 -7.05756
2277 3 7.18149 14.363 0 -6.42558
2528 3 8.97686 16.1583 0 -6.49087
2771 1 8.97686 14.363 1.79537 -8.48692
3022 3 7.18149 16.1583 1.79537 -6.42291
3277 2 10.7722 14.363 0 -7.05545
3276 1 7.18149 14.363 3.59074 -8.50992
3527 3 8.97686 16.1583 3.59074 -6.4808
527 2 12.5676 16.1583 3.59074 -7.10589
1830 3 12.5676 17.9537 1.79537 -6.5448
3528 1 12.5676 16.1583 0 -8.4668
3772 2 12.5676 14.363 1.79537 -7.02245
386 3 17.9537 14.363 0 -6.5467
279 2 14.363 14.363 0 -7.03385
528 3 16.1583 16.1583 0 -6.55244
773 2 16.1583 14.363 1.79537 -6.90374
1131 3 17.9537 16.1583 1.79537 -6.45914
1022 3 14.363 16.1583 1.79537 -6.5705
1386 3 17.9537 14.363 3.59074 -6.42151
1279 3 14.363 14.363 3.59074 -6.51956
1529 2 16.1583 16.1583 3.59074 -6.88115
2438 1 17.9537 17.9537 0 -8.51226
2330 3 14.363 17.9537 0 -6.38673
2829 1 16.1583 17.9537 1.79537 -8.53042
3453 3 17.9537 17.9537 3.59074 -6.44412
3330 3 14.363 17.9537 3.59074 -6.46243
775 2 0 3.59074 7.18149 -6.91835
1280 3 3.59074 3.59074 7.18149 -6.4573
1773 1 1.79537 0 5.38611 -8.14074
2023 3 0 1.79537 5.38611 -6.46806
2278 1 0 0 7.18149 -8.06258
2529 1 1.79537 1.79537 7.18149 -8.3736
2774 3 1.79537 3.59074 5.38611 -6.46226
2773 2 3.59074 0 7.18149 -7.00035
3023 3 3.59074 1.79537 5.38611 -6.54701
2772 3 5.38611 0 5.38611 -6.68151
3024 3 5.38611 1.79537 7.18149 -6.74292
3775 3 5.38611 3.59074 5.38611 -6.63482
7 2 7.18149 1.79537 5.38611 -7.05568
776 1 8.97686 3.59074 5.38611 -8.40804
1023 2 10.7722 1.79537 5.38611 -6.97546
1775 2 7.18149 3.59074 7.18149 -7.10824
2279 3 10.7722 3.59074 7.18149 -6.42803
3278 2 7.18149 0 7.18149 -7.09161
3529 2 8.97686 1.79537 7.18149 -7.02906
3774 1 10.7722 0 7.18149 -7.9971
3773 1 8.97686 0 5.38611 -8.15335
8 2 12.5676 1.79537 7.18149 -6.98745
774 1 12.5676 0 5.38611 -8.16359
1776 3 12.5676 3.59074 5.38611 -6.40346
280 2 14.363 0 7.18149 -7.06593
529 1 16.1583 1.79537 7.18149 -8.35092
884 3 17.9537 3.59074 7.18149 -6.5444
1774 3 16.1583 0 5.38611 -6.47548
2024 1 14.363 1.79537 5.38611 -8.24193
2007 3 17.9537 1.79537 5.38611 -6.56788
2403 2 17.9537 0 7.18149 -7.00702
2776 2 14.363 3.59074 7.18149 -6.99493
2775 1 16.1583 3.59074 5.38611 -8.17217
9 1 3.59074 5.38611 5.38611 -8.45581
1024 3 1.79537 5.38611 7.18149 -6.4524
3025 1 0 5.38611 5.38611 -8.34048
1530 2 5.38611 5.38611 7.18149 -6.95587
1025 3 7.18149 5.38611 5.38611 -6.62965
2026 3 10.7722 5.38611 5.38611 -6.47529
2025 3 8.97686 5.38611 7.18149 -6.56443
2530 1 12.5676 5.38611 7.18149 -8.33851
3150 1 17.9537 5.38611 5.38611 -8.25273
3027 2 16.1583 5.38611 7.18149 -6.93063
3026 2 14.363 5.38611 5.38611 -7.00946
10 3 0 8.97686 5.38611 -6.63869
779 2 1.79537 10.7722 5.38611 -7.0987
1026 2 3.59074 8.97686 5.38611 -7.00076
1778 2 0 10.7722 7.18149 -7.098
2280 2 3.59074 10.7722 7.18149 -7.06341
3279 3 0 7.18149 7.18149 -6.63583
3530 3 1.79537 8.97686 7.18149 -6.72916
3777 1 3.59074 7.18149 7.18149 -8.26492
3776 2 1.79537 7.18149 5.38611 -6.98427
11 1 5.38611 8.97686 7.18149 -8.35646
777 3 5.38611 7.18149 5.38611 -6.44113
1779 3 5.38611 10.7722 5.38611 -6.51827
281 3 7.18149 7.18149 7.18149 -6.45252
530 1 8.97686 8.97686 7.18149 -8.19126
778 2 10.7722 7.18149 7.18149 -6.94738
1777 3 8.97686 7.18149 5.38611 -6.56927
2027 1 7.18149 8.97686 5.38611 -8.28806
2779 3 7.18149 10.7722 7.18149 -6.40871
2778 2 8.97686 10.7722 5.38611 -6.9988
3028 3 10.7722 8.97686 5.38611 -6.45476
3280 1 10.7722 10.7722 7.18149 -8.01715
1027 1 12.5676 8.97686 7.18149 -8.10419
2777 2 12.5676 7.18149 5.38611 -7.04991
3779 1 12.5676 10.7722 5.38611 -8.08913
12 1 14.363 8.97686 5.38611 -8.03721
135 3 17.9537 8.97686 5.38611 -6.40925
780 1 16.1583 10.7722 5.38611 -8.05837
1281 1 14.363 7.18149 7.18149 -8.09738
1531 1 16.1583 8.97686 7.18149 -8.23521
1887 1 17.9537 10.7722 7.18149 -8.23373
3404 3 17.9537 7.18149 7.18149 -6.51433
3780 1 14.363 10.7722 7.18149 -8.08645
3778 1 16.1583 7.18149 5.38611 -8.26948
1028 3 0 12.5676 5.38611 -6.69372
2029 2 3.59074 12.5676 5.38611 -7.06994
2028 1 1.79537 12.5676 7.18149 -8.4866
2531 3 5.38611 12.5676 7.18149 -6.6295
13 2 10.7722 12.5676 5.38611 -7.06258
3030 1 8.97686 12.5676 7.18149 -8.16319
3029 3 7.18149 12.5676 5.38611 -6.46302
3531 1 12.5676 12.5676 7.18149 -8.3622
14 1 16.1583 12.5676 7.18149 -8.20971
1138 2 17.9537 12.5676 5.38611 -7.05932
1029 3 14.363 12.5676 5.38611 -6.26517
326 2 0 17.9537 7.18149 -6.9734
282 2 0 14.363 7.18149 -7.00836
531 2 1.79537 16.1583 7.18149 -6.97092
821 3 3.59074 17.9537 7.18149 -6.30464
781 3 3.59074 14.363 7.18149 -6.51839
1780 2 1.79537 14.363 5.38611 -7.04555
2030 3 0 16.1583 5.38611 -6.5002
3031 1 3.59074 16.1583 5.38611 -8.2695
3835 1 1.79537 17.9537 5.38611 -8.49352
820 1 5.38611 17.9537 5.38611 -8.34772
1030 1 5.38611 16.1583 7.18149 -8.2382
2780 3 5.38611 14.363 5.38611 -6.40051
15 1 7.18149 16.1583 5.38611 -8.34079
1031 3 10.7722 16.1583 5.38611 -6.59189
1342 3 7.18149 17.9537 7.18149 -6.37912
1282 1 7.18149 14.363 7.18149 -8.2211
1532 3 8.97686 16.1583 7.18149 -6.29334
1837 1 10.7722 17.9537 7.18149 -8.46568
1836 3 8.97686 17.9537 5.38611 -6.53691
1781 2 10.7722 14.363 7.18149 -6.98086
3781 2 8.97686 14.363 5.38611 -6.94257
782 3 12.5676 14.363 5.38611 -6.56521
2031 1 12.5676 16.1583 7.18149 -8.4576
2835 2 12.5676 17.9537 5.38611 -6.96841
451 2 17.9537 17.9537 7.18149 -6.94798
391 2 17.9537 14.363 7.18149 -7.04055
1782 1 16.1583 14.363 5.38611 -8.32505
2032 2 14.363 16.1583 5.38611 -7.00528
2014 3 17.9537 16.1583 5.38611 -6.38452
2341 3 14.363 17.9537 7.18149 -6.37738
2281 2 14.363 14.363 7.18149 -6.93681
2532 1 16.1583 16.1583 7.18149 -8.41211
3836 1 16.1583 17.9537 5.38611 -8.37996
251 2 3.59074 0 10.7722 -7.04441
253 3 0 3.59074 10.7722 -6.38053
16 2 0 1.79537 12.5676 -6.88873
785 1 1.79537 3.59074 12.5676 -8.4015
1032 1 3.59074 1.79537 12.5676 -8.35234
1285 3 3.59074 3.59074 10.7722 -6.36242
1284 3 1.79537 3.59074 8.97686 -6.37461
2781 1 1.79537 0 8.97686 -8.2467
3032 1 0 1.79537 8.97686 -8.16114
3281 3 0 0 10.7722 -6.40783
3533 3 3.59074 1.79537 8.97686 -6.52345
3532 1 1.79537 1.79537 10.7722 -8.30753
3782 3 1.79537 0 12.5676 -6.54502
532 2 5.38611 1.79537 10.7722 -6.9887
783 2 5.38611 0 12.5676 -7.13
1785 3 5.38611 3.59074 12.5676 -6.39982
1784 3 5.38611 3.59074 8.97686 -6.59585
3282 2 5.38611 0 8.97686 -7.19632
17 2 7.18149 1.79537 8.97686 -7.09729
533 1 10.7722 1.79537 8.97686 -8.21238
1283 3 7.18149 0 10.7722 -6.68959
1533 1 8.97686 1.79537 10.7722 -8.39223
1783 2 8.97686 0 12.5676 -7.01961
2033 1 7.18149 1.79537 12.5676 -8.44591
2284 3 7.18149 3.59074 10.7722 -6.39585
2283 2 8.97686 3.59074 8.97686 -6.95337
2282 3 10.7722 0 10.7722 -6.43913
2783 1 8.97686 3.59074 12.5676 -8.2892
3033 3 10.7722 1.79537 12.5676 -6.39832
3284 3 10.7722 3.59074 10.7722 -6.30724
3783 3 8.97686 0 8.97686 -6.43987
252 2 12.5676 0 8.97686 -7.05234
2533 1 12.5676 1.79537 10.7722 -8.34611
2784 1 12.5676 3.59074 8.97686 -8.21899
2782 3 12.5676 0 12.5676 -6.35148
3785 3 12.5676 3.59074 12.5676 -6.43883
254 2 14.363 3.59074 10.7722 -7.00099
394 2 17.9537 3.59074 10.7722 -7.06243
141 2 17.9537 1.79537 12.5676 -7.09946
18 1 14.363 1.79537 12.5676 -8.15287
786 2 16.1583 3.59074 12.5676 -7.07337
784 2 16.1583 0 8.97686 -7.07838
1033 2 14.363 1.79537 8.97686 -7.01847
3157 2 17.9537 1.79537 8.97686 -7.04874
3406 3 17.9537 0 10.7722 -6.54937
3285 3 16.1583 3.59074 8.97686 -6.55158
3283 2 14.363 0 10.7722 -7.07014
3534 1 16.1583 1.79537 10.7722 -8.34955
3784 2 16.1583 0 12.5676 -7.13485
534 3 1.79537 5.38611 10.7722 -6.52531
1034 3 0 5.38611 12.5676 -6.53344
1534 2 0 5.38611 8.97686 -6.9528
2035 2 3.59074 5.38611 12.5676 -6.88926
2034 1 3.59074 5.38611 8.97686 -8.49081
1535 1 5.38611 5.38611 10.7722 -8.34337
19 2 10.7722 5.38611 12.5676 -6.98125
2535 1 8.97686 5.38611 10.7722 -8.19954
2534 2 7.18149 5.38611 8.97686 -7.024
3035 3 10.7722 5.38611 8.97686 -6.40114
3034 1 7.18149 5.38611 12.5676 -8.23027
3535 3 12.5676 5.38611 10.7722 -6.5154
535 3 16.1583 5.38611 10.7722 -6.56362
1144 2 17.9537 5.38611 12.5676 -7.05039
1035 1 14.363 5.38611 12.5676 -8.58039
1643 3 17.9537 5.38611 8.97686 -6.6287
3536 1 14.363 5.38611 8.97686 -8.32677
20 2 0 8.97686 8.97686 -7.07916
536 2 3.59074 8.97686 8.97686 -7.1258
1286 1 0 7.18149 10.7722 -8.61186
1536 3 1.79537 8.97686 10.7722 -6.53342
1786 2 1.79537 7.18149 12.5676 -6.88738
2036 3 0 8.97686 12.5676 -6.43906
2287 1 0 10.7722 10.7722 -8.34779
2286 2 1.79537 10.7722 8.97686 -7.07474
2285 2 3.59074 7.18149 10.7722 -7.03005
2786 1 1.79537 10.7722 12.5676 -8.31996
3036 1 3.59074 8.97686 12.5676 -8.37985
3287 3 3.59074 10.7722 10.7722 -6.52354
3786 2 1.79537 7.18149 8.97686 -7.0212
255 2 5.38611 7.18149 8.97686 -7.05357
2536 2 5.38611 8.97686 10.7722 -7.11036
2787 2 5.38611 10.7722 8.97686 -7.1147
2785 1 5.38611 7.18149 12.5676 -8.21258
3788 3 5.38611 10.7722 12.5676 -6.5516
256 2 10.7722 7.18149 10.7722 -7.01447
257 2 7.18149 10.7722 10.7722 -7.07841
21 2 7.18149 8.97686 12.5676 -6.99759
789 2 8.97686 10.7722 12.5676 -7.06146
787 1 8.97686 7.18149 8.97686 -8.3608
1037 1 10.7722 8.97686 12.5676 -8.13607
1036 3 7.18149 8.97686 8.97686 -6.46147
1289 1 10.7722 10.7722 10.7722 -7.98257
1537 1 10.7722 8.97686 8.97686 -7.94268
3288 1 8.97686 10.7722 8.97686 -8.11753
3286 2 7.18149 7.18149 10.7722 -7.10623
3537 3 8.97686 8.97686 10.7722 -6.37587
3787 1 8.97686 7.18149 12.5676 -8.2178
537 1 12.5676 8.97686 10.7722 -8.2246
788 2 12.5676 7.18149 12.5676 -7.03652
1287 2 12.5676 7.18149 8.97686 -6.99329
1789 3 12.5676 10.7722 12.5676 -6.20384
3789 3 12.5676 10.7722 8.97686 -6.13232
258 2 16.1583 10.7722 8.97686 -6.93412
145 3 17.9537 8.97686 8.97686 -6.41034
1395 1 17.9537 7.18149 10.7722 -8.69714
1288 2 14.363 7.18149 10.7722 -6.9559
1538 2 16.1583 8.97686 10.7722 -6.93487
1788 3 16.1583 7.18149 12.5676 -6.56874
1787 3 16.1583 7.18149 8.97686 -6.40435
2145 3 17.9537 8.97686 12.5676 -6.38871
2038 1 14.363 8.97686 12.5676 -8.39334
2037 3 14.363 8.97686 8.97686 -6.30579
2256 1 17.9537 10.7722 10.7722 -8.37613
2288 3 14.363 10.7722 10.7722 -6.38515
2788 1 16.1583 10.7722 12.5676 -8.17891
22 1 3.59074 12.5676 12.5676 -8.26397
2538 1 1.79537 12.5676 10.7722 -8.0094
2537 3 0 12.5676 8.97686 -6.51301
3038 2 3.59074 12.5676 8.97686 -7.03271
3037 2 0 12.5676 12.5676 -6.97184
3538 3 5.38611 12.5676 10.7722 -6.58762
23 2 10.7722 12.5676 8.97686 -7.03011
538 1 8.97686 12.5676 10.7722 -8.16833
1038 3 7.18149 12.5676 12.5676 -6.54903
2039 1 10.7722 12.5676 12.5676 -8.0365
3539 2 7.18149 12.5676 8.97686 -7.03346
1539 1 12.5676 12.5676 10.7722 -8.28921
539 3 14.363 12.5676 8.97686 -6.3049
2662 2 17.9537 12.5676 8.97686 -7.08597
2539 3 16.1583 12.5676 10.7722 -6.40102
3162 1 17.9537 12.5676 12.5676 -8.0846
3039 2 14.363 12.5676 12.5676 -6.97776
259 1 3.59074 14.363 10.7722 -8.32148
24 1 0 16.1583 12.5676 -8.01626
829 1 1.79537 17.9537 8.97686 -8.4396
790 2 1.79537 14.363 8.97686 -6.97383
1040 1 3.59074 16.1583 12.5676 -8.03887
1039 3 0 16.1583 8.97686 -6.37067
1251 3 0 17.9537 10.7722 -6.19186
1540 3 3.59074 16.1583 8.97686 -6.40447
1845 3 1.79537 17.9537 12.5676 -6.0563
2344 1 3.59074 17.9537 10.7722 -8.1471
3289 1 0 14.363 10.7722 -8.20732
3540 3 1.79537 16.1583 10.7722 -6.18218
3790 1 1.79537 14.363 12.5676 -7.93567
540 3 5.38611 16.1583 10.7722 -6.37049
791 2 5.38611 14.363 12.5676 -6.99199
1252 2 5.38611 17.9537 8.97686 -6.84909
1290 3 5.38611 14.363 8.97686 -6.41094
2844 1 5.38611 17.9537 12.5676 -8.30429
330 3 10.7722 17.9537 10.7722 -6.41304
1291 2 7.18149 14.363 10.7722 -6.97346
1541 3 8.97686 16.1583 10.7722 -6.29437
1846 1 8.97686 17.9537 8.97686 -8.4357
1791 3 8.97686 14.363 12.5676 -6.41833
1790 1 8.97686 14.363 8.97686 -8.11817
2041 2 7.18149 16.1583 12.5676 -7.00762
2040 1 7.18149 16.1583 8.97686 -8.32024
2290 3 10.7722 14.363 10.7722 -6.17361
2540 1 10.7722 16.1583 8.97686 -8.16227
3040 1 10.7722 16.1583 12.5676 -8.30731
3344 3 7.18149 17.9537 10.7722 -6.45087
3845 1 8.97686 17.9537 12.5676 -8.482
830 2 12.5676 17.9537 12.5676 -6.94992
2345 3 12.5676 17.9537 8.97686 -6.40581
2289 2 12.5676 14.363 8.97686 -6.95112
2541 1 12.5676 16.1583 10.7722 -8.27698
2789 1 12.5676 14.363 12.5676 -7.97286
149 3 17.9537 16.1583 12.5676 -6.25469
25 3 14.363 16.1583 12.5676 -6.23983
1149 2 17.9537 16.1583 8.97686 -7.02447
1253 3 14.363 17.9537 10.7722 -6.49276
1454 2 17.9537 17.9537 10.7722 -6.99853
1847 1 16.1583 17.9537 12.5676 -8.37561
2845 3 16.1583 17.9537 8.97686 -6.55867
2790 2 16.1583 14.363 8.97686 -7.03084
3041 3 14.363 16.1583 8.97686 -6.39536
3414 2 17.9537 14.363 10.7722 -7.00096
3290 1 14.363 14.363 10.7722 -8.26643
3541 3 16.1583 16.1583 10.7722 -6.48842
3791 1 16.1583 14.363 12.5676 -8.17268
260 2 0 0 14.363 -6.90946
541 1 1.79537 1.79537 14.363 -8.18232
792 3 1.79537 0 16.1583 -6.39687
1041 1 0 1.79537 16.1583 -8.52147
1298 2 0 0 17.9537 -6.97061
1293 2 0 3.59074 14.363 -6.98585
1292 2 3.59074 0 14.363 -7.04441
1548 3 1.79537 1.79537 17.9537 -6.47192
1793 2 1.79537 3.59074 16.1583 -6.86671
2042 1 3.59074 1.79537 16.1583 -8.32939
2300 3 0 3.59074 17.9537 -6.5073
2298 1 3.59074 0 17.9537 -8.3786
2292 3 3.59074 3.59074 14.363 -6.39724
3300 3 3.59074 3.59074 17.9537 -6.3892
1542 2 5.38611 1.79537 14.363 -7.00115
1792 2 5.38611 0 16.1583 -7.06493
2549 1 5.38611 1.79537 17.9537 -8.27063
2792 2 5.38611 3.59074 16.1583 -6.98836
262 2 10.7722 3.59074 14.363 -6.97851
286 3 7.18149 3.59074 17.9537 -6.67382
284 3 10.7722 0 17.9537 -6.3799
26 3 10.7722 1.79537 16.1583 -6.49376
1302 1 10.7722 3.59074 17.9537 -8.34183
2291 3 7.18149 0 14.363 -6.75739
2542 2 8.97686 1.79537 14.363 -7.01596
2791 3 8.97686 0 16.1583 -6.70575
3042 2 7.18149 1.79537 16.1583 -7.10745
3298 2 7.18149 0 17.9537 -7.00489
3292 3 7.18149 3.59074 14.363 -6.53889
3291 3 10.7722 0 14.363 -6.48726
3549 2 8.97686 1.79537 17.9537 -7.02809
3793 2 8.97686 3.59074 16.1583 -7.01382
502 2 12.5676 1.79537 17.9537 -6.95295
794 1 12.5676 3.59074 16.1583 -8.23961
3542 1 12.5676 1.79537 14.363 -8.32169
3792 1 12.5676 0 16.1583 -8.35729
261 1 14.363 0 14.363 -7.95793
401 2 17.9537 0 14.363 -7.085
542 1 16.1583 1.79537 14.363 -8.18796
793 2 16.1583 0 16.1583 -7.03258
1151 3 17.9537 1.79537 16.1583 -6.45094
1042 2 14.363 1.79537 16.1583 -6.99529
1407 2 17.9537 0 17.9537 -7.01386
1402 1 17.9537 3.59074 14.363 -8.26079
1300 3 14.363 0 17.9537 -6.39412
1294 3 14.363 3.59074 14.363 -6.39073
1550 2 16.1583 1.79537 17.9537 -7.01298
1794 1 16.1583 3.59074 16.1583 -8.33559
2410 3 17.9537 3.59074 17.9537 -6.44333
2302 1 14.363 3.59074 17.9537 -8.29834
1543 3 1.79537 5.38611 14.363 -6.47295
2043 1 0 5.38611 16.1583 -8.47659
2551 1 1.79537 5.38611 17.9537 -8.28573
3043 1 3.59074 5.38611 16.1583 -8.34644
2543 2 5.38611 5.38611 14.363 -6.96634
3551 3 5.38611 5.38611 17.9537 -6.51235
27 3 7.18149 5.38611 16.1583 -6.60484
504 3 8.97686 5.38611 17.9537 -6.62173
1043 1 10.7722 5.38611 16.1583 -8.29258
3543 3 8.97686 5.38611 14.363 -6.40228
543 2 12.5676 5.38611 14.363 -7.03692
1552 3 12.5676 5.38611 17.9537 -6.48583
1544 2 16.1583 5.38611 14.363 -7.05505
2152 2 17.9537 5.38611 16.1583 -6.99565
2044 3 14.363 5.38611 16.1583 -6.52469
2553 3 16.1583 5.38611 17.9537 -6.53791
264 3 3.59074 10.7722 14.363 -6.31795
290 2 0 10.7722 17.9537 -7.06534
288 3 3.59074 7.18149 17.9537 -6.36172
28 3 3.59074 8.97686 16.1583 -6.41795
1306 3 3.59074 10.7722 17.9537 -6.41776
2293 3 0 7.18149 14.363 -6.62575
2544 3 1.79537 8.97686 14.363 -6.4286
2793 2 1.79537 7.18149 16.1583 -6.92988
3044 2 0 8.97686 16.1583 -7.033
3302 2 0 7.18149 17.9537 -7.07863
3294 2 0 10.7722 14.363 -6.91471
3293 1 3.59074 7.18149 14.363 -8.23607
3553 3 1.79537 8.97686 17.9537 -6.59322
3795 1 1.79537 10.7722 16.1583 -8.46276
506 3 5.38611 8.97686 17.9537 -6.40866
796 3 5.38611 10.7722 16.1583 -6.45841
3544 3 5.38611 8.97686 14.363 -6.37618
3794 1 5.38611 7.18149 16.1583 -8.44963
263 3 7.18149 7.18149 14.363 -6.35344
544 2 8.97686 8.97686 14.363 -7.03021
795 3 8.97686 7.18149 16.1583 -6.53378
1044 1 7.18149 8.97686 16.1583 -8.56999
1304 2 7.18149 7.18149 17.9537 -6.97401
1296 3 7.18149 10.7722 14.363 -6.58016
1295 1 10.7722 7.18149 14.363 -8.31411
1554 2 8.97686 8.97686 17.9537 -7.10041
1796 2 8.97686 10.7722 16.1583 -7.0735
2045 2 10.7722 8.97686 16.1583 -6.97477
2306 2 7.18149 10.7722 17.9537 -6.98168
2304 2 10.7722 7.18149 17.9537 -6.98765
2295 1 10.7722 10.7722 14.363 -8.18057
3306 3 10.7722 10.7722 17.9537 -6.54895
1545 3 12.5676 8.97686 14.363 -6.39371
1795 2 12.5676 7.18149 16.1583 -6.98617
2555 1 12.5676 8.97686 17.9537 -8.52419
2795 3 12.5676 10.7722 16.1583 -6.40682
415 2 17.9537 10.7722 17.9537 -7.04953
292 2 14.363 10.7722 17.9537 -7.01264
2262 2 17.9537 7.18149 14.363 -6.99963
2294 2 14.363 7.18149 14.363 -7.02141
2545 2 16.1583 8.97686 14.363 -6.98598
2794 3 16.1583 7.18149 16.1583 -6.66494
3169 3 17.9537 8.97686 16.1583 -6.51857
3045 1 14.363 8.97686 16.1583 -8.51256
3427 2 17.9537 7.18149 17.9537 -7.06786
3419 1 17.9537 10.7722 14.363 -8.11053
3304 3 14.363 7.18149 17.9537 -6.58697
3295 3 14.363 10.7722 14.363 -6.34595
3555 3 16.1583 8.97686 17.9537 -6.69396
3796 2 16.1583 10.7722 16.1583 -7.0096
29 1 0 12.5676 16.1583 -8.29461
508 2 1.79537 12.5676 17.9537 -7.05493
1045 1 3.59074 12.5676 16.1583 -8.30796
3545 3 1.79537 12.5676 14.363 -6.17992
545 2 5.38611 12.5676 14.363 -6.9374
1556 1 5.38611 12.5676 17.9537 -8.46583
1546 1 8.97686 12.5676 14.363 -8.33106
2046 2 7.18149 12.5676 16.1583 -6.94907
2557 3 8.97686 12.5676 17.9537 -6.58506
3046 2 10.7722 12.5676 16.1583 -6.99066
2546 1 12.5676 12.5676 14.363 -8.23313
3557 1 12.5676 12.5676 17.9537 -8.46083
154 1 17.9537 12.5676 16.1583 -7.97744
30 2 14.363 12.5676 16.1583 -7.03302
510 1 16.1583 12.5676 17.9537 -8.25946
3546 1 16.1583 12.5676 14.363 -7.99119
265 1 0 14.363 14.363 -8.03249
346 1 3.59074 17.9537 17.9537 -8.29596
546 1 1.79537 16.1583 14.363 -7.95813
797 3 1.79537 14.363 16.1583 -6.38381
1046 2 0 16.1583 16.1583 -7.03378
1308 2 0 14.363 17.9537 -7.0406
1297 1 3.59074 14.363 14.363 -8.19889
1558 2 1.79537 16.1583 17.9537 -7.03594
2047 3 3.59074 16.1583 16.1583 -6.34535
2353 1 0 17.9537 14.363 -7.80842
2308 2 3.59074 14.363 17.9537 -7.02546
2853 1 1.79537 17.9537 16.1583 -8.05708
3359 3 0 17.9537 17.9537 -6.27108
3353 1 3.59074 17.9537 14.363 -8.0229
1547 2 5.38611 16.1583 14.363 -7.02639
1797 3 5.38611 14.363 16.1583 -6.49937
2559 2 5.38611 16.1583 17.9537 -6.97254
3854 1 5.38611 17.9537 16.1583 -8.34148
339 2 7.18149 17.9537 14.363 -7.03396
294 3 10.7722 14.363 17.9537 -6.58888
31 3 10.7722 16.1583 16.1583 -6.74344
839 2 8.97686 17.9537 16.1583 -7.11053
1261 2 10.7722 17.9537 14.363 -7.10351
1346 3 7.18149 17.9537 17.9537 -6.60914
2361 3 10.7722 17.9537 17.9537 -6.66012
2296 1 7.18149 14.363 14.363 -8.52892
2547 2 8.97686 16.1583 14.363 -7.06121
2796 3 8.97686 14.363 16.1583 -6.63826
3047 3 7.18149 16.1583 16.1583 -6.64965
3308 2 7.18149 14.363 17.9537 -6.98901
3296 2 10.7722 14.363 14.363 -7.02136
3559 2 8.97686 16.1583 17.9537 -7.02111
512 3 12.5676 16.1583 17.9537 -6.61777
1855 3 12.5676 17.9537 16.1583 -6.57837
3547 2 12.5676 16.1583 14.363 -7.01792
3797 2 12.5676 14.363 16.1583 -7.05086
266 1 14.363 14.363 14.363 -8.05256
406 2 17.9537 14.363 14.363 -7.0346
547 1 16.1583 16.1583 14.363 -8.06683
798 1 16.1583 14.363 16.1583 -8.01488
1156 2 17.9537 16.1583 16.1583 -7.0615
1047 2 14.363 16.1583 16.1583 -7.1127
1417 1 17.9537 14.363 17.9537 -8.29332
1310 2 14.363 14.363 17.9537 -7.03638
1560 2 16.1583 16.1583 17.9537 -7.03913
2463 3 17.9537 17.9537 14.363 -6.35387
2354 1 14.363 17.9537 14.363 -8.21946
2854 1 16.1583 17.9537 16.1583 -8.21903
3469 2 17.9537 17.9537 17.9537 -7.02291
3361 2 14.363 17.9537 17.9537 -6.99066
285 2 3.59074 3.59074 21.5445 -7.01458
1798 2 1.79537 0 19.7491 -6.96892
2048 3 0 1.79537 19.7491 -6.59485
2297 3 0 0 21.5445 -6.42031
2548 1 1.79537 1.79537 21.5445 -8.42508
2798 1 1.79537 3.59074 19.7491 -8.48135
3048 2 3.59074 1.79537 19.7491 -6.98085
3299 2 0 3.59074 21.5445 -6.94301
3297 3 3.59074 0 21.5445 -6.30076
2797 1 5.38611 0 19.7491 -8.07773
3548 1 5.38611 1.79537 21.5445 -8.31724
3799 2 5.38611 3.59074 19.7491 -6.99329
501 1 8.97686 1.79537 21.5445 -8.20611
32 2 7.18149 1.79537 19.7491 -7.04983
283 1 7.18149 0 21.5445 -7.92525
800 2 8.97686 3.59074 19.7491 -7.01365
1048 1 10.7722 1.79537 19.7491 -8.1248
1301 3 7.18149 3.59074 21.5445 -6.56228
1299 1 10.7722 0 21.5445 -8.19196
2301 2 10.7722 3.59074 21.5445 -6.95267
3798 1 8.97686 0 19.7491 -8.17309
799 1 12.5676 0 19.7491 -8.32486
1549 3 12.5676 1.79537 21.5445 -6.36763
1800 2 12.5676 3.59074 19.7491 -6.88994
1799 3 16.1583 0 19.7491 -6.56382
2157 2 17.9537 1.79537 19.7491 -6.9973
2049 3 14.363 1.79537 19.7491 -6.4816
2407 2 17.9537 0 21.5445 -6.99182
2299 2 14.363 0 21.5445 -6.96248
2550 2 16.1583 1.79537 21.5445 -6.99433
2799 1 16.1583 3.59074 19.7491 -8.444
3424 1 17.9537 3.59074 21.5445 -8.26536
3301 3 14.363 3.59074 21.5445 -6.46793
33 3 3.59074 5.38611 19.7491 -6.50104
3049 3 0 5.38611 19.7491 -6.58
3550 3 1.79537 5.38611 21.5445 -6.62193
503 2 5.38611 5.38611 21.5445 -7.01412
1049 3 7.18149 5.38611 19.7491 -6.67092
1551 3 8.97686 5.38611 21.5445 -6.62444
2050 3 10.7722 5.38611 19.7491 -6.64628
2552 3 12.5676 5.38611 21.5445 -6.52781
3174 2 17.9537 5.38611 19.7491 -7.00331
3050 3 14.363 5.38611 19.7491 -6.46038
3552 3 16.1583 5.38611 21.5445 -6.46123
505 2 1.79537 8.97686 21.5445 -7.05571
34 2 0 8.97686 19.7491 -7.16867
287 2 0 7.18149 21.5445 -7.138
802 2 1.79537 10.7722 19.7491 -7.03593
1050 1 3.59074 8.97686 19.7491 -8.45385
1305 3 0 10.7722 21.5445 -6.64354
1303 2 3.59074 7.18149 21.5445 -6.9373
2305 1 3.59074 10.7722 21.5445 -8.34251
3800 3 1.79537 7.18149 19.7491 -6.59689
801 1 5.38611 7.18149 19.7491 -8.54655
1553 3 5.38611 8.97686 21.5445 -6.26184
1802 3 5.38611 10.7722 19.7491 -6.32718
291 1 10.7722 10.7722 21.5445 -8.29617
1801 3 8.97686 7.18149 19.7491 -6.72507
2051 2 7.18149 8.97686 19.7491 -6.92184
2303 2 7.18149 7.18149 21.5445 -6.92705
2554 3 8.97686 8.97686 21.5445 -6.39381
2801 1 8.97686 10.7722 19.7491 -8.30929
3051 2 10.7722 8.97686 19.7491 -7.01065
3305 1 7.18149 10.7722 21.5445 -8.24646
3303 2 10.7722 7.18149 21.5445 -7.02519
2800 3 12.5676 7.18149 19.7491 -6.57301
3554 2 12.5676 8.97686 21.5445 -6.97614
3802 3 12.5676 10.7722 19.7491 -6.52232
507 3 16.1583 8.97686 21.5445 -6.59001
159 2 17.9537 8.97686 19.7491 -7.08486
35 3 14.363 8.97686 19.7491 -6.6091
412 3 17.9537 7.18149 21.5445 -6.67803
289 1 14.363 7.18149 21.5445 -8.55455
803 2 16.1583 10.7722 19.7491 -7.08652
1414 1 17.9537 10.7722 21.5445 -8.27143
1307 3 14.363 10.7722 21.5445 -6.70739
3801 2 16.1583 7.18149 19.7491 -6.98258
1051 3 0 12.5676 19.7491 -6.74477
1555 3 1.79537 12.5676 21.5445 -6.5608
2052 3 3.59074 12.5676 19.7491 -6.554
2556 1 5.38611 12.5676 21.5445 -8.22223
36 3 10.7722 12.5676 19.7491 -6.3603
3052 1 7.18149 12.5676 19.7491 -8.16421
3556 3 8.97686 12.5676 21.5445 -6.16803
509 3 12.5676 12.5676 21.5445 -6.47124
1161 2 17.9537 12.5676 19.7491 -6.98128
1052 2 14.363 12.5676 19.7491 -7.05248
1557 2 16.1583 12.5676 21.5445 -7.05398
345 2 0 17.9537 21.5445 -7.0396
1345 1 3.59074 17.9537 21.5445 -8.35535
1803 2 1.79537 14.363 19.7491 -7.08539
2053 1 0 16.1583 19.7491 -8.30194
2307 3 0 14.363 21.5445 -6.5097
2558 2 1.79537 16.1583 21.5445 -6.98743
3053 3 3.59074 16.1583 19.7491 -6.57134
3307 2 3.59074 14.363 21.5445 -6.99067
3860 1 1.79537 17.9537 19.7491 -8.23669
845 3 5.38611 17.9537 19.7491 -6.46694
2802 3 5.38611 14.363 19.7491 -6.47383
3558 2 5.38611 16.1583 21.5445 -7.0078
511 1 8.97686 16.1583 21.5445 -8.32897
37 1 7.18149 16.1583 19.7491 -8.37399
293 1 7.18149 14.363 21.5445 -8.1975
1053 3 10.7722 16.1583 19.7491 -6.54413
1309 1 10.7722 14.363 21.5445 -8.30408
1861 3 8.97686 17.9537 19.7491 -6.63511
2360 2 7.18149 17.9537 21.5445 -7.00559
3360 2 10.7722 17.9537 21.5445 -6.9942
3803 2 8.97686 14.363 19.7491 -6.96643
804 1 12.5676 14.363 19.7491 -8.33303
1559 3 12.5676 16.1583 21.5445 -6.38654
2860 2 12.5676 17.9537 19.7491 -6.97242
470 1 17.9537 17.9537 21.5445 -8.20124
347 1 14.363 17.9537 21.5445 -8.3094
1804 3 16.1583 14.363 19.7491 -6.56531
2162 3 17.9537 16.1583 19.7491 -6.4715
2054 1 14.363 16.1583 19.7491 -8.36203
2417 3 17.9537 14.363 21.5445 -6.53605
2309 2 14.363 14.363 21.5445 -7.02688
2560 3 16.1583 16.1583 21.5445 -6.44543
3861 2 16.1583 17.9537 19.7491 -7.00293
38 3 3.59074 1.79537 23.3398 -6.41431