ITEM: TIMESTEP
0
ITEM: NUMBER OF ATOMS
4000
ITEM: BOX BOUNDS pp pp pp
0.0000000000000000e+00 3.5525530000000003e+01
0.0000000000000000e+00 3.5525530000000003e+01
0.0000000000000000e+00 3.5525530000000003e+01
ITEM: ATOMS id type x y z c_peratom
267 2 0 0 0 -6.97654
517 1 1.77628 1.77628 0 -8.54344
768 3 1.77628 0 1.77628 -6.31273
1016 1 0 1.77628 1.77628 -8.27201
1270 3 0 3.55255 0 -6.39395
1268 2 3.55255 0 0 -6.92165
1267 1 0 0 3.55255 -8.11435
1517 3 1.77628 1.77628 3.55255 -6.46818
1767 2 1.77628 3.55255 1.77628 -7.02431
2017 3 3.55255 1.77628 1.77628 -6.55628
2269 1 3.55255 3.55255 0 -8.55021
2268 2 0 3.55255 3.55255 -6.95762
2266 3 3.55255 0 3.55255 -6.48811
3268 2 3.55255 3.55255 3.55255 -7.11962
1518 1 5.32883 1.77628 0 -8.39549
1766 2 5.32883 0 1.77628 -6.96479
2518 2 5.32883 1.77628 3.55255 -6.98371
2768 2 5.32883 3.55255 1.77628 -7.02254
270 2 7.10511 3.55255 3.55255 -7.0481
2267 1 7.10511 0 0 -8.12341
2519 1 8.88138 1.77628 0 -8.38437
2767 1 8.88138 0 1.77628 -8.39393
3017 1 7.10511 1.77628 1.77628 -8.11444
3269 2 7.10511 3.55255 0 -6.96672
3266 3 7.10511 0 3.55255 -6.31732
3517 1 8.88138 1.77628 3.55255 -8.23922
3769 1 8.88138 3.55255 1.77628 -8.39908
1 3 10.6577 1.77628 1.77628 -6.13186
271 2 10.6577 3.55255 0 -6.91543
269 2 14.2102 0 0 -6.96011
268 1 10.6577 0 3.55255 -8.33784
518 2 12.4339 1.77628 3.55255 -6.89803
770 1 12.4339 3.55255 1.77628 -8.51845
1017 3 14.2102 1.77628 1.77628 -6.41289
1272 1 14.2102 3.55255 0 -8.23896
1271 3 10.6577 3.55255 3.55255 -6.32894
1269 3 14.2102 0 3.55255 -6.48447
2270 2 14.2102 3.55255 3.55255 -6.95709
3267 3 10.6577 0 0 -6.1416
3518 1 12.4339 1.77628 0 -8.48847
3768 3 12.4339 0 1.77628 -6.3349
519 3 15.9865 1.77628 0 -6.46636
769 2 15.9865 0 1.77628 -7.06844
1519 2 15.9865 1.77628 3.55255 -6.91237
1768 1 15.9865 3.55255 1.77628 -8.41145
1520 3 1.77628 5.32883 0 -6.55786
2018 2 0 5.32883 1.77628 -7.02744
2520 2 1.77628 5.32883 3.55255 -7.12885
3018 3 3.55255 5.32883 1.77628 -6.61384
2521 1 5.32883 5.32883 0 -8.54316
3519 2 5.32883 5.32883 3.55255 -7.09462
2 3 7.10511 5.32883 1.77628 -6.49209
520 2 8.88138 5.32883 3.55255 -6.9591
3520 1 8.88138 5.32883 0 -8.64631
521 2 12.4339 5.32883 0 -6.97107
1018 3 10.6577 5.32883 1.77628 -6.38402
1521 1 12.4339 5.32883 3.55255 -8.74371
2019 3 14.2102 5.32883 1.77628 -6.20727
1522 1 15.9865 5.32883 0 -8.23463
2522 1 15.9865 5.32883 3.55255 -8.34555
3 2 3.55255 8.88138 1.77628 -7.04038
272 2 3.55255 7.10511 3.55255 -7.08051
2271 1 0 7.10511 0 -8.51097
2523 1 1.77628 8.88138 0 -8.23728
2769 2 1.77628 7.10511 1.77628 -7.09783
3019 2 0 8.88138 1.77628 -7.09542
3271 2 3.55255 7.10511 0 -6.96646
3270 1 0 7.10511 3.55255 -8.39428
3521 1 1.77628 8.88138 3.55255 -8.50869
522 1 5.32883 8.88138 3.55255 -8.60803
3522 1 5.32883 8.88138 0 -8.35597
3770 3 5.32883 7.10511 1.77628 -6.50823
273 2 7.10511 7.10511 0 -7.00143
523 1 8.88138 8.88138 0 -8.30184
771 3 8.88138 7.10511 1.77628 -6.46866
1019 2 7.10511 8.88138 1.77628 -6.9829
1273 3 7.10511 7.10511 3.55255 -6.65265
1523 3 8.88138 8.88138 3.55255 -6.6121
1274 3 10.6577 7.10511 0 -6.42227
1524 3 12.4339 8.88138 0 -6.52467
1769 3 12.4339 7.10511 1.77628 -6.3967
2020 1 10.6577 8.88138 1.77628 -8.52031
2273 3 14.2102 7.10511 0 -6.40937
2272 3 10.6577 7.10511 3.55255 -6.47143
2524 1 12.4339 8.88138 3.55255 -8.44376
3020 1 14.2102 8.88138 1.77628 -8.4235
3272 2 14.2102 7.10511 3.55255 -7.00279
2525 3 15.9865 8.88138 0 -6.43626
2770 1 15.9865 7.10511 1.77628 -8.30132
3523 2 15.9865 8.88138 3.55255 -7.08312
4 2 0 12.4339 1.77628 -7.0977
277 1 0 14.2102 0 -8.32924
275 2 3.55255 10.6577 0 -7.07472
274 2 0 10.6577 3.55255 -7.20776
524 2 1.77628 12.4339 3.55255 -7.16597
773 1 1.77628 14.2102 1.77628 -8.44955
1020 3 3.55255 12.4339 1.77628 -6.50021
1278 1 3.55255 14.2102 0 -8.36649
1277 2 0 14.2102 3.55255 -7.07791
1275 2 3.55255 10.6577 3.55255 -7.16702
2276 3 3.55255 14.2102 3.55255 -6.41742
3273 1 0 10.6577 0 -8.20569
3524 3 1.77628 12.4339 0 -6.24187
3771 2 1.77628 10.6577 1.77628 -7.09489
525 2 5.32883 12.4339 0 -6.9102
772 2 5.32883 10.6577 1.77628 -7.07638
1525 3 5.32883 12.4339 3.55255 -6.54727
1771 1 5.32883 14.2102 1.77628 -8.49673
1276 2 7.10511 10.6577 0 -7.04767
1526 2 8.88138 12.4339 0 -7.00382
1770 2 8.88138 10.6577 1.77628 -7.05223
2021 1 7.10511 12.4339 1.77628 -8.39584
2277 3 7.10511 14.2102 0 -6.25955
2274 2 7.10511 10.6577 3.55255 -7.05511
2526 2 8.88138 12.4339 3.55255 -7.12328
2772 1 8.88138 14.2102 1.77628 -8.46687
3276 1 7.10511 14.2102 3.55255 -8.38868
5 3 14.2102 12.4339 1.77628 -6.63325
279 2 14.2102 14.2102 0 -7.03732
278 2 10.6577 14.2102 3.55255 -7.16958
276 1 14.2102 10.6577 3.55255 -8.40366
1279 3 14.2102 14.2102 3.55255 -6.57186
2275 1 10.6577 10.6577 0 -8.61276
2527 3 12.4339 12.4339 0 -6.61551
2771 2 12.4339 10.6577 1.77628 -7.04949
3021 2 10.6577 12.4339 1.77628 -7.08639
3277 1 10.6577 14.2102 0 -8.39169
3275 2 14.2102 10.6577 0 -7.00603
3274 2 10.6577 10.6577 3.55255 -7.04068
3525 2 12.4339 12.4339 3.55255 -7.13174
3773 2 12.4339 14.2102 1.77628 -7.11158
526 2 15.9865 12.4339 3.55255 -6.95832
774 3 15.9865 14.2102 1.77628 -6.51813
3526 1 15.9865 12.4339 0 -8.38476
3772 2 15.9865 10.6577 1.77628 -7.02384
527 2 1.77628 15.9865 0 -6.94702
1021 2 0 15.9865 1.77628 -7.02167
1527 3 1.77628 15.9865 3.55255 -6.40514
2022 1 3.55255 15.9865 1.77628 -8.60118
1528 3 5.32883 15.9865 0 -6.23237
2528 3 5.32883 15.9865 3.55255 -6.13679
2529 3 8.88138 15.9865 0 -6.2337
3022 3 7.10511 15.9865 1.77628 -6.28425
3527 2 8.88138 15.9865 3.55255 -7.03109
6 2 10.6577 15.9865 1.77628 -7.0411
528 2 12.4339 15.9865 3.55255 -7.10345
1022 2 14.2102 15.9865 1.77628 -7.06491
3528 1 12.4339 15.9865 0 -8.27263
529 2 15.9865 15.9865 0 -7.01808
1529 3 15.9865 15.9865 3.55255 -6.36047
776 1 0 3.55255 7.10511 -8.25878
1284 2 1.77628 3.55255 8.88138 -6.98922
1280 3 3.55255 3.55255 7.10511 -6.56536
1772 2 1.77628 0 5.32883 -6.96477
2023 1 0 1.77628 5.32883 -8.24529
2278 2 0 0 7.10511 -6.93747
2530 1 1.77628 1.77628 7.10511 -8.41464
2782 3 1.77628 0 8.88138 -6.36514
2775 2 1.77628 3.55255 5.32883 -7.01998
2774 1 3.55255 0 7.10511 -8.52983
3032 3 0 1.77628 8.88138 -6.38816
3023 2 3.55255 1.77628 5.32883 -6.95002
3533 2 3.55255 1.77628 8.88138 -7.05481
1783 2 5.32883 3.55255 8.88138 -7.19427
2773 3 5.32883 0 5.32883 -6.42291
3024 3 5.32883 1.77628 7.10511 -6.56922
3282 3 5.32883 0 8.88138 -6.66987
3776 1 5.32883 3.55255 5.32883 -8.55691
7 1 7.10511 1.77628 5.32883 -8.65509
17 2 7.10511 1.77628 8.88138 -7.09165
777 2 8.88138 3.55255 5.32883 -6.93972
1774 2 7.10511 3.55255 7.10511 -7.05626
2283 3 8.88138 3.55255 8.88138 -6.53763
3278 3 7.10511 0 7.10511 -6.54938
3529 3 8.88138 1.77628 7.10511 -6.39701
3784 1 8.88138 0 8.88138 -8.42742
3774 3 8.88138 0 5.32883 -6.43829
8 2 12.4339 1.77628 7.10511 -6.95551
252 1 12.4339 0 8.88138 -8.1987
280 1 14.2102 0 7.10511 -8.02698
534 1 10.6577 1.77628 8.88138 -8.38864
775 2 12.4339 0 5.32883 -6.96297
1033 1 14.2102 1.77628 8.88138 -8.32867
1023 1 10.6577 1.77628 5.32883 -8.59457
1775 2 12.4339 3.55255 5.32883 -7.02006
2024 1 14.2102 1.77628 5.32883 -8.36658
2279 3 10.6577 3.55255 7.10511 -6.48289
2785 2 12.4339 3.55255 8.88138 -6.95369
2777 3 14.2102 3.55255 7.10511 -6.42773
3775 3 10.6577 0 7.10511 -6.42618
530 2 15.9865 1.77628 7.10511 -6.9135
785 1 15.9865 0 8.88138 -8.28863
1773 1 15.9865 0 5.32883 -8.55454
2776 1 15.9865 3.55255 5.32883 -8.24349
3285 3 15.9865 3.55255 8.88138 -6.2855
9 1 3.55255 5.32883 5.32883 -8.37786
1024 2 1.77628 5.32883 7.10511 -6.95551
1534 1 0 5.32883 8.88138 -8.07188
2034 3 3.55255 5.32883 8.88138 -6.58313
3025 1 0 5.32883 5.32883 -8.45973
1530 2 5.32883 5.32883 7.10511 -7.0919
1025 3 7.10511 5.32883 5.32883 -6.63328
2025 1 8.88138 5.32883 7.10511 -8.59233
2535 2 7.10511 5.32883 8.88138 -7.12697
2026 2 10.6577 5.32883 5.32883 -6.98969
2531 2 12.4339 5.32883 7.10511 -7.05515
3035 3 10.6577 5.32883 8.88138 -6.45055
3026 2 14.2102 5.32883 5.32883 -7.05645
3536 3 14.2102 5.32883 8.88138 -6.62034
3027 1 15.9865 5.32883 7.10511 -8.52381
10 2 0 8.88138 5.32883 -7.01311
20 3 0 8.88138 8.88138 -6.23463
537 2 3.55255 8.88138 8.88138 -7.06688
1026 2 3.55255 8.88138 5.32883 -7.102
3279 3 0 7.10511 7.10511 -6.30757
3530 3 1.77628 8.88138 7.10511 -6.53924
3787 1 1.77628 7.10511 8.88138 -8.38027
3778 1 3.55255 7.10511 7.10511 -8.49392
3777 2 1.77628 7.10511 5.32883 -7.02917
11 3 5.32883 8.88138 7.10511 -6.64545
255 2 5.32883 7.10511 8.88138 -7.14354
778 2 5.32883 7.10511 5.32883 -7.0881
281 2 7.10511 7.10511 7.10511 -7.05461
531 3 8.88138 8.88138 7.10511 -6.39615
788 1 8.88138 7.10511 8.88138 -8.34342
1036 2 7.10511 8.88138 8.88138 -7.05627
1776 3 8.88138 7.10511 5.32883 -6.59798
2027 2 7.10511 8.88138 5.32883 -7.04826
12 2 14.2102 8.88138 5.32883 -7.12481
779 1 10.6577 7.10511 7.10511 -8.51293
1027 2 12.4339 8.88138 7.10511 -6.99667
1287 3 12.4339 7.10511 8.88138 -6.55922
1281 2 14.2102 7.10511 7.10511 -7.09672
1537 1 10.6577 8.88138 8.88138 -8.42868
2037 3 14.2102 8.88138 8.88138 -6.59207
2778 2 12.4339 7.10511 5.32883 -7.06586
3028 3 10.6577 8.88138 5.32883 -6.5106
1531 2 15.9865 8.88138 7.10511 -7.083
1786 3 15.9865 7.10511 8.88138 -6.49996
3779 2 15.9865 7.10511 5.32883 -7.0865
282 1 0 14.2102 7.10511 -8.3093
791 2 1.77628 14.2102 8.88138 -7.01035
782 3 3.55255 14.2102 7.10511 -6.53259
780 3 1.77628 10.6577 5.32883 -6.77212
1028 2 0 12.4339 5.32883 -7.17012
1779 2 1.77628 14.2102 5.32883 -7.00078
1777 2 0 10.6577 7.10511 -7.01359
2029 2 3.55255 12.4339 5.32883 -7.09309
2028 3 1.77628 12.4339 7.10511 -6.65502
2286 1 1.77628 10.6577 8.88138 -8.5866
2280 2 3.55255 10.6577 7.10511 -7.04648
2538 3 0 12.4339 8.88138 -6.40091
3038 2 3.55255 12.4339 8.88138 -7.03314
1290 2 5.32883 14.2102 8.88138 -7.10028
1778 2 5.32883 10.6577 5.32883 -7.07126
2532 1 5.32883 12.4339 7.10511 -8.54317
2788 3 5.32883 10.6577 8.88138 -6.58734
2781 3 5.32883 14.2102 5.32883 -6.43207
1282 2 7.10511 14.2102 7.10511 -7.03851
1789 1 8.88138 14.2102 8.88138 -8.86671
2780 1 7.10511 10.6577 7.10511 -8.53641
2779 1 8.88138 10.6577 5.32883 -8.72461
3030 2 8.88138 12.4339 7.10511 -7.03367
3029 2 7.10511 12.4339 5.32883 -7.03332
3288 2 8.88138 10.6577 8.88138 -6.94184
3539 2 7.10511 12.4339 8.88138 -7.0317
3782 2 8.88138 14.2102 5.32883 -7.06164
13 3 10.6577 12.4339 5.32883 -6.73002
23 3 10.6577 12.4339 8.88138 -6.67411
540 2 14.2102 12.4339 8.88138 -6.96953
783 2 12.4339 14.2102 5.32883 -7.07209
1029 3 14.2102 12.4339 5.32883 -6.36267
1780 2 10.6577 14.2102 7.10511 -7.07778
2289 2 12.4339 14.2102 8.88138 -6.97997
2281 1 14.2102 14.2102 7.10511 -8.32096
3280 3 10.6577 10.6577 7.10511 -6.61834
3531 3 12.4339 12.4339 7.10511 -6.5827
3790 2 12.4339 10.6577 8.88138 -6.97809
3781 1 14.2102 10.6577 7.10511 -8.53386
3780 2 12.4339 10.6577 5.32883 -7.01304
14 1 15.9865 12.4339 7.10511 -8.03157
258 2 15.9865 10.6577 8.88138 -6.98327
781 1 15.9865 10.6577 5.32883 -8.27389
1781 1 15.9865 14.2102 5.32883 -8.39012
2791 1 15.9865 14.2102 8.88138 -8.19991
532 1 1.77628 15.9865 7.10511 -8.40205
1039 3 0 15.9865 8.88138 -6.37745
1540 3 3.55255 15.9865 8.88138 -6.54681
2030 2 0 15.9865 5.32883 -6.98983
3031 1 3.55255 15.9865 5.32883 -8.51317
1030 2 5.32883 15.9865 7.10511 -7.03674
15 1 7.10511 15.9865 5.32883 -8.29669
1532 3 8.88138 15.9865 7.10511 -6.43865
2040 2 7.10511 15.9865 8.88138 -6.98975
1031 3 10.6577 15.9865 5.32883 -6.60713
2032 1 14.2102 15.9865 5.32883 -8.34882
2031 2 12.4339 15.9865 7.10511 -6.95077
2541 3 10.6577 15.9865 8.88138 -6.44814
3041 3 14.2102 15.9865 8.88138 -6.29637
2533 1 15.9865 15.9865 7.10511 -8.4066
251 3 3.55255 0 10.6577 -6.62565
253 1 0 3.55255 10.6577 -8.35829
16 3 0 1.77628 12.4339 -6.40644
786 1 1.77628 3.55255 12.4339 -8.30015
1032 3 3.55255 1.77628 12.4339 -6.56514
1285 2 3.55255 3.55255 10.6577 -7.05491
3281 1 0 0 10.6577 -8.75391
3532 2 1.77628 1.77628 10.6577 -6.91899
3783 3 1.77628 0 12.4339 -6.35085
533 2 5.32883 1.77628 10.6577 -7.18824
784 3 5.32883 0 12.4339 -6.68345
1784 3 5.32883 3.55255 12.4339 -6.64496
1283 2 7.10511 0 10.6577 -7.10838
1533 2 8.88138 1.77628 10.6577 -7.02956
1782 3 8.88138 0 12.4339 -6.48127
2033 2 7.10511 1.77628 12.4339 -7.1323
2284 2 7.10511 3.55255 10.6577 -7.1663
2784 2 8.88138 3.55255 12.4339 -7.01606
254 3 14.2102 3.55255 10.6577 -6.32357
18 1 14.2102 1.77628 12.4339 -8.27295
2282 2 10.6577 0 10.6577 -6.99726
2534 1 12.4339 1.77628 10.6577 -8.04759
2783 1 12.4339 0 12.4339 -7.99465
3033 1 10.6577 1.77628 12.4339 -8.45362
3284 1 10.6577 3.55255 10.6577 -8.56447
3283 1 14.2102 0 10.6577 -7.99866
3786 2 12.4339 3.55255 12.4339 -6.94378
787 3 15.9865 3.55255 12.4339 -6.34716
3534 2 15.9865 1.77628 10.6577 -6.94725
3785 1 15.9865 0 12.4339 -8.21506
535 1 1.77628 5.32883 10.6577 -8.20215
1034 2 0 5.32883 12.4339 -6.96596
2035 1 3.55255 5.32883 12.4339 -8.42334
1535 3 5.32883 5.32883 10.6577 -6.76089
2536 3 8.88138 5.32883 10.6577 -6.59227
3034 3 7.10511 5.32883 12.4339 -6.71224
19 3 10.6577 5.32883 12.4339 -6.46297
1035 1 14.2102 5.32883 12.4339 -8.54754
3535 3 12.4339 5.32883 10.6577 -6.49401
536 3 15.9865 5.32883 10.6577 -6.32466
1286 2 0 7.10511 10.6577 -6.91397
1536 1 1.77628 8.88138 10.6577 -8.26404
1785 2 1.77628 7.10511 12.4339 -6.95777
2036 1 0 8.88138 12.4339 -8.49705
2285 2 3.55255 7.10511 10.6577 -7.07966
3036 2 3.55255 8.88138 12.4339 -7.07591
2537 2 5.32883 8.88138 10.6577 -7.12136
2786 2 5.32883 7.10511 12.4339 -7.13276
21 2 7.10511 8.88138 12.4339 -6.99002
3286 2 7.10511 7.10511 10.6577 -7.09899
3537 1 8.88138 8.88138 10.6577 -8.24289
3788 3 8.88138 7.10511 12.4339 -6.54691
256 2 10.6577 7.10511 10.6577 -6.90174
538 3 12.4339 8.88138 10.6577 -6.43797
789 2 12.4339 7.10511 12.4339 -6.95325
1037 3 10.6577 8.88138 12.4339 -6.33282
1288 3 14.2102 7.10511 10.6577 -6.44863
2038 1 14.2102 8.88138 12.4339 -8.35316
1538 3 15.9865 8.88138 10.6577 -6.36025
1787 1 15.9865 7.10511 12.4339 -8.46693
259 2 3.55255 14.2102 10.6577 -7.0325
22 1 3.55255 12.4339 12.4339 -8.67651
2287 1 0 10.6577 10.6577 -8.50652
2539 2 1.77628 12.4339 10.6577 -7.01956
2787 2 1.77628 10.6577 12.4339 -7.002
3037 2 0 12.4339 12.4339 -6.99302
3289 3 0 14.2102 10.6577 -6.58318
3287 3 3.55255 10.6577 10.6577 -6.56953
3791 3 1.77628 14.2102 12.4339 -6.3643
792 3 5.32883 14.2102 12.4339 -6.24523
3538 3 5.32883 12.4339 10.6577 -6.48932
3789 3 5.32883 10.6577 12.4339 -6.38022
257 1 7.10511 10.6577 10.6577 -8.50315
539 3 8.88138 12.4339 10.6577 -6.48206
790 1 8.88138 10.6577 12.4339 -8.3651
1038 1 7.10511 12.4339 12.4339 -8.30177
1291 2 7.10511 14.2102 10.6577 -6.99204
1790 2 8.88138 14.2102 12.4339 -6.95032
1289 2 10.6577 10.6577 10.6577 -6.97531
1539 3 12.4339 12.4339 10.6577 -6.58422
1788 2 12.4339 10.6577 12.4339 -6.9358
2039 2 10.6577 12.4339 12.4339 -6.92944
2290 3 10.6577 14.2102 10.6577 -6.6532
2288 1 14.2102 10.6577 10.6577 -8.47925
2790 2 12.4339 14.2102 12.4339 -6.91392
3039 1 14.2102 12.4339 12.4339 -8.47217
3290 3 14.2102 14.2102 10.6577 -6.43177
2540 1 15.9865 12.4339 10.6577 -8.18232
2789 3 15.9865 10.6577 12.4339 -6.29913
3792 1 15.9865 14.2102 12.4339 -8.43311
24 1 0 15.9865 12.4339 -8.61099
1040 1 3.55255 15.9865 12.4339 -8.57746
3540 2 1.77628 15.9865 10.6577 -7.0607
541 3 5.32883 15.9865 10.6577 -6.48173
1541 2 8.88138 15.9865 10.6577 -6.93898
2041 3 7.10511 15.9865 12.4339 -6.30058
25 2 14.2102 15.9865 12.4339 -6.84652
2542 3 12.4339 15.9865 10.6577 -6.44342
3040 3 10.6577 15.9865 12.4339 -6.39807
3541 2 15.9865 15.9865 10.6577 -6.90991
260 3 0 0 14.2102 -6.64939
542 3 1.77628 1.77628 14.2102 -6.41814
793 2 1.77628 0 15.9865 -6.95821
1041 2 0 1.77628 15.9865 -6.97889
1293 1 0 3.55255 14.2102 -8.56374
1292 1 3.55255 0 14.2102 -8.64903
1792 2 1.77628 3.55255 15.9865 -6.93713
2042 1 3.55255 1.77628 15.9865 -8.56846
2292 2 3.55255 3.55255 14.2102 -6.93603
1542 2 5.32883 1.77628 14.2102 -6.97398
1791 3 5.32883 0 15.9865 -6.42427
2793 3 5.32883 3.55255 15.9865 -6.28366
2291 2 7.10511 0 14.2102 -7.10253
2543 3 8.88138 1.77628 14.2102 -6.63257
2792 2 8.88138 0 15.9865 -7.05407
3042 2 7.10511 1.77628 15.9865 -6.99189
3292 1 7.10511 3.55255 14.2102 -8.88929
3794 3 8.88138 3.55255 15.9865 -6.47862
261 1 14.2102 0 14.2102 -8.11425
262 2 10.6577 3.55255 14.2102 -6.98579
26 2 10.6577 1.77628 15.9865 -7.01783
795 3 12.4339 3.55255 15.9865 -6.50095
1042 2 14.2102 1.77628 15.9865 -6.93545
1294 2 14.2102 3.55255 14.2102 -6.90766
3291 3 10.6577 0 14.2102 -6.2698
3542 2 12.4339 1.77628 14.2102 -6.9658
3793 1 12.4339 0 15.9865 -8.21228
543 1 15.9865 1.77628 14.2102 -8.35378
794 2 15.9865 0 15.9865 -6.99495
1793 3 15.9865 3.55255 15.9865 -6.3743
1543 1 1.77628 5.32883 14.2102 -8.01112
2043 2 0 5.32883 15.9865 -6.86356
3043 1 3.55255 5.32883 15.9865 -8.44375
2544 2 5.32883 5.32883 14.2102 -6.94142
27 3 7.10511 5.32883 15.9865 -6.28304
3543 2 8.88138 5.32883 14.2102 -6.86728
544 1 12.4339 5.32883 14.2102 -8.40262
1043 3 10.6577 5.32883 15.9865 -6.33661
2044 3 14.2102 5.32883 15.9865 -6.38058
1544 3 15.9865 5.32883 14.2102 -6.29041
28 3 3.55255 8.88138 15.9865 -6.30763
2293 1 0 7.10511 14.2102 -8.43572
2545 3 1.77628 8.88138 14.2102 -6.35796
2794 1 1.77628 7.10511 15.9865 -8.22952
3044 1 0 8.88138 15.9865 -8.36813
3293 3 3.55255 7.10511 14.2102 -6.43693
3544 2 5.32883 8.88138 14.2102 -7.00943
3795 3 5.32883 7.10511 15.9865 -6.36146
263 3 7.10511 7.10511 14.2102 -6.54906
545 3 8.88138 8.88138 14.2102 -6.2157
796 1 8.88138 7.10511 15.9865 -8.35371
1044 1 7.10511 8.88138 15.9865 -8.2604
1295 1 10.6577 7.10511 14.2102 -8.43078
1545 1 12.4339 8.88138 14.2102 -8.27619
1794 1 12.4339 7.10511 15.9865 -8.55465
2045 2 10.6577 8.88138 15.9865 -6.85501
2294 1 14.2102 7.10511 14.2102 -8.08445
3045 3 14.2102 8.88138 15.9865 -6.18767
2546 2 15.9865 8.88138 14.2102 -6.91918
2795 1 15.9865 7.10511 15.9865 -8.51968
265 1 0 14.2102 14.2102 -8.52077
264 2 3.55255 10.6577 14.2102 -6.95869
29 2 0 12.4339 15.9865 -6.94314
798 1 1.77628 14.2102 15.9865 -8.11925
1045 1 3.55255 12.4339 15.9865 -8.1612
1297 1 3.55255 14.2102 14.2102 -8.18183
3294 2 0 10.6577 14.2102 -6.92984
3545 3 1.77628 12.4339 14.2102 -6.29227
3796 1 1.77628 10.6577 15.9865 -8.28597
546 1 5.32883 12.4339 14.2102 -8.07232
797 1 5.32883 10.6577 15.9865 -8.26036
1796 3 5.32883 14.2102 15.9865 -6.23063
1296 1 7.10511 10.6577 14.2102 -8.10559
1546 1 8.88138 12.4339 14.2102 -8.13826
1795 1 8.88138 10.6577 15.9865 -8.30421
2046 3 7.10511 12.4339 15.9865 -6.18481
2296 1 7.10511 14.2102 14.2102 -8.2993
2797 1 8.88138 14.2102 15.9865 -8.54251
266 3 14.2102 14.2102 14.2102 -6.22702
30 1 14.2102 12.4339 15.9865 -8.25461
2295 3 10.6577 10.6577 14.2102 -6.13884
2547 1 12.4339 12.4339 14.2102 -8.35169
2796 1 12.4339 10.6577 15.9865 -8.15662
3046 1 10.6577 12.4339 15.9865 -8.05026
3296 3 10.6577 14.2102 14.2102 -6.23287
3295 3 14.2102 10.6577 14.2102 -6.23272
3798 1 12.4339 14.2102 15.9865 -8.28522
799 3 15.9865 14.2102 15.9865 -6.29425
3546 2 15.9865 12.4339 14.2102 -6.81908
3797 2 15.9865 10.6577 15.9865 -6.89714
547 2 1.77628 15.9865 14.2102 -6.95058
1046 1 0 15.9865 15.9865 -8.41434
2047 2 3.55255 15.9865 15.9865 -6.91534
1547 1 5.32883 15.9865 14.2102 -8.39136
2548 2 8.88138 15.9865 14.2102 -6.87024
3047 2 7.10511 15.9865 15.9865 -6.99101
31 3 10.6577 15.9865 15.9865 -6.21526
1047 3 14.2102 15.9865 15.9865 -6.20782
3547 1 12.4339 15.9865 14.2102 -8.57216
548 3 15.9865 15.9865 14.2102 -6.40814
285 2 3.55255 3.55255 21.3153 -7.08374
1298 2 0 0 17.7628 -7.00237
1548 3 1.77628 1.77628 17.7628 -6.46881
1797 3 1.77628 0 19.539 -6.45821
2048 1 0 1.77628 19.539 -8.69452
2300 1 0 3.55255 17.7628 -8.6818
2298 3 3.55255 0 17.7628 -6.41272
2297 1 0 0 21.3153 -8.67066
2549 3 1.77628 1.77628 21.3153 -6.55174
2799 3 1.77628 3.55255 19.539 -6.3822
3048 3 3.55255 1.77628 19.539 -6.64458
3300 2 3.55255 3.55255 17.7628 -6.91884
3299 2 0 3.55255 21.3153 -6.872
3297 3 3.55255 0 21.3153 -6.57301
2550 1 5.32883 1.77628 17.7628 -8.46458
2798 2 5.32883 0 19.539 -6.89224
3548 2 5.32883 1.77628 21.3153 -7.01041
3800 2 5.32883 3.55255 19.539 -7.06677
501 3 8.88138 1.77628 21.3153 -6.41697
32 1 7.10511 1.77628 19.539 -8.24502
286 1 7.10511 3.55255 17.7628 -8.32833
283 2 7.10511 0 21.3153 -6.87069
801 2 8.88138 3.55255 19.539 -7.00292
1301 1 7.10511 3.55255 21.3153 -8.49361
3298 2 7.10511 0 17.7628 -6.98187
3549 3 8.88138 1.77628 17.7628 -6.54598
3799 1 8.88138 0 19.539 -8.53679
502 1 12.4339 1.77628 17.7628 -8.54068
284 2 10.6577 0 17.7628 -7.0134
800 3 12.4339 0 19.539 -6.35232
1048 2 10.6577 1.77628 19.539 -6.96193
1302 3 10.6577 3.55255 17.7628 -6.52269
1300 3 14.2102 0 17.7628 -6.31042
1299 2 10.6577 0 21.3153 -6.96435
1549 3 12.4339 1.77628 21.3153 -6.6062
1799 2 12.4339 3.55255 19.539 -7.00027
2049 1 14.2102 1.77628 19.539 -8.56882
2302 3 14.2102 3.55255 17.7628 -6.50627
2301 1 10.6577 3.55255 21.3153 -8.56126
2299 2 14.2102 0 21.3153 -7.01558
3301 3 14.2102 3.55255 21.3153 -6.53885
1550 1 15.9865 1.77628 17.7628 -8.40097
1798 2 15.9865 0 19.539 -6.97219
2551 1 15.9865 1.77628 21.3153 -8.46986
2800 2 15.9865 3.55255 19.539 -6.99772
33 1 3.55255 5.32883 19.539 -8.62117
2552 3 1.77628 5.32883 17.7628 -6.26215
3049 1 0 5.32883 19.539 -8.43731
3550 3 1.77628 5.32883 21.3153 -6.63057
503 2 5.32883 5.32883 21.3153 -7.03878
3551 1 5.32883 5.32883 17.7628 -8.30904
504 1 8.88138 5.32883 17.7628 -8.48296
1049 1 7.10511 5.32883 19.539 -8.19144
1551 1 8.88138 5.32883 21.3153 -8.29407
1552 3 12.4339 5.32883 17.7628 -6.60048
2050 2 10.6577 5.32883 19.539 -6.95423
2553 2 12.4339 5.32883 21.3153 -7.06169
3050 2 14.2102 5.32883 19.539 -7.04611
2554 3 15.9865 5.32883 17.7628 -6.48045
3552 3 15.9865 5.32883 21.3153 -6.68952
505 2 1.77628 8.88138 21.3153 -7.11908
34 1 0 8.88138 19.539 -8.39277
288 2 3.55255 7.10511 17.7628 -6.90601
287 2 0 7.10511 21.3153 -7.01332
1050 3 3.55255 8.88138 19.539 -6.51917
1303 2 3.55255 7.10511 21.3153 -7.1989
3302 1 0 7.10511 17.7628 -8.27255
3553 1 1.77628 8.88138 17.7628 -8.11571
3801 2 1.77628 7.10511 19.539 -6.99732
506 2 5.32883 8.88138 17.7628 -6.88102
802 3 5.32883 7.10511 19.539 -6.47098
1553 2 5.32883 8.88138 21.3153 -7.09688
1304 1 7.10511 7.10511 17.7628 -8.30509
1554 2 8.88138 8.88138 17.7628 -6.90709
1800 3 8.88138 7.10511 19.539 -6.31236
2051 3 7.10511 8.88138 19.539 -6.45545
2303 3 7.10511 7.10511 21.3153 -6.50471
2555 2 8.88138 8.88138 21.3153 -7.00258
35 1 14.2102 8.88138 19.539 -8.67844
289 2 14.2102 7.10511 21.3153 -6.99818
2304 3 10.6577 7.10511 17.7628 -6.37169
2556 2 12.4339 8.88138 17.7628 -6.89154
2801 3 12.4339 7.10511 19.539 -6.54955
3051 1 10.6577 8.88138 19.539 -8.57283
3304 3 14.2102 7.10511 17.7628 -6.45814
3303 2 10.6577 7.10511 21.3153 -7.00736
3554 3 12.4339 8.88138 21.3153 -6.36291
507 2 15.9865 8.88138 21.3153 -6.9686
3555 3 15.9865 8.88138 17.7628 -6.35657
3802 3 15.9865 7.10511 19.539 -6.64149
508 1 1.77628 12.4339 17.7628 -8.01698
290 1 0 10.6577 17.7628 -8.42831
803 2 1.77628 10.6577 19.539 -6.93863
1051 3 0 12.4339 19.539 -6.36552
1308 2 0 14.2102 17.7628 -6.95103
1306 1 3.55255 10.6577 17.7628 -8.11545
1305 3 0 10.6577 21.3153 -6.64313
1555 3 1.77628 12.4339 21.3153 -6.36887
1802 1 1.77628 14.2102 19.539 -8.42074
2052 1 3.55255 12.4339 19.539 -8.30057
2308 3 3.55255 14.2102 17.7628 -6.16687
2307 1 0 14.2102 21.3153 -8.34061
2305 2 3.55255 10.6577 21.3153 -6.97973
3307 3 3.55255 14.2102 21.3153 -6.13376
1556 3 5.32883 12.4339 17.7628 -6.21386
1801 1 5.32883 10.6577 19.539 -8.61206
2557 3 5.32883 12.4339 21.3153 -6.312
2803 1 5.32883 14.2102 19.539 -8.52261
293 2 7.10511 14.2102 21.3153 -7.01288
2306 3 7.10511 10.6577 17.7628 -6.23921
2558 2 8.88138 12.4339 17.7628 -6.94675
2802 1 8.88138 10.6577 19.539 -8.33373
3052 2 7.10511 12.4339 19.539 -6.97088
3308 2 7.10511 14.2102 17.7628 -6.97115
3305 2 7.10511 10.6577 21.3153 -7.03015
3556 1 8.88138 12.4339 21.3153 -8.39005
3804 2 8.88138 14.2102 19.539 -7.044
509 2 12.4339 12.4339 21.3153 -7.07493
36 2 10.6577 12.4339 19.539 -7.0505
294 3 10.6577 14.2102 17.7628 -6.34549
292 1 14.2102 10.6577 17.7628 -8.16173
291 1 10.6577 10.6577 21.3153 -8.32544
805 2 12.4339 14.2102 19.539 -7.0547
1052 2 14.2102 12.4339 19.539 -7.00373
1310 2 14.2102 14.2102 17.7628 -6.8987
1309 2 10.6577 14.2102 21.3153 -7.10484
1307 2 14.2102 10.6577 21.3153 -6.92104
2309 3 14.2102 14.2102 21.3153 -6.5317
3306 1 10.6577 10.6577 17.7628 -8.02391
3557 1 12.4339 12.4339 17.7628 -8.26709
3803 3 12.4339 10.6577 19.539 -6.29981
510 1 15.9865 12.4339 17.7628 -8.16809
804 1 15.9865 10.6577 19.539 -8.0891
1557 1 15.9865 12.4339 21.3153 -8.20423
1803 1 15.9865 14.2102 19.539 -8.24504
1558 2 1.77628 15.9865 17.7628 -6.97392
2053 3 0 15.9865 19.539 -6.2646
2559 1 1.77628 15.9865 21.3153 -8.38438
3053 2 3.55255 15.9865 19.539 -6.89847
2560 1 5.32883 15.9865 17.7628 -8.3935
3558 3 5.32883 15.9865 21.3153 -6.31495
511 1 8.88138 15.9865 21.3153 -8.39886
37 1 7.10511 15.9865 19.539 -8.41047
3559 3 8.88138 15.9865 17.7628 -6.50179
512 1 12.4339 15.9865 17.7628 -8.47672
1053 2 10.6577 15.9865 19.539 -6.96276
1559 3 12.4339 15.9865 21.3153 -6.68934
2054 3 14.2102 15.9865 19.539 -6.46769
1560 1 15.9865 15.9865 17.7628 -8.6648
2561 2 15.9865 15.9865 21.3153 -6.98574
39 3 3.55255 1.77628 23.0916 -6.56396
38 2 0 1.77628 26.6441 -6.93943
296 1 0 3.55255 24.8679 -8.5109
295 3 3.55255 0 24.8679 -6.41576
808 3 1.77628 3.55255 26.6441 -6.37574
1054 2 3.55255 1.77628 26.6441 -6.98047
1312 2 3.55255 3.55255 24.8679 -7.02178
2804 2 1.77628 0 23.0916 -6.89645
3054 3 0 1.77628 23.0916 -6.43844
3309 3 0 0 24.8679 -6.61645
3560 1 1.77628 1.77628 24.8679 -8.72732
3808 3 1.77628 3.55255 23.0916 -6.59406
3805 2 1.77628 0 26.6441 -7.02158
513 1 5.32883 1.77628 24.8679 -8.52665
809 2 5.32883 3.55255 23.0916 -7.01176
806 1 5.32883 0 26.6441 -8.20002
1806 3 5.32883 3.55255 26.6441 -6.42139
3806 3 5.32883 0 23.0916 -6.3965
807 3 8.88138 0 23.0916 -6.31563
1055 3 7.10511 1.77628 23.0916 -6.28899
1311 1 7.10511 0 24.8679 -8.28072
1561 1 8.88138 1.77628 24.8679 -8.62029
1807 3 8.88138 3.55255 23.0916 -6.18656
1804 3 8.88138 0 26.6441 -6.07525
2055 2 7.10511 1.77628 26.6441 -6.97174
2311 1 7.10511 3.55255 24.8679 -8.46209
2807 1 8.88138 3.55255 26.6441 -8.31141
40 3 14.2102 1.77628 26.6441 -6.4008
297 3 14.2102 3.55255 24.8679 -6.48406
1805 2 12.4339 0 23.0916 -6.90942
2056 3 10.6577 1.77628 23.0916 -6.42379
2310 3 10.6577 0 24.8679 -6.17983
2562 1 12.4339 1.77628 24.8679 -8.8368
2808 2 12.4339 3.55255 23.0916 -6.98146
2805 1 12.4339 0 26.6441 -8.2583
3056 2 14.2102 1.77628 23.0916 -6.9711
3055 3 10.6577 1.77628 26.6441 -6.09459
3311 3 10.6577 3.55255 24.8679 -6.33485
3310 3 14.2102 0 24.8679 -6.41595
3809 3 12.4339 3.55255 26.6441 -6.3853
810 2 15.9865 3.55255 26.6441 -6.88889
2806 1 15.9865 0 23.0916 -8.5844
3561 2 15.9865 1.77628 24.8679 -7.04481
3810 2 15.9865 3.55255 23.0916 -6.98131
3807 2 15.9865 0 26.6441 -6.95925
514 2 1.77628 5.32883 24.8679 -7.04756
41 2 0 5.32883 23.0916 -6.95633
1057 2 3.55255 5.32883 23.0916 -7.22137
1056 1 0 5.32883 26.6441 -8.40039
2057 2 3.55255 5.32883 26.6441 -7.0123
1562 3 5.32883 5.32883 24.8679 -6.53412
2058 3 7.10511 5.32883 23.0916 -6.42293
2563 3 8.88138 5.32883 24.8679 -6.30116
3057 1 7.10511 5.32883 26.6441 -8.48983
43 1 14.2102 5.32883 23.0916 -8.67155
42 3 10.6577 5.32883 26.6441 -6.4845
1058 3 14.2102 5.32883 26.6441 -6.4485
3058 1 10.6577 5.32883 23.0916 -8.44163
3562 2 12.4339 5.32883 24.8679 -6.93809
515 1 15.9865 5.32883 24.8679 -8.62575
811 2 1.77628 7.10511 23.0916 -7.16162
1059 2 0 8.88138 23.0916 -7.0822
1313 1 0 7.10511 24.8679 -8.35385
1563 1 1.77628 8.88138 24.8679 -8.24842
1808 1 1.77628 7.10511 26.6441 -8.14649
2060 2 3.55255 8.88138 23.0916 -7.10788
2059 3 0 8.88138 26.6441 -6.10194
2312 2 3.55255 7.10511 24.8679 -7.09362
3059 1 3.55255 8.88138 26.6441 -7.95574
1809 2 5.32883 7.10511 23.0916 -7.0913
2564 1 5.32883 8.88138 24.8679 -8.11897
2809 1 5.32883 7.10511 26.6441 -8.39267
44 1 7.10511 8.88138 26.6441 -8.44781
2810 1 8.88138 7.10511 23.0916 -8.62167
3060 2 7.10511 8.88138 23.0916 -7.03214
3312 3 7.10511 7.10511 24.8679 -6.34085
3563 3 8.88138 8.88138 24.8679 -6.60817
3811 2 8.88138 7.10511 26.6441 -6.92689
516 1 12.4339 8.88138 24.8679 -8.32308
45 2 10.6577 8.88138 23.0916 -7.00203
298 2 10.6577 7.10511 24.8679 -7.02661
812 1 12.4339 7.10511 26.6441 -8.49506
1061 1 14.2102 8.88138 23.0916 -8.48941
1060 2 10.6577 8.88138 26.6441 -6.99317
1314 2 14.2102 7.10511 24.8679 -6.95119
2061 3 14.2102 8.88138 26.6441 -6.28707
3812 2 12.4339 7.10511 23.0916 -7.00434
813 3 15.9865 7.10511 23.0916 -6.39192
1564 2 15.9865 8.88138 24.8679 -6.89959
1810 3 15.9865 7.10511 26.6441 -6.41235
46 1 3.55255 12.4339 26.6441 -8.08451
300 3 3.55255 14.2102 24.8679 -6.15109
1811 3 1.77628 10.6577 23.0916 -6.59859
2062 2 0 12.4339 23.0916 -6.9925
2313 2 0 10.6577 24.8679 -6.94571
2565 2 1.77628 12.4339 24.8679 -6.88757
2814 1 1.77628 14.2102 23.0916 -8.44329
2811 1 1.77628 10.6577 26.6441 -8.24479
3062 3 3.55255 12.4339 23.0916 -6.26468
3061 3 0 12.4339 26.6441 -6.18818
3314 1 0 14.2102 24.8679 -8.36637
3313 1 3.55255 10.6577 24.8679 -8.10985
3815 1 1.77628 14.2102 26.6441 -8.19831
753 2 5.32883 14.2102 26.6441 -6.91889
2812 1 5.32883 10.6577 23.0916 -8.41221
3564 1 5.32883 12.4339 24.8679 -8.21101
3816 1 5.32883 14.2102 23.0916 -8.84996
3813 1 5.32883 10.6577 26.6441 -7.99145
549 1 8.88138 12.4339 24.8679 -8.62856
47 2 7.10511 12.4339 23.0916 -7.07098
299 2 7.10511 10.6577 24.8679 -7.05484
751 3 8.88138 10.6577 26.6441 -6.50291
754 2 8.88138 14.2102 23.0916 -7.06961
1062 2 7.10511 12.4339 26.6441 -6.96185
1316 2 7.10511 14.2102 24.8679 -7.0486
1814 2 8.88138 14.2102 26.6441 -7.04052
3814 2 8.88138 10.6577 23.0916 -7.07405
752 1 12.4339 10.6577 23.0916 -8.16259
1063 2 10.6577 12.4339 23.0916 -7.08986
1315 2 10.6577 10.6577 24.8679 -6.99833
1565 1 12.4339 12.4339 24.8679 -8.53539
1815 2 12.4339 14.2102 23.0916 -7.09797
1812 3 12.4339 10.6577 26.6441 -6.42835
2064 2 14.2102 12.4339 23.0916 -7.00556
2063 3 10.6577 12.4339 26.6441 -6.59902
2315 2 10.6577 14.2102 24.8679 -7.05247
2314 1 14.2102 10.6577 24.8679 -8.24573
2815 3 12.4339 14.2102 26.6441 -6.51176
3063 2 14.2102 12.4339 26.6441 -6.98497
3315 2 14.2102 14.2102 24.8679 -7.02926
1813 3 15.9865 10.6577 23.0916 -6.21113
2566 1 15.9865 12.4339 24.8679 -8.20802
2816 1 15.9865 14.2102 23.0916 -8.32714
2813 1 15.9865 10.6577 26.6441 -8.2276