ITEM: TIMESTEP
0
ITEM: NUMBER OF ATOMS
4000
ITEM: BOX BOUNDS pp pp pp
0.0000000000000000e+00 3.5477780000000003e+01
0.0000000000000000e+00 3.5477780000000003e+01
0.0000000000000000e+00 3.5477780000000003e+01
ITEM: ATOMS id type x y z c_peratom
267 1 0 0 0 -8.2824
517 1 1.77389 1.77389 0 -8.36069
766 3 1.77389 0 1.77389 -6.3393
1016 3 0 1.77389 1.77389 -6.033
1269 2 0 0 3.54778 -6.96794
1517 1 1.77389 1.77389 3.54778 -8.61043
1267 3 3.54778 0 0 -6.30424
1518 2 5.32167 1.77389 0 -6.95478
1767 2 5.32167 0 1.77389 -6.91126
2017 3 3.54778 1.77389 1.77389 -6.163
2267 3 3.54778 0 3.54778 -6.24215
2517 1 5.32167 1.77389 3.54778 -8.4945
1 3 10.6433 1.77389 1.77389 -6.53724
270 3 10.6433 0 3.54778 -6.29421
2269 1 7.09556 0 0 -8.15199
2518 3 8.86945 1.77389 0 -6.20803
2768 1 8.86945 0 1.77389 -8.42088
3017 1 7.09556 1.77389 1.77389 -8.20203
3269 2 10.6433 0 0 -6.91211
3268 2 7.09556 0 3.54778 -6.96414
3517 3 8.86945 1.77389 3.54778 -6.51321
271 3 14.1911 0 0 -6.42695
518 1 12.4172 1.77389 3.54778 -8.66647
1017 3 14.1911 1.77389 1.77389 -6.46473
1272 2 14.1911 0 3.54778 -6.94892
3518 3 12.4172 1.77389 0 -6.43305
3769 3 12.4172 0 1.77389 -6.44821
519 2 15.965 1.77389 0 -6.96664
768 2 15.965 0 1.77389 -6.99478
1519 3 15.965 1.77389 3.54778 -6.49648
1268 1 0 3.54778 0 -8.18612
1520 1 1.77389 5.32167 0 -8.47084
1766 1 1.77389 3.54778 1.77389 -8.34411
2018 3 0 5.32167 1.77389 -6.23435
2268 2 0 3.54778 3.54778 -6.88942
2519 1 1.77389 5.32167 3.54778 -8.30339
2266 3 3.54778 3.54778 0 -6.06071
2520 3 5.32167 5.32167 0 -6.13452
2767 1 5.32167 3.54778 1.77389 -8.64867
3018 2 3.54778 5.32167 1.77389 -6.88844
3266 3 3.54778 3.54778 3.54778 -6.07925
3519 2 5.32167 5.32167 3.54778 -6.84901
2 3 7.09556 5.32167 1.77389 -6.21842
269 2 10.6433 3.54778 0 -6.89017
268 3 7.09556 3.54778 3.54778 -6.37122
520 3 8.86945 5.32167 3.54778 -6.2734
1018 1 10.6433 5.32167 1.77389 -8.612
1270 2 10.6433 3.54778 3.54778 -6.90727
3267 1 7.09556 3.54778 0 -8.20085
3520 2 8.86945 5.32167 0 -6.94038
3768 2 8.86945 3.54778 1.77389 -6.85203
521 3 12.4172 5.32167 0 -6.49265
767 3 12.4172 3.54778 1.77389 -6.44343
1271 1 14.1911 3.54778 0 -8.60562
1521 3 12.4172 5.32167 3.54778 -6.33836
2019 3 14.1911 5.32167 1.77389 -6.50728
2270 3 14.1911 3.54778 3.54778 -6.39767
1522 3 15.965 5.32167 0 -6.27029
1768 1 15.965 3.54778 1.77389 -8.69311
2521 3 15.965 5.32167 3.54778 -6.49591
275 2 0 10.6433 3.54778 -7.0929
2271 2 0 7.09556 0 -6.98255
2522 2 1.77389 8.86945 0 -6.97632
2769 2 1.77389 7.09556 1.77389 -6.98423
3019 2 0 8.86945 1.77389 -7.11102
3273 3 0 10.6433 0 -6.59851
3271 1 0 7.09556 3.54778 -8.45557
3521 1 1.77389 8.86945 3.54778 -8.18529
3771 2 1.77389 10.6433 1.77389 -7.03196
3 1 3.54778 8.86945 1.77389 -8.352
274 2 3.54778 10.6433 0 -6.92669
272 2 3.54778 7.09556 3.54778 -6.9931
522 3 5.32167 8.86945 3.54778 -6.12175
770 3 5.32167 10.6433 1.77389 -6.17565
1275 1 3.54778 10.6433 3.54778 -8.42729
3270 3 3.54778 7.09556 0 -6.20379
3522 1 5.32167 8.86945 0 -8.17231
3770 1 5.32167 7.09556 1.77389 -8.42431
273 2 7.09556 7.09556 0 -6.88892
523 3 8.86945 8.86945 0 -6.12641
769 1 8.86945 7.09556 1.77389 -8.34237
1019 1 7.09556 8.86945 1.77389 -8.06342
1276 1 7.09556 10.6433 0 -8.22817
1274 3 10.6433 7.09556 0 -6.31049
1273 1 7.09556 7.09556 3.54778 -8.24373
1523 1 8.86945 8.86945 3.54778 -8.14798
1770 1 8.86945 10.6433 1.77389 -8.20408
2020 1 10.6433 8.86945 1.77389 -8.29439
2275 2 10.6433 10.6433 0 -6.88498
2274 1 7.09556 10.6433 3.54778 -8.23323
2272 1 10.6433 7.09556 3.54778 -8.21114
3274 3 10.6433 10.6433 3.54778 -6.52007
276 1 14.1911 10.6433 3.54778 -8.45093
1524 1 12.4172 8.86945 0 -8.60676
1769 2 12.4172 7.09556 1.77389 -6.93771
2273 3 14.1911 7.09556 0 -6.51481
2523 2 12.4172 8.86945 3.54778 -6.90743
2771 3 12.4172 10.6433 1.77389 -6.41713
3020 3 14.1911 8.86945 1.77389 -6.35168
3275 1 14.1911 10.6433 0 -8.67039
3272 2 14.1911 7.09556 3.54778 -6.98473
2524 3 15.965 8.86945 0 -6.31875
2770 2 15.965 7.09556 1.77389 -6.91621
3523 1 15.965 8.86945 3.54778 -8.51767
3772 1 15.965 10.6433 1.77389 -8.24441
4 3 0 12.4172 1.77389 -6.55455
277 3 0 14.1911 0 -6.31239
524 3 1.77389 12.4172 3.54778 -6.41542
771 1 1.77389 14.1911 1.77389 -8.56616
1278 3 0 14.1911 3.54778 -6.58415
3524 3 1.77389 12.4172 0 -6.37863
525 2 5.32167 12.4172 0 -6.95977
1020 2 3.54778 12.4172 1.77389 -6.90206
1277 1 3.54778 14.1911 0 -8.49175
1525 2 5.32167 12.4172 3.54778 -6.90158
1771 3 5.32167 14.1911 1.77389 -6.34739
2276 1 3.54778 14.1911 3.54778 -8.44495
278 3 10.6433 14.1911 3.54778 -6.46013
1526 2 8.86945 12.4172 0 -7.00268
2021 1 7.09556 12.4172 1.77389 -8.50962
2277 2 7.09556 14.1911 0 -6.97385
2525 2 8.86945 12.4172 3.54778 -6.99696
2772 2 8.86945 14.1911 1.77389 -6.93988
3021 2 10.6433 12.4172 1.77389 -6.99755
3277 3 10.6433 14.1911 0 -6.30872
3276 3 7.09556 14.1911 3.54778 -6.46284
5 2 14.1911 12.4172 1.77389 -6.97154
279 3 14.1911 14.1911 0 -6.5568
1279 2 14.1911 14.1911 3.54778 -6.93603
2526 3 12.4172 12.4172 0 -6.47558
3525 3 12.4172 12.4172 3.54778 -6.58665
3773 2 12.4172 14.1911 1.77389 -6.99158
526 1 15.965 12.4172 3.54778 -8.50858
772 3 15.965 14.1911 1.77389 -6.50449
3526 2 15.965 12.4172 0 -6.95669
527 2 1.77389 15.965 0 -6.9384
1021 2 0 15.965 1.77389 -6.93168
1527 1 1.77389 15.965 3.54778 -8.2853
1528 2 5.32167 15.965 0 -6.92367
2022 1 3.54778 15.965 1.77389 -8.31852
2527 1 5.32167 15.965 3.54778 -8.69982
6 1 10.6433 15.965 1.77389 -8.34463
2528 1 8.86945 15.965 0 -8.33571
3022 3 7.09556 15.965 1.77389 -6.32927
3527 1 8.86945 15.965 3.54778 -8.41502
528 1 12.4172 15.965 3.54778 -8.12878
1022 1 14.1911 15.965 1.77389 -8.54576
3528 2 12.4172 15.965 0 -6.9078
529 2 15.965 15.965 0 -6.99689
1529 2 15.965 15.965 3.54778 -7.04525
1772 1 1.77389 0 5.32167 -8.41814
2023 2 0 1.77389 5.32167 -6.95063
2278 2 0 0 7.09556 -6.94318
2529 2 1.77389 1.77389 7.09556 -6.80625
2775 1 5.32167 0 5.32167 -8.41806
2774 1 3.54778 0 7.09556 -8.36087
3024 2 5.32167 1.77389 7.09556 -6.92712
3023 3 3.54778 1.77389 5.32167 -6.09729
7 3 7.09556 1.77389 5.32167 -6.3873
1023 3 10.6433 1.77389 5.32167 -6.40859
3278 2 7.09556 0 7.09556 -6.93894
3529 1 8.86945 1.77389 7.09556 -8.88621
3776 3 10.6433 0 7.09556 -6.37628
3775 2 8.86945 0 5.32167 -6.87384
8 2 12.4172 1.77389 7.09556 -6.96561
280 2 14.1911 0 7.09556 -7.00003
775 1 12.4172 0 5.32167 -8.80537
2024 2 14.1911 1.77389 5.32167 -7.02848
530 2 15.965 1.77389 7.09556 -7.074
1775 2 15.965 0 5.32167 -6.99225
773 1 0 3.54778 7.09556 -8.30101
1024 1 1.77389 5.32167 7.09556 -8.3971
2773 1 1.77389 3.54778 5.32167 -8.31946
3025 1 0 5.32167 5.32167 -8.2453
9 2 3.54778 5.32167 5.32167 -6.95302
1280 3 3.54778 3.54778 7.09556 -6.27488
1530 1 5.32167 5.32167 7.09556 -8.68222
3774 1 5.32167 3.54778 5.32167 -8.71533
774 2 8.86945 3.54778 5.32167 -6.92802
1025 3 7.09556 5.32167 5.32167 -6.24367
1773 2 7.09556 3.54778 7.09556 -6.89958
2026 1 8.86945 5.32167 7.09556 -8.53406
2025 1 10.6433 5.32167 5.32167 -8.19464
2279 2 10.6433 3.54778 7.09556 -7.02117
1774 1 12.4172 3.54778 5.32167 -8.38076
2530 1 12.4172 5.32167 7.09556 -8.04896
2776 2 14.1911 3.54778 7.09556 -7.07935
3026 1 14.1911 5.32167 5.32167 -8.43318
2777 2 15.965 3.54778 5.32167 -7.00397
3027 2 15.965 5.32167 7.09556 -6.94942
10 2 0 8.86945 5.32167 -7.04173
778 1 1.77389 10.6433 5.32167 -8.51267
1777 3 0 10.6433 7.09556 -6.61862
3279 1 0 7.09556 7.09556 -8.38751
3530 2 1.77389 8.86945 7.09556 -6.9706
3777 2 1.77389 7.09556 5.32167 -7.05807
11 2 5.32167 8.86945 7.09556 -7.00414
776 1 5.32167 7.09556 5.32167 -8.54383
1026 2 3.54778 8.86945 5.32167 -7.04952
1778 1 5.32167 10.6433 5.32167 -8.29459
2280 1 3.54778 10.6433 7.09556 -8.46924
3778 2 3.54778 7.09556 7.09556 -7.04261
281 3 7.09556 7.09556 7.09556 -6.3365
531 2 8.86945 8.86945 7.09556 -6.89985
777 3 10.6433 7.09556 7.09556 -6.28231
1776 1 8.86945 7.09556 5.32167 -8.38143
2027 2 7.09556 8.86945 5.32167 -6.93618
2780 3 8.86945 10.6433 5.32167 -6.55512
2779 3 7.09556 10.6433 7.09556 -6.43333
3028 3 10.6433 8.86945 5.32167 -6.4646
3280 3 10.6433 10.6433 7.09556 -6.62742
12 3 14.1911 8.86945 5.32167 -6.4398
1027 2 12.4172 8.86945 7.09556 -6.94954
1281 1 14.1911 7.09556 7.09556 -8.25427
2778 2 12.4172 7.09556 5.32167 -6.94369
3781 3 14.1911 10.6433 7.09556 -6.56291
3780 2 12.4172 10.6433 5.32167 -7.01653
779 2 15.965 10.6433 5.32167 -7.02481
1531 1 15.965 8.86945 7.09556 -8.6605
3779 2 15.965 7.09556 5.32167 -7.03856
282 3 0 14.1911 7.09556 -6.58438
1028 2 0 12.4172 5.32167 -7.09538
1779 2 1.77389 14.1911 5.32167 -6.90482
2029 3 1.77389 12.4172 7.09556 -6.46863
780 1 3.54778 14.1911 7.09556 -8.4382
2028 3 3.54778 12.4172 5.32167 -6.14464
2531 1 5.32167 12.4172 7.09556 -8.41186
2781 3 5.32167 14.1911 5.32167 -6.21196
13 3 10.6433 12.4172 5.32167 -6.72178
1282 1 7.09556 14.1911 7.09556 -8.35191
1780 2 10.6433 14.1911 7.09556 -6.99702
3030 3 8.86945 12.4172 7.09556 -6.49285
3029 2 7.09556 12.4172 5.32167 -6.92798
3782 2 8.86945 14.1911 5.32167 -6.99964
781 2 12.4172 14.1911 5.32167 -6.98332
1029 1 14.1911 12.4172 5.32167 -8.53144
2281 2 14.1911 14.1911 7.09556 -6.94041
3531 2 12.4172 12.4172 7.09556 -6.98393
14 2 15.965 12.4172 7.09556 -6.95964
1781 3 15.965 14.1911 5.32167 -6.43375
532 1 1.77389 15.965 7.09556 -8.22846
2030 3 0 15.965 5.32167 -6.42502
1030 1 5.32167 15.965 7.09556 -8.26893
3031 2 3.54778 15.965 5.32167 -6.92899
15 2 7.09556 15.965 5.32167 -6.94108
1031 1 10.6433 15.965 5.32167 -8.32106
1532 2 8.86945 15.965 7.09556 -6.91513
2032 2 12.4172 15.965 7.09556 -6.99016
2031 1 14.1911 15.965 5.32167 -8.4021
2532 3 15.965 15.965 7.09556 -6.20343
16 1 0 1.77389 12.4172 -8.45908
2782 1 1.77389 0 8.86945 -8.50113
3032 3 0 1.77389 8.86945 -6.16492
3281 3 0 0 10.6433 -6.21254
3533 3 1.77389 1.77389 10.6433 -6.2941
3783 1 1.77389 0 12.4172 -8.59025
251 2 3.54778 0 10.6433 -6.98726
533 2 5.32167 1.77389 10.6433 -7.00197
783 3 5.32167 0 12.4172 -6.49157
1032 3 3.54778 1.77389 12.4172 -6.50855
3282 2 5.32167 0 8.86945 -6.9907
3532 3 3.54778 1.77389 8.86945 -6.36214
17 3 7.09556 1.77389 8.86945 -6.49605
534 2 10.6433 1.77389 8.86945 -6.89783
1285 2 7.09556 0 10.6433 -6.99375
1533 1 8.86945 1.77389 10.6433 -8.77034
1784 2 8.86945 0 12.4172 -6.87286
2033 2 7.09556 1.77389 12.4172 -6.9376
2284 3 10.6433 0 10.6433 -6.38161
3033 3 10.6433 1.77389 12.4172 -6.36021
3784 3 8.86945 0 8.86945 -6.37314
253 2 12.4172 0 8.86945 -6.83767
18 3 14.1911 1.77389 12.4172 -6.51802
1033 1 14.1911 1.77389 8.86945 -8.55929
2533 3 12.4172 1.77389 10.6433 -6.53591
2785 3 12.4172 0 12.4172 -6.41466
3284 3 14.1911 0 10.6433 -6.47603
784 1 15.965 0 8.86945 -8.21766
3534 2 15.965 1.77389 10.6433 -6.93248
3786 3 15.965 0 12.4172 -6.48429
252 3 0 3.54778 10.6433 -6.44615
535 2 1.77389 5.32167 10.6433 -6.87304
782 2 1.77389 3.54778 12.4172 -6.90318
1034 2 0 5.32167 12.4172 -6.9287
1283 1 1.77389 3.54778 8.86945 -8.56346
1534 2 0 5.32167 8.86945 -6.94355
1284 1 3.54778 3.54778 10.6433 -8.43311
1535 1 5.32167 5.32167 10.6433 -8.58221
1783 2 5.32167 3.54778 12.4172 -6.9809
1782 2 5.32167 3.54778 8.86945 -6.9374
2035 1 3.54778 5.32167 12.4172 -8.4906
2034 3 3.54778 5.32167 8.86945 -6.31418
19 1 10.6433 5.32167 12.4172 -8.44085
2283 3 8.86945 3.54778 8.86945 -6.22836
2282 1 7.09556 3.54778 10.6433 -8.48426
2535 1 8.86945 5.32167 10.6433 -8.54779
2534 3 7.09556 5.32167 8.86945 -6.2942
2783 2 8.86945 3.54778 12.4172 -6.84477
3035 1 10.6433 5.32167 8.86945 -8.3029
3034 3 7.09556 5.32167 12.4172 -6.37027
3283 3 10.6433 3.54778 10.6433 -6.26911
254 2 14.1911 3.54778 10.6433 -6.96776
1035 3 14.1911 5.32167 12.4172 -6.42858
2784 1 12.4172 3.54778 8.86945 -8.31463
3536 2 12.4172 5.32167 10.6433 -6.83447
3535 1 14.1911 5.32167 8.86945 -8.39837
3785 3 12.4172 3.54778 12.4172 -6.32903
536 2 15.965 5.32167 10.6433 -7.02234
785 3 15.965 3.54778 12.4172 -6.55262
3285 3 15.965 3.54778 8.86945 -6.48523
20 1 0 8.86945 8.86945 -8.57431
1286 3 0 7.09556 10.6433 -6.37605
1536 1 1.77389 8.86945 10.6433 -8.407
1785 1 1.77389 7.09556 12.4172 -8.36572
2036 3 0 8.86945 12.4172 -6.23533
2287 2 0 10.6433 10.6433 -6.91477
2286 3 1.77389 10.6433 8.86945 -6.34532
2787 1 1.77389 10.6433 12.4172 -8.4231
3787 3 1.77389 7.09556 8.86945 -6.39034
255 2 5.32167 7.09556 8.86945 -6.97908
537 2 3.54778 8.86945 8.86945 -6.95695
2285 3 3.54778 7.09556 10.6433 -6.31112
2536 3 5.32167 8.86945 10.6433 -6.33052
2788 2 5.32167 10.6433 8.86945 -6.92324
2786 3 5.32167 7.09556 12.4172 -6.32115
3036 1 3.54778 8.86945 12.4172 -8.34124
3287 1 3.54778 10.6433 10.6433 -8.31944
3789 1 5.32167 10.6433 12.4172 -8.48279
256 3 10.6433 7.09556 10.6433 -6.30205
257 1 7.09556 10.6433 10.6433 -8.38299
21 3 7.09556 8.86945 12.4172 -6.29782
788 1 8.86945 10.6433 12.4172 -8.62652
786 2 8.86945 7.09556 8.86945 -6.87724
1037 2 10.6433 8.86945 12.4172 -6.86099
1036 1 7.09556 8.86945 8.86945 -8.62678
1289 3 10.6433 10.6433 10.6433 -6.42743
1537 2 10.6433 8.86945 8.86945 -6.88638
3288 1 8.86945 10.6433 8.86945 -8.75119
3286 2 7.09556 7.09556 10.6433 -6.89826
3537 3 8.86945 8.86945 10.6433 -6.41794
3788 3 8.86945 7.09556 12.4172 -6.32369
538 3 12.4172 8.86945 10.6433 -6.42911
787 1 12.4172 7.09556 12.4172 -8.51555
1288 3 14.1911 7.09556 10.6433 -6.39878
1287 1 12.4172 7.09556 8.86945 -8.50857
1788 3 12.4172 10.6433 12.4172 -6.37185
2038 2 14.1911 8.86945 12.4172 -6.89431
2037 3 14.1911 8.86945 8.86945 -6.3059
2288 1 14.1911 10.6433 10.6433 -8.52989
3790 3 12.4172 10.6433 8.86945 -6.53287
258 3 15.965 10.6433 8.86945 -6.46674
1538 1 15.965 8.86945 10.6433 -8.67211
1787 2 15.965 7.09556 12.4172 -7.02233
1786 3 15.965 7.09556 8.86945 -6.31615
2789 2 15.965 10.6433 12.4172 -6.8975
789 2 1.77389 14.1911 8.86945 -6.97771
2538 1 1.77389 12.4172 10.6433 -8.29343
2537 2 0 12.4172 8.86945 -7.01321
3038 2 0 12.4172 12.4172 -6.98786
3289 1 0 14.1911 10.6433 -8.36923
3791 2 1.77389 14.1911 12.4172 -7.00561
259 1 3.54778 14.1911 10.6433 -8.37301
22 2 3.54778 12.4172 12.4172 -6.92369
790 1 5.32167 14.1911 12.4172 -8.64255
1290 3 5.32167 14.1911 8.86945 -6.24522
3037 3 3.54778 12.4172 8.86945 -6.1412
3539 2 5.32167 12.4172 10.6433 -6.89226
23 3 10.6433 12.4172 8.86945 -6.34432
539 3 8.86945 12.4172 10.6433 -6.18772
1038 3 7.09556 12.4172 12.4172 -6.08601
1291 3 7.09556 14.1911 10.6433 -6.33102
1790 1 8.86945 14.1911 12.4172 -8.50728
1789 1 8.86945 14.1911 8.86945 -8.5248
2039 2 10.6433 12.4172 12.4172 -6.85493
2289 3 10.6433 14.1911 10.6433 -6.1724
3538 2 7.09556 12.4172 8.86945 -6.88124
540 3 14.1911 12.4172 8.86945 -6.38312
1539 1 12.4172 12.4172 10.6433 -8.6166
2290 1 12.4172 14.1911 8.86945 -8.47689
2790 3 12.4172 14.1911 12.4172 -6.3215
3039 1 14.1911 12.4172 12.4172 -8.82574
3290 3 14.1911 14.1911 10.6433 -6.20923
2539 3 15.965 12.4172 10.6433 -6.31592
2791 1 15.965 14.1911 8.86945 -8.37413
3792 3 15.965 14.1911 12.4172 -6.40307
24 2 0 15.965 12.4172 -6.97114
1039 1 0 15.965 8.86945 -8.29353
3540 2 1.77389 15.965 10.6433 -6.99583
541 3 5.32167 15.965 10.6433 -6.20733
1040 2 3.54778 15.965 12.4172 -6.95433
1540 1 3.54778 15.965 8.86945 -8.07463
1541 1 8.86945 15.965 10.6433 -8.28295
2041 2 7.09556 15.965 12.4172 -6.89269
2040 2 7.09556 15.965 8.86945 -6.82559
2540 1 10.6433 15.965 8.86945 -8.29256
3040 3 10.6433 15.965 12.4172 -6.19736
25 2 14.1911 15.965 12.4172 -6.91468
2541 3 12.4172 15.965 10.6433 -6.28345
3041 1 14.1911 15.965 8.86945 -8.17952
3541 1 15.965 15.965 10.6433 -8.20261
260 1 0 0 14.1911 -8.41218
542 2 1.77389 1.77389 14.1911 -7.00579
791 1 1.77389 0 15.965 -8.43895
1041 2 0 1.77389 15.965 -7.04634
1292 2 3.54778 0 14.1911 -6.99637
1542 1 5.32167 1.77389 14.1911 -8.66221
1792 2 5.32167 0 15.965 -6.93471
2042 1 3.54778 1.77389 15.965 -8.55177
26 2 10.6433 1.77389 15.965 -6.90307
2292 3 7.09556 0 14.1911 -6.12189
2542 1 8.86945 1.77389 14.1911 -8.59232
2793 1 8.86945 0 15.965 -8.17774
3042 1 7.09556 1.77389 15.965 -8.26753
3292 3 10.6433 0 14.1911 -6.18246
262 2 14.1911 0 14.1911 -6.89113
1042 3 14.1911 1.77389 15.965 -6.34711
3542 1 12.4172 1.77389 14.1911 -8.86094
3794 3 12.4172 0 15.965 -6.39048
543 3 15.965 1.77389 14.1911 -6.45215
793 2 15.965 0 15.965 -6.96135
1293 2 0 3.54778 14.1911 -7.02306
1543 3 1.77389 5.32167 14.1911 -6.45105
1791 3 1.77389 3.54778 15.965 -6.56143
2043 3 0 5.32167 15.965 -6.58943
2291 3 3.54778 3.54778 14.1911 -6.41021
2543 2 5.32167 5.32167 14.1911 -6.9204
2792 2 5.32167 3.54778 15.965 -6.93883
3043 1 3.54778 5.32167 15.965 -8.7865
261 3 10.6433 3.54778 14.1911 -6.0952
27 2 7.09556 5.32167 15.965 -6.88366
1043 1 10.6433 5.32167 15.965 -8.36389
3291 3 7.09556 3.54778 14.1911 -6.32375
3543 1 8.86945 5.32167 14.1911 -8.59258
3793 1 8.86945 3.54778 15.965 -8.22733
544 1 12.4172 5.32167 14.1911 -8.26331
792 3 12.4172 3.54778 15.965 -6.19948
1294 1 14.1911 3.54778 14.1911 -8.52257
2044 1 14.1911 5.32167 15.965 -8.14861
1544 2 15.965 5.32167 14.1911 -6.9321
1793 1 15.965 3.54778 15.965 -8.36162
2293 1 0 7.09556 14.1911 -8.48102
2544 2 1.77389 8.86945 14.1911 -6.94525
2794 2 1.77389 7.09556 15.965 -6.9923
3044 2 0 8.86945 15.965 -6.98574
3294 2 0 10.6433 14.1911 -6.97491
3796 3 1.77389 10.6433 15.965 -6.6479
264 3 3.54778 10.6433 14.1911 -6.31514
28 2 3.54778 8.86945 15.965 -6.99531
795 3 5.32167 10.6433 15.965 -6.54459
3293 3 3.54778 7.09556 14.1911 -6.26715
3544 1 5.32167 8.86945 14.1911 -8.62629
3795 1 5.32167 7.09556 15.965 -8.53672
263 2 7.09556 7.09556 14.1911 -6.86286
545 1 8.86945 8.86945 14.1911 -8.60996
794 3 8.86945 7.09556 15.965 -6.37098
1044 3 7.09556 8.86945 15.965 -6.47299
1296 3 7.09556 10.6433 14.1911 -6.33769
1295 3 10.6433 7.09556 14.1911 -6.09658
1795 2 8.86945 10.6433 15.965 -6.8463
2045 1 10.6433 8.86945 15.965 -8.43048
2295 1 10.6433 10.6433 14.1911 -8.46774
1545 2 12.4172 8.86945 14.1911 -6.90009
1794 1 12.4172 7.09556 15.965 -8.02746
2294 1 14.1911 7.09556 14.1911 -8.24439
2796 3 12.4172 10.6433 15.965 -6.2569
3045 1 14.1911 8.86945 15.965 -8.43062
3295 3 14.1911 10.6433 14.1911 -6.43778
2545 3 15.965 8.86945 14.1911 -6.37776
2795 2 15.965 7.09556 15.965 -6.95389
3797 2 15.965 10.6433 15.965 -6.90039
265 3 0 14.1911 14.1911 -6.54656
29 2 0 12.4172 15.965 -6.91039
796 1 1.77389 14.1911 15.965 -8.67217
3545 3 1.77389 12.4172 14.1911 -6.45512
546 3 5.32167 12.4172 14.1911 -6.32956
1045 1 3.54778 12.4172 15.965 -8.8473
1297 3 3.54778 14.1911 14.1911 -6.44287
1796 3 5.32167 14.1911 15.965 -6.46449
1546 3 8.86945 12.4172 14.1911 -6.28896
2046 3 7.09556 12.4172 15.965 -6.40903
2296 1 7.09556 14.1911 14.1911 -8.53502
2797 2 8.86945 14.1911 15.965 -6.9007
3046 3 10.6433 12.4172 15.965 -6.45449
3296 1 10.6433 14.1911 14.1911 -8.46369
266 3 14.1911 14.1911 14.1911 -6.54203
30 1 14.1911 12.4172 15.965 -8.68153
2546 2 12.4172 12.4172 14.1911 -6.89391
3798 2 12.4172 14.1911 15.965 -7.08698
797 2 15.965 14.1911 15.965 -7.03697
3546 3 15.965 12.4172 14.1911 -6.35271
547 3 1.77389 15.965 14.1911 -6.63379
1046 3 0 15.965 15.965 -6.57125
1547 3 5.32167 15.965 14.1911 -6.42871
2047 3 3.54778 15.965 15.965 -6.44476
31 2 10.6433 15.965 15.965 -7.01233
2547 1 8.86945 15.965 14.1911 -8.49156
3047 2 7.09556 15.965 15.965 -6.90059
1047 2 14.1911 15.965 15.965 -7.18409
3547 1 12.4172 15.965 14.1911 -8.67421
548 2 15.965 15.965 14.1911 -7.09456
1298 2 0 0 17.7389 -6.96203
1548 3 1.77389 1.77389 17.7389 -6.29353
1797 1 1.77389 0 19.5128 -8.6272
2048 1 0 1.77389 19.5128 -8.35783
2299 1 0 0 21.2867 -8.41905
2548 3 1.77389 1.77389 21.2867 -6.13658
2297 2 3.54778 0 17.7389 -6.95345
2549 2 5.32167 1.77389 17.7389 -6.99474
2799 1 5.32167 0 19.5128 -8.49623
3048 3 3.54778 1.77389 19.5128 -6.36482
3298 3 3.54778 0 21.2867 -6.48758
3548 2 5.32167 1.77389 21.2867 -6.93681
501 3 8.86945 1.77389 21.2867 -6.50157
32 2 7.09556 1.77389 19.5128 -6.99486
286 2 10.6433 0 17.7389 -6.93491
285 1 7.09556 0 21.2867 -8.24782
1048 2 10.6433 1.77389 19.5128 -6.9481
1301 3 10.6433 0 21.2867 -6.37456
3300 1 7.09556 0 17.7389 -8.14535
3549 1 8.86945 1.77389 17.7389 -8.04346
3800 1 8.86945 0 19.5128 -8.40606
502 3 12.4172 1.77389 17.7389 -6.56386
799 2 12.4172 0 19.5128 -6.95236
1302 2 14.1911 0 17.7389 -6.96468
1549 3 12.4172 1.77389 21.2867 -6.50637
2049 3 14.1911 1.77389 19.5128 -6.32849
2302 3 14.1911 0 21.2867 -6.1977
1550 1 15.965 1.77389 17.7389 -8.36945
1799 1 15.965 0 19.5128 -8.50104
2550 1 15.965 1.77389 21.2867 -8.31481
2298 2 0 3.54778 17.7389 -6.95312
2551 3 1.77389 5.32167 17.7389 -6.47745
2798 1 1.77389 3.54778 19.5128 -8.51242
3049 1 0 5.32167 19.5128 -8.54917
3299 1 0 3.54778 21.2867 -8.32037
3550 3 1.77389 5.32167 21.2867 -6.15871
503 3 5.32167 5.32167 21.2867 -6.28067
33 2 3.54778 5.32167 19.5128 -6.96041
283 1 3.54778 3.54778 21.2867 -8.55655
3297 3 3.54778 3.54778 17.7389 -6.4791
3551 2 5.32167 5.32167 17.7389 -7.03289
3799 2 5.32167 3.54778 19.5128 -7.02177
504 3 8.86945 5.32167 17.7389 -6.25559
284 3 7.09556 3.54778 17.7389 -6.31286
798 1 8.86945 3.54778 19.5128 -8.39807
1049 1 7.09556 5.32167 19.5128 -8.67951
1300 1 10.6433 3.54778 17.7389 -8.29479
1299 2 7.09556 3.54778 21.2867 -6.99925
1551 3 8.86945 5.32167 21.2867 -6.45884
2050 1 10.6433 5.32167 19.5128 -8.60832
2300 3 10.6433 3.54778 21.2867 -6.53923
1552 2 12.4172 5.32167 17.7389 -6.91124
1798 3 12.4172 3.54778 19.5128 -6.43461
2301 3 14.1911 3.54778 17.7389 -6.32342
2552 3 12.4172 5.32167 21.2867 -6.42677
3050 2 14.1911 5.32167 19.5128 -6.92877
3301 1 14.1911 3.54778 21.2867 -8.5114
2553 1 15.965 5.32167 17.7389 -8.33062
2800 1 15.965 3.54778 19.5128 -8.16608
3552 2 15.965 5.32167 21.2867 -6.98191
505 2 1.77389 8.86945 21.2867 -7.01146
34 1 0 8.86945 19.5128 -8.56057
290 3 0 10.6433 17.7389 -6.41954
288 2 0 7.09556 21.2867 -6.98742
801 1 1.77389 10.6433 19.5128 -8.42526
1306 2 0 10.6433 21.2867 -6.95154
3302 2 0 7.09556 17.7389 -6.98315
3553 3 1.77389 8.86945 17.7389 -6.60981
3801 2 1.77389 7.09556 19.5128 -7.0054
506 2 5.32167 8.86945 17.7389 -7.05177
287 2 3.54778 7.09556 17.7389 -7.10306
800 2 5.32167 7.09556 19.5128 -6.99156
1050 2 3.54778 8.86945 19.5128 -6.99429
1305 3 3.54778 10.6433 17.7389 -6.58968
1303 1 3.54778 7.09556 21.2867 -8.48297
1553 3 5.32167 8.86945 21.2867 -6.20807
1801 3 5.32167 10.6433 19.5128 -6.50221
2305 1 3.54778 10.6433 21.2867 -8.54389
291 3 10.6433 10.6433 21.2867 -6.39364
1304 3 7.09556 7.09556 17.7389 -6.55163
1554 3 8.86945 8.86945 17.7389 -6.51106
1800 3 8.86945 7.09556 19.5128 -6.46691
2051 3 7.09556 8.86945 19.5128 -6.48093
2306 2 7.09556 10.6433 17.7389 -6.91933
2304 2 10.6433 7.09556 17.7389 -6.9414
2303 1 7.09556 7.09556 21.2867 -8.67068
2554 2 8.86945 8.86945 21.2867 -6.9147
2802 1 8.86945 10.6433 19.5128 -8.47746
3051 2 10.6433 8.86945 19.5128 -6.92335
3306 3 10.6433 10.6433 17.7389 -6.29443
3305 1 7.09556 10.6433 21.2867 -8.63729
3303 2 10.6433 7.09556 21.2867 -6.97366
35 2 14.1911 8.86945 19.5128 -7.05805
292 1 14.1911 10.6433 17.7389 -8.26561
289 2 14.1911 7.09556 21.2867 -7.03478
1307 3 14.1911 10.6433 21.2867 -6.45499
2555 1 12.4172 8.86945 17.7389 -8.20618
2801 1 12.4172 7.09556 19.5128 -8.30958
3304 2 14.1911 7.09556 17.7389 -7.02045
3554 1 12.4172 8.86945 21.2867 -8.63654
3803 2 12.4172 10.6433 19.5128 -6.94137
507 2 15.965 8.86945 21.2867 -7.10473
802 2 15.965 10.6433 19.5128 -7.0539
3555 3 15.965 8.86945 17.7389 -6.49353
3802 2 15.965 7.09556 19.5128 -7.0748
508 2 1.77389 12.4172 17.7389 -6.90915
1051 2 0 12.4172 19.5128 -6.98165
1308 3 0 14.1911 17.7389 -6.55099
1555 1 1.77389 12.4172 21.2867 -8.38884
1802 2 1.77389 14.1911 19.5128 -6.8991
2308 1 0 14.1911 21.2867 -8.32364
1556 2 5.32167 12.4172 17.7389 -6.92861
2052 3 3.54778 12.4172 19.5128 -6.35764
2307 2 3.54778 14.1911 17.7389 -6.90845
2556 3 5.32167 12.4172 21.2867 -6.26338
2803 1 5.32167 14.1911 19.5128 -8.42397
3307 1 3.54778 14.1911 21.2867 -8.49401
36 1 10.6433 12.4172 19.5128 -8.33548
294 2 10.6433 14.1911 17.7389 -6.9952
293 2 7.09556 14.1911 21.2867 -6.89333
1309 1 10.6433 14.1911 21.2867 -8.40067
2557 1 8.86945 12.4172 17.7389 -8.40739
3052 3 7.09556 12.4172 19.5128 -6.21043
3308 1 7.09556 14.1911 17.7389 -8.48396
3556 1 8.86945 12.4172 21.2867 -8.23723
3804 1 8.86945 14.1911 19.5128 -8.13567
509 2 12.4172 12.4172 21.2867 -6.84717
803 3 12.4172 14.1911 19.5128 -6.22167
1052 1 14.1911 12.4172 19.5128 -8.70493
1310 2 14.1911 14.1911 17.7389 -7.04199
2309 3 14.1911 14.1911 21.2867 -6.22543
3557 2 12.4172 12.4172 17.7389 -6.97794
510 2 15.965 12.4172 17.7389 -6.97661
1557 2 15.965 12.4172 21.2867 -6.9453
1803 3 15.965 14.1911 19.5128 -6.28347
1558 1 1.77389 15.965 17.7389 -8.71916
2053 3 0 15.965 19.5128 -6.32512
2558 2 1.77389 15.965 21.2867 -6.85877
2559 2 5.32167 15.965 17.7389 -6.95696
3053 3 3.54778 15.965 19.5128 -6.22654
3558 1 5.32167 15.965 21.2867 -8.29743
511 3 8.86945 15.965 21.2867 -6.11606
37 1 7.09556 15.965 19.5128 -8.11921
1053 1 10.6433 15.965 19.5128 -8.24874
3559 3 8.86945 15.965 17.7389 -6.26326
512 2 12.4172 15.965 17.7389 -7.0853
1559 1 12.4172 15.965 21.2867 -8.1931
2054 1 14.1911 15.965 19.5128 -8.47992
1560 2 15.965 15.965 17.7389 -7.03977
2560 1 15.965 15.965 21.2867 -8.67707
39 3 0 1.77389 26.6083 -6.31379
2804 3 1.77389 0 23.0606 -6.46742
3054 1 0 1.77389 23.0606 -8.40219
3309 1 0 0 24.8344 -8.53171
3560 3 1.77389 1.77389 24.8344 -6.27569
3806 1 1.77389 0 26.6083 -8.52853
513 1 5.32167 1.77389 24.8344 -8.75554
38 3 3.54778 1.77389 23.0606 -6.42684
295 2 3.54778 0 24.8344 -6.93787
806 3 5.32167 0 26.6083 -6.35402
1054 2 3.54778 1.77389 26.6083 -6.92899
3807 3 5.32167 0 23.0606 -6.41139
807 2 8.86945 0 23.0606 -6.88556
1055 2 7.09556 1.77389 23.0606 -6.96533
1312 3 7.09556 0 24.8344 -6.27132
1561 1 8.86945 1.77389 24.8344 -8.60835
1806 1 8.86945 0 26.6083 -8.5544
2056 2 10.6433 1.77389 23.0606 -6.99137
2055 3 7.09556 1.77389 26.6083 -6.22437
2311 1 10.6433 0 24.8344 -8.19923
3055 3 10.6433 1.77389 26.6083 -6.31145
40 3 14.1911 1.77389 26.6083 -6.3651
1807 1 12.4172 0 23.0606 -8.55649
2561 3 12.4172 1.77389 24.8344 -6.42715
2807 2 12.4172 0 26.6083 -6.9778
3056 3 14.1911 1.77389 23.0606 -6.33228
3311 2 14.1911 0 24.8344 -6.95054
2808 1 15.965 0 23.0606 -8.29507
3561 2 15.965 1.77389 24.8344 -6.97138
3810 1 15.965 0 26.6083 -8.42314
514 2 1.77389 5.32167 24.8344 -6.98639
41 2 0 5.32167 23.0606 -6.91434
296 2 0 3.54778 24.8344 -6.89837
804 1 1.77389 3.54778 26.6083 -8.49121
1057 1 0 5.32167 26.6083 -8.36821
3805 1 1.77389 3.54778 23.0606 -8.38919
805 3 5.32167 3.54778 23.0606 -6.48563
1056 1 3.54778 5.32167 23.0606 -8.33456
1311 2 3.54778 3.54778 24.8344 -6.92456
1562 3 5.32167 5.32167 24.8344 -6.21886
1804 1 5.32167 3.54778 26.6083 -8.23871
2057 1 3.54778 5.32167 26.6083 -8.47227
42 1 10.6433 5.32167 26.6083 -8.3453
1805 3 8.86945 3.54778 23.0606 -6.66809
2058 2 7.09556 5.32167 23.0606 -6.96179
2310 2 7.09556 3.54778 24.8344 -6.93565
2562 2 8.86945 5.32167 24.8344 -6.98219
2805 3 8.86945 3.54778 26.6083 -6.31035
3058 3 10.6433 5.32167 23.0606 -6.70944
3057 1 7.09556 5.32167 26.6083 -8.43425
3310 2 10.6433 3.54778 24.8344 -6.95015
43 1 14.1911 5.32167 23.0606 -8.74
297 3 14.1911 3.54778 24.8344 -6.46027
1058 2 14.1911 5.32167 26.6083 -6.90484
2806 2 12.4172 3.54778 23.0606 -6.92523
3562 2 12.4172 5.32167 24.8344 -6.974
3808 1 12.4172 3.54778 26.6083 -8.67576
515 3 15.965 5.32167 24.8344 -6.45205
808 1 15.965 3.54778 26.6083 -8.49992
3809 3 15.965 3.54778 23.0606 -6.33278
809 1 1.77389 7.09556 23.0606 -8.42606
1059 2 0 8.86945 23.0606 -6.9869
1313 3 0 7.09556 24.8344 -6.4086
1563 2 1.77389 8.86945 24.8344 -6.98058
1811 3 1.77389 10.6433 23.0606 -6.29946
1808 1 1.77389 7.09556 26.6083 -8.43541
2060 2 0 8.86945 26.6083 -6.97852
2313 1 0 10.6433 24.8344 -8.22432
2811 1 1.77389 10.6433 26.6083 -8.43966
1809 1 5.32167 7.09556 23.0606 -8.28904
2059 1 3.54778 8.86945 23.0606 -8.43591
2312 2 3.54778 7.09556 24.8344 -6.95258
2563 2 5.32167 8.86945 24.8344 -6.89689
2812 3 5.32167 10.6433 23.0606 -6.34282
2809 2 5.32167 7.09556 26.6083 -6.8476
3059 1 3.54778 8.86945 26.6083 -8.45914
3313 3 3.54778 10.6433 24.8344 -6.33908
3813 1 5.32167 10.6433 26.6083 -8.83461
45 3 10.6433 8.86945 23.0606 -6.52606
44 3 7.09556 8.86945 26.6083 -6.24223
299 3 7.09556 10.6433 24.8344 -6.38027
298 3 10.6433 7.09556 24.8344 -6.4463
812 1 8.86945 10.6433 26.6083 -8.38985
1060 1 10.6433 8.86945 26.6083 -8.26712
1315 2 10.6433 10.6433 24.8344 -7.00418
2810 2 8.86945 7.09556 23.0606 -6.95833
3060 3 7.09556 8.86945 23.0606 -6.31363
3312 1 7.09556 7.09556 24.8344 -8.33789
3563 1 8.86945 8.86945 24.8344 -8.5286
3814 2 8.86945 10.6433 23.0606 -6.92386
3811 1 8.86945 7.09556 26.6083 -8.18839
516 2 12.4172 8.86945 24.8344 -6.90187
813 3 12.4172 10.6433 23.0606 -6.4444
810 2 12.4172 7.09556 26.6083 -6.92157
1061 1 14.1911 8.86945 23.0606 -8.55552
1314 3 14.1911 7.09556 24.8344 -6.46248
1812 3 12.4172 10.6433 26.6083 -6.22086
2061 1 14.1911 8.86945 26.6083 -8.44692
2314 1 14.1911 10.6433 24.8344 -8.43829
3812 3 12.4172 7.09556 23.0606 -6.51513
811 2 15.965 7.09556 23.0606 -7.02838
1564 2 15.965 8.86945 24.8344 -6.97707
1813 2 15.965 10.6433 23.0606 -7.06002
1810 3 15.965 7.09556 26.6083 -6.38726
2813 2 15.965 10.6433 26.6083 -6.96567
2062 3 0 12.4172 23.0606 -6.0783
2564 1 1.77389 12.4172 24.8344 -8.30906
2814 2 1.77389 14.1911 23.0606 -6.95247
3062 1 0 12.4172 26.6083 -8.40675
3314 1 0 14.1911 24.8344 -8.16144
3815 1 1.77389 14.1911 26.6083 -8.34005
46 2 3.54778 12.4172 26.6083 -6.82806
300 1 3.54778 14.1911 24.8344 -8.40208
751 1 5.32167 14.1911 26.6083 -8.54154
3061 2 3.54778 12.4172 23.0606 -6.92082
3564 2 5.32167 12.4172 24.8344 -6.96825
3816 2 5.32167 14.1911 23.0606 -6.97351
549 2 8.86945 12.4172 24.8344 -6.9831
47 1 7.09556 12.4172 23.0606 -8.4874
752 2 8.86945 14.1911 23.0606 -6.96259
1063 3 10.6433 12.4172 23.0606 -6.56577
1062 3 7.09556 12.4172 26.6083 -6.3901
1316 2 7.09556 14.1911 24.8344 -6.99539
1814 2 8.86945 14.1911 26.6083 -6.9965
2063 1 10.6433 12.4172 26.6083 -8.4908
2315 2 10.6433 14.1911 24.8344 -7.05546
1565 2 12.4172 12.4172 24.8344 -7.02971
1815 3 12.4172 14.1911 23.0606 -6.35429
2064 1 14.1911 12.4172 23.0606 -8.7389
2815 2 12.4172 14.1911 26.6083 -7.17484
3063 2 14.1911 12.4172 26.6083 -7.03333
3315 2 14.1911 14.1911 24.8344 -7.04007
2565 3 15.965 12.4172 24.8344 -6.62913
2816 2 15.965 14.1911 23.0606 -6.97889
3817 2 15.965 14.1911 26.6083 -7.05768
49 2 0 15.965 26.6083 -6.88313
3064 1 0 15.965 23.0606 -8.22414
3565 2 1.77389 15.965 24.8344 -6.89398
550 2 5.32167 15.965 24.8344 -6.95705