ITEM: TIMESTEP
0
ITEM: NUMBER OF ATOMS
4000
ITEM: BOX BOUNDS pp pp pp
0.0000000000000000e+00 3.5477780000000003e+01
0.0000000000000000e+00 3.5477780000000003e+01
0.0000000000000000e+00 3.5477780000000003e+01
ITEM: ATOMS id type x y z c_peratom
267 3 0 0 0 -6.31202
517 1 1.77389 1.77389 0 -8.36461
766 3 1.77389 0 1.77389 -6.42312
1016 1 0 1.77389 1.77389 -8.41398
1269 3 0 0 3.54778 -6.37317
1517 2 1.77389 1.77389 3.54778 -6.94734
1267 3 3.54778 0 0 -6.27958
1518 2 5.32167 1.77389 0 -6.91463
1767 1 5.32167 0 1.77389 -8.51017
2017 2 3.54778 1.77389 1.77389 -6.9519
2267 2 3.54778 0 3.54778 -6.9909
2517 2 5.32167 1.77389 3.54778 -7.11221
1 2 10.6433 1.77389 1.77389 -7.00997
270 3 10.6433 0 3.54778 -6.47288
2269 2 7.09556 0 0 -6.97022
2518 2 8.86945 1.77389 0 -6.97504
2768 1 8.86945 0 1.77389 -8.53971
3017 1 7.09556 1.77389 1.77389 -8.60162
3269 2 10.6433 0 0 -6.98178
3268 2 7.09556 0 3.54778 -6.96985
3517 2 8.86945 1.77389 3.54778 -7.02503
271 2 14.1911 0 0 -6.92516
518 2 12.4172 1.77389 3.54778 -6.96881
1017 3 14.1911 1.77389 1.77389 -6.27553
1272 3 14.1911 0 3.54778 -6.38393
3518 3 12.4172 1.77389 0 -6.40128
3769 1 12.4172 0 1.77389 -8.91395
519 3 15.965 1.77389 0 -6.31655
768 3 15.965 0 1.77389 -6.38554
1519 1 15.965 1.77389 3.54778 -8.31075
1268 2 0 3.54778 0 -6.92401
1520 3 1.77389 5.32167 0 -6.40257
1766 1 1.77389 3.54778 1.77389 -8.31549
2018 1 0 5.32167 1.77389 -8.38639
2268 3 0 3.54778 3.54778 -6.37
2519 1 1.77389 5.32167 3.54778 -8.48857
2266 3 3.54778 3.54778 0 -6.35789
2520 1 5.32167 5.32167 0 -8.77834
2767 3 5.32167 3.54778 1.77389 -6.60584
3018 2 3.54778 5.32167 1.77389 -6.96822
3266 2 3.54778 3.54778 3.54778 -7.15326
3519 2 5.32167 5.32167 3.54778 -7.06267
2 2 7.09556 5.32167 1.77389 -6.96919
269 3 10.6433 3.54778 0 -6.46725
268 3 7.09556 3.54778 3.54778 -6.50284
520 3 8.86945 5.32167 3.54778 -6.45483
1018 1 10.6433 5.32167 1.77389 -8.71915
1270 3 10.6433 3.54778 3.54778 -6.63121
3267 3 7.09556 3.54778 0 -6.46247
3520 2 8.86945 5.32167 0 -6.87851
3768 3 8.86945 3.54778 1.77389 -6.55053
521 1 12.4172 5.32167 0 -8.21546
767 2 12.4172 3.54778 1.77389 -6.87732
1271 1 14.1911 3.54778 0 -8.38135
1521 3 12.4172 5.32167 3.54778 -6.32666
2019 3 14.1911 5.32167 1.77389 -6.19863
2270 1 14.1911 3.54778 3.54778 -8.37325
1522 3 15.965 5.32167 0 -6.36264
1768 1 15.965 3.54778 1.77389 -8.2791
2521 1 15.965 5.32167 3.54778 -8.05827
275 1 0 10.6433 3.54778 -8.3239
2271 1 0 7.09556 0 -8.3889
2522 1 1.77389 8.86945 0 -8.42925
2769 3 1.77389 7.09556 1.77389 -6.45032
3019 3 0 8.86945 1.77389 -6.22979
3273 2 0 10.6433 0 -6.93057
3271 2 0 7.09556 3.54778 -6.93575
3521 3 1.77389 8.86945 3.54778 -6.56158
3771 1 1.77389 10.6433 1.77389 -8.40299
3 2 3.54778 8.86945 1.77389 -7.02049
274 2 3.54778 10.6433 0 -6.93683
272 2 3.54778 7.09556 3.54778 -7.14571
522 2 5.32167 8.86945 3.54778 -7.12506
770 3 5.32167 10.6433 1.77389 -6.66417
1275 3 3.54778 10.6433 3.54778 -6.49979
3270 3 3.54778 7.09556 0 -6.41372
3522 2 5.32167 8.86945 0 -6.93978
3770 3 5.32167 7.09556 1.77389 -6.67899
273 3 7.09556 7.09556 0 -6.45372
523 2 8.86945 8.86945 0 -6.97402
769 2 8.86945 7.09556 1.77389 -7.00962
1019 3 7.09556 8.86945 1.77389 -6.69901
1276 3 7.09556 10.6433 0 -6.43333
1274 1 10.6433 7.09556 0 -8.48282
1273 3 7.09556 7.09556 3.54778 -6.65142
1523 2 8.86945 8.86945 3.54778 -7.04925
1770 2 8.86945 10.6433 1.77389 -7.05133
2020 3 10.6433 8.86945 1.77389 -6.66167
2275 2 10.6433 10.6433 0 -7.02159
2274 1 7.09556 10.6433 3.54778 -8.64519
2272 3 10.6433 7.09556 3.54778 -6.44955
3274 2 10.6433 10.6433 3.54778 -6.99304
276 2 14.1911 10.6433 3.54778 -6.93615
1524 2 12.4172 8.86945 0 -6.97745
1769 3 12.4172 7.09556 1.77389 -6.37551
2273 2 14.1911 7.09556 0 -6.95707
2523 2 12.4172 8.86945 3.54778 -6.96126
2771 3 12.4172 10.6433 1.77389 -6.56849
3020 2 14.1911 8.86945 1.77389 -6.98761
3275 1 14.1911 10.6433 0 -8.43587
3272 1 14.1911 7.09556 3.54778 -8.47372
2524 1 15.965 8.86945 0 -8.34036
2770 2 15.965 7.09556 1.77389 -6.9003
3523 3 15.965 8.86945 3.54778 -6.30481
3772 1 15.965 10.6433 1.77389 -8.26739
4 1 0 12.4172 1.77389 -8.04721
277 1 0 14.1911 0 -8.29015
524 1 1.77389 12.4172 3.54778 -8.07211
771 1 1.77389 14.1911 1.77389 -8.10372
1278 1 0 14.1911 3.54778 -8.0991
3524 3 1.77389 12.4172 0 -6.25178
525 3 5.32167 12.4172 0 -6.31245
1020 3 3.54778 12.4172 1.77389 -6.27351
1277 2 3.54778 14.1911 0 -6.82994
1525 2 5.32167 12.4172 3.54778 -6.92806
1771 1 5.32167 14.1911 1.77389 -8.41124
2276 1 3.54778 14.1911 3.54778 -8.1377
278 1 10.6433 14.1911 3.54778 -8.24732
1526 1 8.86945 12.4172 0 -8.25633
2021 2 7.09556 12.4172 1.77389 -6.92918
2277 1 7.09556 14.1911 0 -8.19237
2525 2 8.86945 12.4172 3.54778 -7.02669
2772 2 8.86945 14.1911 1.77389 -6.91842
3021 1 10.6433 12.4172 1.77389 -8.49361
3277 3 10.6433 14.1911 0 -6.25804
3276 3 7.09556 14.1911 3.54778 -6.46788
5 2 14.1911 12.4172 1.77389 -6.96448
279 1 14.1911 14.1911 0 -8.18221
1279 1 14.1911 14.1911 3.54778 -8.39388
2526 2 12.4172 12.4172 0 -6.96301
3525 3 12.4172 12.4172 3.54778 -6.33805
3773 2 12.4172 14.1911 1.77389 -6.93762
526 1 15.965 12.4172 3.54778 -8.29912
772 3 15.965 14.1911 1.77389 -6.31521
3526 1 15.965 12.4172 0 -8.23527
527 2 1.77389 15.965 0 -7.03112
1021 1 0 15.965 1.77389 -8.17484
1527 2 1.77389 15.965 3.54778 -7.01204
1528 2 5.32167 15.965 0 -6.97976
2022 1 3.54778 15.965 1.77389 -7.96528
2527 3 5.32167 15.965 3.54778 -6.06938
6 1 10.6433 15.965 1.77389 -8.36852
2528 3 8.86945 15.965 0 -6.07852
3022 1 7.09556 15.965 1.77389 -8.33178
3527 2 8.86945 15.965 3.54778 -6.91164
528 2 12.4172 15.965 3.54778 -6.994
1022 1 14.1911 15.965 1.77389 -8.25068
3528 2 12.4172 15.965 0 -6.97134
529 2 15.965 15.965 0 -6.91362
1529 2 15.965 15.965 3.54778 -6.95728
1772 1 1.77389 0 5.32167 -8.561
2023 3 0 1.77389 5.32167 -6.38581
2278 1 0 0 7.09556 -8.30813
2529 3 1.77389 1.77389 7.09556 -6.33113
2775 2 5.32167 0 5.32167 -6.98925
2774 1 3.54778 0 7.09556 -8.32573
3024 2 5.32167 1.77389 7.09556 -7.03335
3023 2 3.54778 1.77389 5.32167 -7.11039
7 1 7.09556 1.77389 5.32167 -8.60935
1023 2 10.6433 1.77389 5.32167 -7.07343
3278 2 7.09556 0 7.09556 -6.90157
3529 2 8.86945 1.77389 7.09556 -7.00702
3776 1 10.6433 0 7.09556 -8.72465
3775 1 8.86945 0 5.32167 -8.43214
8 3 12.4172 1.77389 7.09556 -6.46195
280 3 14.1911 0 7.09556 -6.3701
775 3 12.4172 0 5.32167 -6.5632
2024 3 14.1911 1.77389 5.32167 -6.38008
530 3 15.965 1.77389 7.09556 -6.28586
1775 1 15.965 0 5.32167 -8.48134
773 1 0 3.54778 7.09556 -8.52216
1024 3 1.77389 5.32167 7.09556 -6.54469
2773 2 1.77389 3.54778 5.32167 -7.02827
3025 2 0 5.32167 5.32167 -6.96514
9 2 3.54778 5.32167 5.32167 -7.09607
1280 3 3.54778 3.54778 7.09556 -6.6717
1530 1 5.32167 5.32167 7.09556 -8.54056
3774 2 5.32167 3.54778 5.32167 -7.08207
774 2 8.86945 3.54778 5.32167 -7.00408
1025 1 7.09556 5.32167 5.32167 -8.57132
1773 3 7.09556 3.54778 7.09556 -6.37433
2026 2 8.86945 5.32167 7.09556 -7.00411
2025 3 10.6433 5.32167 5.32167 -6.48609
2279 2 10.6433 3.54778 7.09556 -6.99598
1774 2 12.4172 3.54778 5.32167 -6.92215
2530 1 12.4172 5.32167 7.09556 -8.35263
2776 3 14.1911 3.54778 7.09556 -6.20603
3026 1 14.1911 5.32167 5.32167 -8.25857
2777 1 15.965 3.54778 5.32167 -8.37865
3027 3 15.965 5.32167 7.09556 -6.21192
10 2 0 8.86945 5.32167 -6.97545
778 3 1.77389 10.6433 5.32167 -6.38477
1777 3 0 10.6433 7.09556 -6.30034
3279 1 0 7.09556 7.09556 -8.25068
3530 1 1.77389 8.86945 7.09556 -8.54612
3777 2 1.77389 7.09556 5.32167 -7.03948
11 2 5.32167 8.86945 7.09556 -7.02452
776 3 5.32167 7.09556 5.32167 -6.60199
1026 2 3.54778 8.86945 5.32167 -7.10782
1778 2 5.32167 10.6433 5.32167 -7.04875
2280 2 3.54778 10.6433 7.09556 -6.95687
3778 2 3.54778 7.09556 7.09556 -6.99155
281 1 7.09556 7.09556 7.09556 -8.19514
531 2 8.86945 8.86945 7.09556 -6.95525
777 1 10.6433 7.09556 7.09556 -8.20425
1776 1 8.86945 7.09556 5.32167 -8.42534
2027 2 7.09556 8.86945 5.32167 -7.01049
2780 2 8.86945 10.6433 5.32167 -7.00767
2779 3 7.09556 10.6433 7.09556 -6.50432
3028 1 10.6433 8.86945 5.32167 -8.333
3280 3 10.6433 10.6433 7.09556 -6.29584
12 1 14.1911 8.86945 5.32167 -8.2925
1027 1 12.4172 8.86945 7.09556 -8.42573
1281 3 14.1911 7.09556 7.09556 -6.0679
2778 3 12.4172 7.09556 5.32167 -6.14183
3781 3 14.1911 10.6433 7.09556 -6.19787
3780 1 12.4172 10.6433 5.32167 -8.40245
779 1 15.965 10.6433 5.32167 -8.64168
1531 2 15.965 8.86945 7.09556 -6.92112
3779 1 15.965 7.09556 5.32167 -8.42813
282 2 0 14.1911 7.09556 -6.89562
1028 2 0 12.4172 5.32167 -6.88461
1779 1 1.77389 14.1911 5.32167 -8.27796
2029 3 1.77389 12.4172 7.09556 -6.29792
780 2 3.54778 14.1911 7.09556 -6.91602
2028 1 3.54778 12.4172 5.32167 -8.40303
2531 2 5.32167 12.4172 7.09556 -6.96676
2781 1 5.32167 14.1911 5.32167 -8.67311
13 3 10.6433 12.4172 5.32167 -6.37648
1282 3 7.09556 14.1911 7.09556 -6.35991
1780 1 10.6433 14.1911 7.09556 -8.26221
3030 3 8.86945 12.4172 7.09556 -6.41411
3029 3 7.09556 12.4172 5.32167 -6.60471
3782 2 8.86945 14.1911 5.32167 -6.98628
781 1 12.4172 14.1911 5.32167 -8.35137
1029 2 14.1911 12.4172 5.32167 -6.9265
2281 3 14.1911 14.1911 7.09556 -6.2936
3531 1 12.4172 12.4172 7.09556 -8.38111
14 2 15.965 12.4172 7.09556 -6.93119
1781 2 15.965 14.1911 5.32167 -6.92306
532 3 1.77389 15.965 7.09556 -6.22254
2030 1 0 15.965 5.32167 -8.31718
1030 2 5.32167 15.965 7.09556 -6.93975
3031 3 3.54778 15.965 5.32167 -6.15637
15 2 7.09556 15.965 5.32167 -6.9299
1031 1 10.6433 15.965 5.32167 -8.14609
1532 1 8.86945 15.965 7.09556 -8.30385
2032 2 12.4172 15.965 7.09556 -6.94702
2031 3 14.1911 15.965 5.32167 -6.24414
2532 1 15.965 15.965 7.09556 -8.58722
16 1 0 1.77389 12.4172 -8.44729
2782 1 1.77389 0 8.86945 -8.31886
3032 1 0 1.77389 8.86945 -8.52591
3281 2 0 0 10.6433 -6.8956
3533 3 1.77389 1.77389 10.6433 -6.50255
3783 2 1.77389 0 12.4172 -6.93506
251 2 3.54778 0 10.6433 -6.89099
533 3 5.32167 1.77389 10.6433 -6.46741
783 1 5.32167 0 12.4172 -8.54727
1032 3 3.54778 1.77389 12.4172 -6.60075
3282 1 5.32167 0 8.86945 -8.34491
3532 2 3.54778 1.77389 8.86945 -6.97607
17 3 7.09556 1.77389 8.86945 -6.3979
534 2 10.6433 1.77389 8.86945 -6.98536
1285 1 7.09556 0 10.6433 -8.52439
1533 1 8.86945 1.77389 10.6433 -8.35507
1784 2 8.86945 0 12.4172 -6.96525
2033 3 7.09556 1.77389 12.4172 -6.16391
2284 2 10.6433 0 10.6433 -7.01901
3033 3 10.6433 1.77389 12.4172 -6.30739
3784 3 8.86945 0 8.86945 -6.4008
253 2 12.4172 0 8.86945 -6.96919
18 3 14.1911 1.77389 12.4172 -6.17037
1033 1 14.1911 1.77389 8.86945 -8.69963
2533 3 12.4172 1.77389 10.6433 -6.35285
2785 3 12.4172 0 12.4172 -6.52354
3284 2 14.1911 0 10.6433 -6.89524
784 3 15.965 0 8.86945 -6.26234
3534 3 15.965 1.77389 10.6433 -6.16242
3786 1 15.965 0 12.4172 -8.28828
252 2 0 3.54778 10.6433 -6.9904
535 2 1.77389 5.32167 10.6433 -7.04986
782 2 1.77389 3.54778 12.4172 -7.07893
1034 3 0 5.32167 12.4172 -6.53196
1283 3 1.77389 3.54778 8.86945 -6.50019
1534 1 0 5.32167 8.86945 -8.40023
1284 2 3.54778 3.54778 10.6433 -7.09858
1535 1 5.32167 5.32167 10.6433 -8.49281
1783 2 5.32167 3.54778 12.4172 -6.92665
1782 3 5.32167 3.54778 8.86945 -6.51861
2035 2 3.54778 5.32167 12.4172 -7.07143
2034 2 3.54778 5.32167 8.86945 -6.98955
19 3 10.6433 5.32167 12.4172 -6.03636
2283 1 8.86945 3.54778 8.86945 -8.41766
2282 2 7.09556 3.54778 10.6433 -6.85208
2535 3 8.86945 5.32167 10.6433 -6.2215
2534 1 7.09556 5.32167 8.86945 -8.22182
2783 1 8.86945 3.54778 12.4172 -8.44062
3035 2 10.6433 5.32167 8.86945 -6.93262
3034 3 7.09556 5.32167 12.4172 -6.37854
3283 1 10.6433 3.54778 10.6433 -8.36806
254 1 14.1911 3.54778 10.6433 -8.1406
1035 2 14.1911 5.32167 12.4172 -6.93365
2784 1 12.4172 3.54778 8.86945 -8.29169
3536 2 12.4172 5.32167 10.6433 -6.89279
3535 1 14.1911 5.32167 8.86945 -8.50657
3785 1 12.4172 3.54778 12.4172 -8.39378
536 1 15.965 5.32167 10.6433 -8.17527
785 1 15.965 3.54778 12.4172 -8.14355
3285 2 15.965 3.54778 8.86945 -6.90249
20 3 0 8.86945 8.86945 -6.20782
1286 2 0 7.09556 10.6433 -6.93981
1536 1 1.77389 8.86945 10.6433 -8.44204
1785 2 1.77389 7.09556 12.4172 -6.98852
2036 2 0 8.86945 12.4172 -6.9822
2287 2 0 10.6433 10.6433 -6.90098
2286 3 1.77389 10.6433 8.86945 -6.25686
2787 2 1.77389 10.6433 12.4172 -7.02317
3787 3 1.77389 7.09556 8.86945 -6.28876
255 2 5.32167 7.09556 8.86945 -6.93897
537 1 3.54778 8.86945 8.86945 -8.26108
2285 1 3.54778 7.09556 10.6433 -8.40459
2536 3 5.32167 8.86945 10.6433 -6.23368
2788 1 5.32167 10.6433 8.86945 -8.27432
2786 2 5.32167 7.09556 12.4172 -6.97688
3036 2 3.54778 8.86945 12.4172 -6.9597
3287 1 3.54778 10.6433 10.6433 -8.31002
3789 3 5.32167 10.6433 12.4172 -6.32433
256 1 10.6433 7.09556 10.6433 -8.46643
257 1 7.09556 10.6433 10.6433 -8.23851
21 1 7.09556 8.86945 12.4172 -8.44686
788 1 8.86945 10.6433 12.4172 -8.36332
786 1 8.86945 7.09556 8.86945 -8.39486
1037 2 10.6433 8.86945 12.4172 -6.91874
1036 3 7.09556 8.86945 8.86945 -6.26623
1289 1 10.6433 10.6433 10.6433 -8.44335
1537 3 10.6433 8.86945 8.86945 -6.16138
3288 1 8.86945 10.6433 8.86945 -8.63006
3286 3 7.09556 7.09556 10.6433 -6.36618
3537 2 8.86945 8.86945 10.6433 -6.91905
3788 2 8.86945 7.09556 12.4172 -6.90792
538 1 12.4172 8.86945 10.6433 -8.41039
787 1 12.4172 7.09556 12.4172 -8.31684
1288 3 14.1911 7.09556 10.6433 -6.22453
1287 3 12.4172 7.09556 8.86945 -6.13211
1788 3 12.4172 10.6433 12.4172 -6.57821
2038 3 14.1911 8.86945 12.4172 -6.38425
2037 1 14.1911 8.86945 8.86945 -8.45299
2288 2 14.1911 10.6433 10.6433 -6.99312
3790 2 12.4172 10.6433 8.86945 -6.90788
258 2 15.965 10.6433 8.86945 -6.95823
1538 1 15.965 8.86945 10.6433 -8.49307
1787 2 15.965 7.09556 12.4172 -6.86649
1786 2 15.965 7.09556 8.86945 -6.97248
2789 2 15.965 10.6433 12.4172 -6.91784
789 3 1.77389 14.1911 8.86945 -6.31247
2538 3 1.77389 12.4172 10.6433 -6.38638
2537 1 0 12.4172 8.86945 -8.71395
3038 2 0 12.4172 12.4172 -7.03714
3289 2 0 14.1911 10.6433 -7.00465
3791 2 1.77389 14.1911 12.4172 -7.08576
259 3 3.54778 14.1911 10.6433 -6.42216
22 1 3.54778 12.4172 12.4172 -8.54158
790 2 5.32167 14.1911 12.4172 -7.00604
1290 1 5.32167 14.1911 8.86945 -8.35546
3037 1 3.54778 12.4172 8.86945 -8.55265
3539 2 5.32167 12.4172 10.6433 -7.03179
23 3 10.6433 12.4172 8.86945 -6.391
539 2 8.86945 12.4172 10.6433 -7.00883
1038 2 7.09556 12.4172 12.4172 -6.96319
1291 3 7.09556 14.1911 10.6433 -6.41725
1790 1 8.86945 14.1911 12.4172 -8.75227
1789 2 8.86945 14.1911 8.86945 -6.94157
2039 3 10.6433 12.4172 12.4172 -6.52836
2289 2 10.6433 14.1911 10.6433 -7.02038
3538 1 7.09556 12.4172 8.86945 -8.37958
540 1 14.1911 12.4172 8.86945 -8.37665
1539 2 12.4172 12.4172 10.6433 -7.03194
2290 2 12.4172 14.1911 8.86945 -6.96015
2790 2 12.4172 14.1911 12.4172 -7.05554
3039 2 14.1911 12.4172 12.4172 -7.02616
3290 2 14.1911 14.1911 10.6433 -6.96993
2539 1 15.965 12.4172 10.6433 -8.20031
2791 1 15.965 14.1911 8.86945 -8.37607
3792 1 15.965 14.1911 12.4172 -8.46956
24 3 0 15.965 12.4172 -6.38277
1039 1 0 15.965 8.86945 -8.44373
3540 2 1.77389 15.965 10.6433 -6.98752
541 2 5.32167 15.965 10.6433 -7.00554
1040 3 3.54778 15.965 12.4172 -6.49769
1540 1 3.54778 15.965 8.86945 -8.53989
1541 2 8.86945 15.965 10.6433 -6.96046
2041 2 7.09556 15.965 12.4172 -6.9858
2040 1 7.09556 15.965 8.86945 -8.58987
2540 1 10.6433 15.965 8.86945 -8.31662
3040 3 10.6433 15.965 12.4172 -6.49963
25 1 14.1911 15.965 12.4172 -8.53467
2541 3 12.4172 15.965 10.6433 -6.37834
3041 3 14.1911 15.965 8.86945 -6.39811
3541 3 15.965 15.965 10.6433 -6.253
260 3 0 0 14.1911 -6.25948
542 2 1.77389 1.77389 14.1911 -6.94796
791 3 1.77389 0 15.965 -6.4001
1041 2 0 1.77389 15.965 -6.88963
1292 2 3.54778 0 14.1911 -6.96023
1542 1 5.32167 1.77389 14.1911 -8.36353
1792 1 5.32167 0 15.965 -8.517
2042 1 3.54778 1.77389 15.965 -8.3547
26 3 10.6433 1.77389 15.965 -6.55205
2292 2 7.09556 0 14.1911 -6.88564
2542 1 8.86945 1.77389 14.1911 -8.64531
2793 3 8.86945 0 15.965 -6.64858
3042 3 7.09556 1.77389 15.965 -6.46625
3292 2 10.6433 0 14.1911 -6.92163
262 1 14.1911 0 14.1911 -8.42312
1042 1 14.1911 1.77389 15.965 -8.51903
3542 2 12.4172 1.77389 14.1911 -6.80542
3794 3 12.4172 0 15.965 -6.46865
543 1 15.965 1.77389 14.1911 -8.25799
793 2 15.965 0 15.965 -7.01094
1293 1 0 3.54778 14.1911 -8.65482
1543 3 1.77389 5.32167 14.1911 -6.51403
1791 2 1.77389 3.54778 15.965 -6.94753
2043 3 0 5.32167 15.965 -6.40787
2291 3 3.54778 3.54778 14.1911 -6.51579
2543 1 5.32167 5.32167 14.1911 -8.57039
2792 2 5.32167 3.54778 15.965 -6.97408
3043 3 3.54778 5.32167 15.965 -6.45814
261 1 10.6433 3.54778 14.1911 -8.51813
27 2 7.09556 5.32167 15.965 -7.04361
1043 2 10.6433 5.32167 15.965 -6.97328
3291 1 7.09556 3.54778 14.1911 -8.4637
3543 3 8.86945 5.32167 14.1911 -6.35532
3793 3 8.86945 3.54778 15.965 -6.51954
544 1 12.4172 5.32167 14.1911 -8.2932
792 3 12.4172 3.54778 15.965 -6.42132
1294 3 14.1911 3.54778 14.1911 -6.19047
2044 3 14.1911 5.32167 15.965 -6.28495
1544 1 15.965 5.32167 14.1911 -8.57325
1793 3 15.965 3.54778 15.965 -6.16423
2293 1 0 7.09556 14.1911 -8.59002
2544 1 1.77389 8.86945 14.1911 -8.27452
2794 1 1.77389 7.09556 15.965 -8.79401
3044 3 0 8.86945 15.965 -6.26052
3294 1 0 10.6433 14.1911 -8.43093
3796 1 1.77389 10.6433 15.965 -8.23197
264 1 3.54778 10.6433 14.1911 -8.39511
28 3 3.54778 8.86945 15.965 -6.21024
795 2 5.32167 10.6433 15.965 -6.88742
3293 3 3.54778 7.09556 14.1911 -6.40731
3544 2 5.32167 8.86945 14.1911 -6.95209
3795 1 5.32167 7.09556 15.965 -8.62334
263 2 7.09556 7.09556 14.1911 -6.94819
545 1 8.86945 8.86945 14.1911 -8.27824
794 3 8.86945 7.09556 15.965 -6.46817
1044 3 7.09556 8.86945 15.965 -6.30362
1296 2 7.09556 10.6433 14.1911 -6.97329
1295 1 10.6433 7.09556 14.1911 -8.41228
1795 1 8.86945 10.6433 15.965 -8.51665
2045 2 10.6433 8.86945 15.965 -6.92464
2295 3 10.6433 10.6433 14.1911 -6.49199
1545 3 12.4172 8.86945 14.1911 -6.43445
1794 1 12.4172 7.09556 15.965 -8.35194
2294 1 14.1911 7.09556 14.1911 -8.37548
2796 2 12.4172 10.6433 15.965 -6.90837
3045 2 14.1911 8.86945 15.965 -6.96055
3295 2 14.1911 10.6433 14.1911 -6.98156
2545 3 15.965 8.86945 14.1911 -6.37755
2795 2 15.965 7.09556 15.965 -6.89529
3797 1 15.965 10.6433 15.965 -8.42193
265 2 0 14.1911 14.1911 -7.03904
29 1 0 12.4172 15.965 -8.18356
796 3 1.77389 14.1911 15.965 -6.33886
3545 2 1.77389 12.4172 14.1911 -7.02326
546 2 5.32167 12.4172 14.1911 -7.03051
1045 2 3.54778 12.4172 15.965 -6.92258
1297 2 3.54778 14.1911 14.1911 -6.98235
1796 1 5.32167 14.1911 15.965 -8.46123
1546 3 8.86945 12.4172 14.1911 -6.34773
2046 3 7.09556 12.4172 15.965 -6.29425
2296 1 7.09556 14.1911 14.1911 -8.42309
2797 2 8.86945 14.1911 15.965 -6.84389
3046 3 10.6433 12.4172 15.965 -6.36964
3296 2 10.6433 14.1911 14.1911 -6.92917
266 3 14.1911 14.1911 14.1911 -6.60576
30 3 14.1911 12.4172 15.965 -6.44387
2546 3 12.4172 12.4172 14.1911 -6.69174
3798 3 12.4172 14.1911 15.965 -6.44241
797 2 15.965 14.1911 15.965 -6.96364
3546 3 15.965 12.4172 14.1911 -6.34221
547 3 1.77389 15.965 14.1911 -6.43012
1046 1 0 15.965 15.965 -8.55912
1547 1 5.32167 15.965 14.1911 -8.28664
2047 1 3.54778 15.965 15.965 -8.47091
31 1 10.6433 15.965 15.965 -8.45964
2547 3 8.86945 15.965 14.1911 -6.26901
3047 1 7.09556 15.965 15.965 -8.38509
1047 2 14.1911 15.965 15.965 -7.06701
3547 2 12.4172 15.965 14.1911 -6.96931
548 3 15.965 15.965 14.1911 -6.4801
1298 3 0 0 17.7389 -6.50579
1548 1 1.77389 1.77389 17.7389 -8.54925
1797 3 1.77389 0 19.5128 -6.61305
2048 3 0 1.77389 19.5128 -6.60192
2299 3 0 0 21.2867 -6.68841
2548 2 1.77389 1.77389 21.2867 -7.03237
2297 1 3.54778 0 17.7389 -8.60028
2549 2 5.32167 1.77389 17.7389 -7.0026
2799 3 5.32167 0 19.5128 -6.62633
3048 2 3.54778 1.77389 19.5128 -7.00659
3298 2 3.54778 0 21.2867 -6.97579
3548 3 5.32167 1.77389 21.2867 -6.69912
501 2 8.86945 1.77389 21.2867 -7.07967
32 2 7.09556 1.77389 19.5128 -7.15639
286 3 10.6433 0 17.7389 -6.49394
285 2 7.09556 0 21.2867 -7.06777
1048 1 10.6433 1.77389 19.5128 -8.41281
1301 1 10.6433 0 21.2867 -8.24035
3300 2 7.09556 0 17.7389 -7.07476
3549 2 8.86945 1.77389 17.7389 -7.11858
3800 2 8.86945 0 19.5128 -7.07169
502 2 12.4172 1.77389 17.7389 -6.90051
799 1 12.4172 0 19.5128 -8.53299
1302 3 14.1911 0 17.7389 -6.42738
1549 3 12.4172 1.77389 21.2867 -6.27155
2049 1 14.1911 1.77389 19.5128 -8.30719
2302 3 14.1911 0 21.2867 -6.38114
1550 1 15.965 1.77389 17.7389 -8.51507
1799 2 15.965 0 19.5128 -6.90985
2550 1 15.965 1.77389 21.2867 -8.38271
2298 2 0 3.54778 17.7389 -6.92554
2551 3 1.77389 5.32167 17.7389 -6.45721
2798 1 1.77389 3.54778 19.5128 -8.44636
3049 1 0 5.32167 19.5128 -8.33933
3299 2 0 3.54778 21.2867 -7.00309
3550 1 1.77389 5.32167 21.2867 -8.34927
503 1 5.32167 5.32167 21.2867 -8.52386
33 2 3.54778 5.32167 19.5128 -6.96514
283 2 3.54778 3.54778 21.2867 -6.98261
3297 3 3.54778 3.54778 17.7389 -6.42228
3551 2 5.32167 5.32167 17.7389 -6.97701
3799 1 5.32167 3.54778 19.5128 -8.52875
504 2 8.86945 5.32167 17.7389 -7.07954
284 2 7.09556 3.54778 17.7389 -7.15129
798 2 8.86945 3.54778 19.5128 -7.07233
1049 1 7.09556 5.32167 19.5128 -8.52125
1300 2 10.6433 3.54778 17.7389 -7.03809
1299 2 7.09556 3.54778 21.2867 -7.11275
1551 2 8.86945 5.32167 21.2867 -6.96585
2050 3 10.6433 5.32167 19.5128 -6.51914
2300 3 10.6433 3.54778 21.2867 -6.43299
1552 2 12.4172 5.32167 17.7389 -6.9337
1798 1 12.4172 3.54778 19.5128 -8.49425
2301 3 14.1911 3.54778 17.7389 -6.29801
2552 1 12.4172 5.32167 21.2867 -8.61478
3050 3 14.1911 5.32167 19.5128 -6.34358
3301 2 14.1911 3.54778 21.2867 -6.90126
2553 1 15.965 5.32167 17.7389 -8.7162
2800 2 15.965 3.54778 19.5128 -6.91618
3552 1 15.965 5.32167 21.2867 -8.59358
505 1 1.77389 8.86945 21.2867 -8.26165
34 1 0 8.86945 19.5128 -8.26781
290 1 0 10.6433 17.7389 -8.55835
288 1 0 7.09556 21.2867 -8.20219
801 2 1.77389 10.6433 19.5128 -6.91214
1306 1 0 10.6433 21.2867 -8.08752
3302 2 0 7.09556 17.7389 -6.87176
3553 2 1.77389 8.86945 17.7389 -6.92183
3801 2 1.77389 7.09556 19.5128 -7.00909
506 1 5.32167 8.86945 17.7389 -8.40347
287 3 3.54778 7.09556 17.7389 -6.43003
800 3 5.32167 7.09556 19.5128 -6.32754
1050 2 3.54778 8.86945 19.5128 -6.90333
1305 1 3.54778 10.6433 17.7389 -8.58492
1303 3 3.54778 7.09556 21.2867 -6.21902
1553 1 5.32167 8.86945 21.2867 -8.28621
1801 3 5.32167 10.6433 19.5128 -6.21683
2305 1 3.54778 10.6433 21.2867 -8.33361
291 3 10.6433 10.6433 21.2867 -6.56408
1304 2 7.09556 7.09556 17.7389 -6.95601
1554 3 8.86945 8.86945 17.7389 -6.30038
1800 3 8.86945 7.09556 19.5128 -6.43176
2051 1 7.09556 8.86945 19.5128 -8.40118
2306 1 7.09556 10.6433 17.7389 -8.47425
2304 1 10.6433 7.09556 17.7389 -8.76993
2303 2 7.09556 7.09556 21.2867 -6.9962
2554 2 8.86945 8.86945 21.2867 -6.98577
2802 2 8.86945 10.6433 19.5128 -6.93184
3051 3 10.6433 8.86945 19.5128 -6.39264
3306 1 10.6433 10.6433 17.7389 -8.48197
3305 1 7.09556 10.6433 21.2867 -8.33833
3303 1 10.6433 7.09556 21.2867 -8.60179
35 3 14.1911 8.86945 19.5128 -6.34795
292 1 14.1911 10.6433 17.7389 -8.52915
289 3 14.1911 7.09556 21.2867 -6.52359
1307 1 14.1911 10.6433 21.2867 -8.74284
2555 2 12.4172 8.86945 17.7389 -6.95432
2801 2 12.4172 7.09556 19.5128 -6.93564
3304 2 14.1911 7.09556 17.7389 -6.92869
3554 2 12.4172 8.86945 21.2867 -6.90498
3803 1 12.4172 10.6433 19.5128 -8.61567
507 3 15.965 8.86945 21.2867 -6.42948
802 1 15.965 10.6433 19.5128 -8.64021
3555 1 15.965 8.86945 17.7389 -8.38703
3802 3 15.965 7.09556 19.5128 -6.292
508 3 1.77389 12.4172 17.7389 -6.27171
1051 3 0 12.4172 19.5128 -6.07069
1308 1 0 14.1911 17.7389 -8.34767
1555 1 1.77389 12.4172 21.2867 -8.19368
1802 3 1.77389 14.1911 19.5128 -6.35059
2308 1 0 14.1911 21.2867 -8.14397
1556 3 5.32167 12.4172 17.7389 -6.45409
2052 3 3.54778 12.4172 19.5128 -6.40316
2307 3 3.54778 14.1911 17.7389 -6.54982
2556 3 5.32167 12.4172 21.2867 -6.40676
2803 2 5.32167 14.1911 19.5128 -7.00921
3307 2 3.54778 14.1911 21.2867 -6.93399
36 2 10.6433 12.4172 19.5128 -6.95306
294 1 10.6433 14.1911 17.7389 -8.31856
293 2 7.09556 14.1911 21.2867 -6.94553
1309 1 10.6433 14.1911 21.2867 -8.33342
2557 1 8.86945 12.4172 17.7389 -8.15555
3052 2 7.09556 12.4172 19.5128 -6.99309
3308 2 7.09556 14.1911 17.7389 -6.92332
3556 1 8.86945 12.4172 21.2867 -8.34852
3804 1 8.86945 14.1911 19.5128 -8.15071
509 3 12.4172 12.4172 21.2867 -6.22886
803 1 12.4172 14.1911 19.5128 -8.26991
1052 3 14.1911 12.4172 19.5128 -6.04181
1310 1 14.1911 14.1911 17.7389 -8.67496
2309 1 14.1911 14.1911 21.2867 -8.7749
3557 3 12.4172 12.4172 17.7389 -6.14146
510 3 15.965 12.4172 17.7389 -6.30028
1557 3 15.965 12.4172 21.2867 -6.35787
1803 2 15.965 14.1911 19.5128 -6.9059
1558 2 1.77389 15.965 17.7389 -6.81256
2053 1 0 15.965 19.5128 -8.57446
2558 3 1.77389 15.965 21.2867 -6.32792
2559 2 5.32167 15.965 17.7389 -6.99734
3053 2 3.54778 15.965 19.5128 -6.94611
3558 3 5.32167 15.965 21.2867 -6.24668
511 3 8.86945 15.965 21.2867 -6.16137
37 1 7.09556 15.965 19.5128 -8.50192
1053 1 10.6433 15.965 19.5128 -8.23587
3559 3 8.86945 15.965 17.7389 -6.16976
512 1 12.4172 15.965 17.7389 -8.32547
1559 2 12.4172 15.965 21.2867 -6.944
2054 3 14.1911 15.965 19.5128 -6.36995
1560 2 15.965 15.965 17.7389 -7.06167
2560 3 15.965 15.965 21.2867 -6.37738
39 2 0 1.77389 26.6083 -7.02854
2804 2 1.77389 0 23.0606 -7.00376
3054 2 0 1.77389 23.0606 -7.06741
3309 3 0 0 24.8344 -6.43974
3560 2 1.77389 1.77389 24.8344 -6.96615
3806 1 1.77389 0 26.6083 -8.53621
513 3 5.32167 1.77389 24.8344 -6.35035
38 3 3.54778 1.77389 23.0606 -6.48091
295 1 3.54778 0 24.8344 -8.66555
806 3 5.32167 0 26.6083 -6.31178
1054 2 3.54778 1.77389 26.6083 -6.90971
3807 3 5.32167 0 23.0606 -6.46363
807 2 8.86945 0 23.0606 -6.97997
1055 3 7.09556 1.77389 23.0606 -6.64475
1312 1 7.09556 0 24.8344 -8.68479
1561 2 8.86945 1.77389 24.8344 -7.00205
1806 1 8.86945 0 26.6083 -8.31368
2056 3 10.6433 1.77389 23.0606 -6.54639
2055 1 7.09556 1.77389 26.6083 -8.37743
2311 1 10.6433 0 24.8344 -8.32958
3055 2 10.6433 1.77389 26.6083 -6.92049
40 2 14.1911 1.77389 26.6083 -6.96186
1807 2 12.4172 0 23.0606 -6.90274
2561 2 12.4172 1.77389 24.8344 -6.91609
2807 1 12.4172 0 26.6083 -8.17131
3056 1 14.1911 1.77389 23.0606 -8.72987
3311 3 14.1911 0 24.8344 -6.37518
2808 3 15.965 0 23.0606 -6.46067
3561 2 15.965 1.77389 24.8344 -6.96989
3810 2 15.965 0 26.6083 -7.01975
514 1 1.77389 5.32167 24.8344 -8.36774
41 2 0 5.32167 23.0606 -6.95614
296 1 0 3.54778 24.8344 -8.00591
804 1 1.77389 3.54778 26.6083 -8.20951
1057 1 0 5.32167 26.6083 -8.21678
3805 1 1.77389 3.54778 23.0606 -8.35255
805 2 5.32167 3.54778 23.0606 -6.95791
1056 3 3.54778 5.32167 23.0606 -6.23159
1311 1 3.54778 3.54778 24.8344 -8.58444
1562 2 5.32167 5.32167 24.8344 -6.91416
1804 3 5.32167 3.54778 26.6083 -6.32816
2057 3 3.54778 5.32167 26.6083 -6.27225
42 2 10.6433 5.32167 26.6083 -6.92093
1805 3 8.86945 3.54778 23.0606 -6.65286
2058 3 7.09556 5.32167 23.0606 -6.63908
2310 2 7.09556 3.54778 24.8344 -6.96619
2562 3 8.86945 5.32167 24.8344 -6.49658
2805 1 8.86945 3.54778 26.6083 -8.46756
3058 1 10.6433 5.32167 23.0606 -8.58728
3057 1 7.09556 5.32167 26.6083 -8.52198
3310 3 10.6433 3.54778 24.8344 -6.4725
43 3 14.1911 5.32167 23.0606 -6.36534
297 3 14.1911 3.54778 24.8344 -6.37689
1058 1 14.1911 5.32167 26.6083 -8.58426
2806 3 12.4172 3.54778 23.0606 -6.40827
3562 2 12.4172 5.32167 24.8344 -6.89134
3808 1 12.4172 3.54778 26.6083 -8.56535
515 1 15.965 5.32167 24.8344 -8.74339
808 3 15.965 3.54778 26.6083 -6.38435
3809 2 15.965 3.54778 23.0606 -6.94486
809 2 1.77389 7.09556 23.0606 -6.85995
1059 1 0 8.86945 23.0606 -8.31371
1313 3 0 7.09556 24.8344 -6.21027
1563 2 1.77389 8.86945 24.8344 -6.93005
1811 1 1.77389 10.6433 23.0606 -8.18992
1808 1 1.77389 7.09556 26.6083 -8.36479
2060 1 0 8.86945 26.6083 -8.33356
2313 1 0 10.6433 24.8344 -8.17586
2811 1 1.77389 10.6433 26.6083 -8.45698
1809 1 5.32167 7.09556 23.0606 -8.64822
2059 3 3.54778 8.86945 23.0606 -6.23745
2312 3 3.54778 7.09556 24.8344 -6.34981
2563 3 5.32167 8.86945 24.8344 -6.49323
2812 1 5.32167 10.6433 23.0606 -8.50131
2809 3 5.32167 7.09556 26.6083 -6.46112
3059 2 3.54778 8.86945 26.6083 -6.96275
3313 2 3.54778 10.6433 24.8344 -6.90456
3813 3 5.32167 10.6433 26.6083 -6.48568
45 3 10.6433 8.86945 23.0606 -6.55556
44 1 7.09556 8.86945 26.6083 -8.73698
299 2 7.09556 10.6433 24.8344 -6.9481
298 2 10.6433 7.09556 24.8344 -6.9998
812 2 8.86945 10.6433 26.6083 -6.90359
1060 3 10.6433 8.86945 26.6083 -6.35871
1315 1 10.6433 10.6433 24.8344 -8.60908
2810 2 8.86945 7.09556 23.0606 -7.05554
3060 2 7.09556 8.86945 23.0606 -7.03175
3312 2 7.09556 7.09556 24.8344 -6.96386
3563 3 8.86945 8.86945 24.8344 -6.54117
3814 2 8.86945 10.6433 23.0606 -6.9874
3811 3 8.86945 7.09556 26.6083 -6.41055
516 3 12.4172 8.86945 24.8344 -6.42056
813 3 12.4172 10.6433 23.0606 -6.47079
810 3 12.4172 7.09556 26.6083 -6.45931
1061 2 14.1911 8.86945 23.0606 -6.90444
1314 1 14.1911 7.09556 24.8344 -8.70039
1812 1 12.4172 10.6433 26.6083 -8.2364
2061 3 14.1911 8.86945 26.6083 -6.3606
2314 3 14.1911 10.6433 24.8344 -6.46425
3812 2 12.4172 7.09556 23.0606 -6.96578
811 3 15.965 7.09556 23.0606 -6.3659
1564 2 15.965 8.86945 24.8344 -6.86345
1813 3 15.965 10.6433 23.0606 -6.52746
1810 3 15.965 7.09556 26.6083 -6.37317
2813 3 15.965 10.6433 26.6083 -6.34676
2062 1 0 12.4172 23.0606 -8.10276
2564 3 1.77389 12.4172 24.8344 -6.14423
2814 1 1.77389 14.1911 23.0606 -8.28798
3062 3 0 12.4172 26.6083 -6.20523
3314 3 0 14.1911 24.8344 -6.20029
3815 3 1.77389 14.1911 26.6083 -6.25593
46 2 3.54778 12.4172 26.6083 -6.91373
300 1 3.54778 14.1911 24.8344 -8.53072
751 3 5.32167 14.1911 26.6083 -6.23409
3061 2 3.54778 12.4172 23.0606 -6.88551
3564 3 5.32167 12.4172 24.8344 -6.39643
3816 1 5.32167 14.1911 23.0606 -8.50251
549 1 8.86945 12.4172 24.8344 -8.30852
47 2 7.09556 12.4172 23.0606 -6.99961
752 2 8.86945 14.1911 23.0606 -6.96457
1063 3 10.6433 12.4172 23.0606 -6.39623
1062 1 7.09556 12.4172 26.6083 -8.64432
1316 2 7.09556 14.1911 24.8344 -6.94484
1814 2 8.86945 14.1911 26.6083 -7.01285
2063 1 10.6433 12.4172 26.6083 -8.32662
2315 2 10.6433 14.1911 24.8344 -6.97919
1565 2 12.4172 12.4172 24.8344 -6.95303
1815 3 12.4172 14.1911 23.0606 -6.43747
2064 3 14.1911 12.4172 23.0606 -6.35608
2815 2 12.4172 14.1911 26.6083 -7.03892
3063 1 14.1911 12.4172 26.6083 -8.32418
3315 2 14.1911 14.1911 24.8344 -7.02152
2565 1 15.965 12.4172 24.8344 -8.62263
2816 1 15.965 14.1911 23.0606 -8.53477
3817 1 15.965 14.1911 26.6083 -8.51801
49 1 0 15.965 26.6083 -8.51549
3064 2 0 15.965 23.0606 -6.80311
3565 3 1.77389 15.965 24.8344 -6.09285