ITEM: TIMESTEP
0
ITEM: NUMBER OF ATOMS
4000
ITEM: BOX BOUNDS pp pp pp
0.0000000000000000e+00 3.5848190000000002e+01
0.0000000000000000e+00 3.5848190000000002e+01
0.0000000000000000e+00 3.5848190000000002e+01
ITEM: ATOMS id type x y z c_peratom
267 3 0 0 0 -6.63747
517 3 1.79241 1.79241 0 -6.56379
768 2 1.79241 0 1.79241 -6.91888
1016 3 0 1.79241 1.79241 -6.43448
1267 1 0 0 3.58482 -8.4995
1517 3 1.79241 1.79241 3.58482 -6.41483
1268 3 3.58482 0 0 -6.29665
1518 3 5.37723 1.79241 0 -6.35077
1766 1 5.37723 0 1.79241 -8.49259
2017 1 3.58482 1.79241 1.79241 -8.51341
2266 3 3.58482 0 3.58482 -6.46075
2518 3 5.37723 1.79241 3.58482 -6.39371
2267 2 7.16964 0 0 -6.88652
2519 2 8.96205 1.79241 0 -6.9581
2767 1 8.96205 0 1.79241 -8.5662
3017 3 7.16964 1.79241 1.79241 -6.31998
3266 3 7.16964 0 3.58482 -6.2532
3517 3 8.96205 1.79241 3.58482 -6.19803
1 2 10.7545 1.79241 1.79241 -6.88418
268 1 10.7545 0 3.58482 -8.2879
518 3 12.5469 1.79241 3.58482 -6.23625
3267 3 10.7545 0 0 -6.30787
3518 1 12.5469 1.79241 0 -8.21539
3768 2 12.5469 0 1.79241 -6.94579
269 3 14.3393 0 0 -6.4216
519 1 16.1317 1.79241 0 -8.37658
769 3 16.1317 0 1.79241 -6.28288
1017 1 14.3393 1.79241 1.79241 -8.32353
1269 1 14.3393 0 3.58482 -8.53688
1519 3 16.1317 1.79241 3.58482 -6.24001
1270 2 0 3.58482 0 -7.00521
1520 1 1.79241 5.37723 0 -8.39113
1767 2 1.79241 3.58482 1.79241 -6.9986
2018 2 0 5.37723 1.79241 -7.06051
2268 1 0 3.58482 3.58482 -8.3355
2520 2 1.79241 5.37723 3.58482 -7.05887
2269 2 3.58482 3.58482 0 -7.0197
2521 2 5.37723 5.37723 0 -6.97819
2768 1 5.37723 3.58482 1.79241 -8.39451
3018 2 3.58482 5.37723 1.79241 -7.00377
3268 3 3.58482 3.58482 3.58482 -6.37805
3519 1 5.37723 5.37723 3.58482 -8.26033
2 1 7.16964 5.37723 1.79241 -8.17228
270 3 7.16964 3.58482 3.58482 -6.23589
520 3 8.96205 5.37723 3.58482 -6.25326
3269 2 7.16964 3.58482 0 -6.91052
3520 3 8.96205 5.37723 0 -6.14286
3769 1 8.96205 3.58482 1.79241 -8.37881
271 1 10.7545 3.58482 0 -8.2547
521 3 12.5469 5.37723 0 -6.36284
770 3 12.5469 3.58482 1.79241 -6.40733
1018 3 10.7545 5.37723 1.79241 -6.30276
1271 1 10.7545 3.58482 3.58482 -8.51489
1521 3 12.5469 5.37723 3.58482 -6.5007
1272 3 14.3393 3.58482 0 -6.36113
1522 2 16.1317 5.37723 0 -6.8863
1768 1 16.1317 3.58482 1.79241 -8.26581
2019 2 14.3393 5.37723 1.79241 -7.01135
2270 2 14.3393 3.58482 3.58482 -6.91181
2522 2 16.1317 5.37723 3.58482 -7.00494
2271 3 0 7.16964 0 -6.39276
2523 1 1.79241 8.96205 0 -8.31379
2769 2 1.79241 7.16964 1.79241 -7.03574
3019 3 0 8.96205 1.79241 -6.41655
3270 1 0 7.16964 3.58482 -8.33567
3521 2 1.79241 8.96205 3.58482 -7.02708
3 2 3.58482 8.96205 1.79241 -7.0728
272 2 3.58482 7.16964 3.58482 -7.10733
522 2 5.37723 8.96205 3.58482 -7.04007
3271 3 3.58482 7.16964 0 -6.4117
3522 3 5.37723 8.96205 0 -6.28344
3770 3 5.37723 7.16964 1.79241 -6.54414
273 1 7.16964 7.16964 0 -8.26604
523 2 8.96205 8.96205 0 -6.98782
771 1 8.96205 7.16964 1.79241 -8.29712
1019 2 7.16964 8.96205 1.79241 -6.98596
1273 2 7.16964 7.16964 3.58482 -6.97133
1523 2 8.96205 8.96205 3.58482 -6.96952
1274 1 10.7545 7.16964 0 -8.37837
1524 2 12.5469 8.96205 0 -6.99196
1769 3 12.5469 7.16964 1.79241 -6.62147
2020 3 10.7545 8.96205 1.79241 -6.42262
2272 2 10.7545 7.16964 3.58482 -6.82701
2524 3 12.5469 8.96205 3.58482 -6.54505
2273 2 14.3393 7.16964 0 -6.98121
2525 1 16.1317 8.96205 0 -8.35274
2770 1 16.1317 7.16964 1.79241 -8.42978
3020 2 14.3393 8.96205 1.79241 -7.07465
3272 3 14.3393 7.16964 3.58482 -6.61161
3523 2 16.1317 8.96205 3.58482 -7.16783
4 1 0 12.5469 1.79241 -8.14121
274 3 0 10.7545 3.58482 -6.3175
524 1 1.79241 12.5469 3.58482 -8.54141
3273 2 0 10.7545 0 -7.0023
3524 1 1.79241 12.5469 0 -8.1671
3771 1 1.79241 10.7545 1.79241 -8.25266
275 1 3.58482 10.7545 0 -7.90444
525 1 5.37723 12.5469 0 -8.02457
772 1 5.37723 10.7545 1.79241 -8.19354
1020 3 3.58482 12.5469 1.79241 -6.16868
1275 2 3.58482 10.7545 3.58482 -6.98411
1525 1 5.37723 12.5469 3.58482 -8.34072
1276 3 7.16964 10.7545 0 -6.43705
1526 2 8.96205 12.5469 0 -6.90099
1770 3 8.96205 10.7545 1.79241 -6.44872
2021 2 7.16964 12.5469 1.79241 -6.96839
2274 1 7.16964 10.7545 3.58482 -8.20669
2526 1 8.96205 12.5469 3.58482 -8.24385
2275 1 10.7545 10.7545 0 -8.54242
2527 3 12.5469 12.5469 0 -6.48745
2771 3 12.5469 10.7545 1.79241 -6.45048
3021 2 10.7545 12.5469 1.79241 -6.94664
3274 1 10.7545 10.7545 3.58482 -8.34822
3525 1 12.5469 12.5469 3.58482 -8.52341
5 3 14.3393 12.5469 1.79241 -6.59264
276 2 14.3393 10.7545 3.58482 -7.08966
526 3 16.1317 12.5469 3.58482 -6.63024
3275 1 14.3393 10.7545 0 -8.56502
3526 2 16.1317 12.5469 0 -7.01014
3772 3 16.1317 10.7545 1.79241 -6.67167
277 3 0 14.3393 0 -6.47042
527 2 1.79241 16.1317 0 -6.99602
773 2 1.79241 14.3393 1.79241 -6.90883
1021 3 0 16.1317 1.79241 -6.53655
1277 3 0 14.3393 3.58482 -6.39504
1527 2 1.79241 16.1317 3.58482 -6.93229
1278 1 3.58482 14.3393 0 -8.09326
1528 3 5.37723 16.1317 0 -6.30271
1771 1 5.37723 14.3393 1.79241 -8.31873
2022 1 3.58482 16.1317 1.79241 -8.10277
2276 3 3.58482 14.3393 3.58482 -6.39834
2528 2 5.37723 16.1317 3.58482 -6.93895
2277 3 7.16964 14.3393 0 -6.3152
2529 3 8.96205 16.1317 0 -6.34149
2772 1 8.96205 14.3393 1.79241 -8.29893
3022 3 7.16964 16.1317 1.79241 -6.28773
3276 3 7.16964 14.3393 3.58482 -6.30022
3527 1 8.96205 16.1317 3.58482 -8.24992
6 1 10.7545 16.1317 1.79241 -8.22376
278 3 10.7545 14.3393 3.58482 -6.26976
528 3 12.5469 16.1317 3.58482 -6.30909
3277 1 10.7545 14.3393 0 -8.26327
3528 1 12.5469 16.1317 0 -8.05056
3773 2 12.5469 14.3393 1.79241 -6.92098
279 3 14.3393 14.3393 0 -6.55572
529 1 16.1317 16.1317 0 -8.18661
774 2 16.1317 14.3393 1.79241 -7.00873
1022 1 14.3393 16.1317 1.79241 -8.36954
1279 3 14.3393 14.3393 3.58482 -6.52243
1529 2 16.1317 16.1317 3.58482 -6.96686
1772 3 1.79241 0 5.37723 -6.47034
2023 3 0 1.79241 5.37723 -6.2449
2278 2 0 0 7.16964 -6.93105
2530 2 1.79241 1.79241 7.16964 -6.95212
2774 1 3.58482 0 7.16964 -8.50422
2773 3 5.37723 0 5.37723 -6.42511
3024 1 5.37723 1.79241 7.16964 -8.41483
3023 3 3.58482 1.79241 5.37723 -6.4679
7 3 7.16964 1.79241 5.37723 -6.32255
3278 2 7.16964 0 7.16964 -6.9995
3529 1 8.96205 1.79241 7.16964 -8.00429
3774 1 8.96205 0 5.37723 -8.31565
8 1 12.5469 1.79241 7.16964 -8.21927
775 3 12.5469 0 5.37723 -6.27592
1023 1 10.7545 1.79241 5.37723 -8.10631
3775 3 10.7545 0 7.16964 -6.24824
280 1 14.3393 0 7.16964 -8.28352
530 3 16.1317 1.79241 7.16964 -6.35751
1773 3 16.1317 0 5.37723 -6.25783
2024 1 14.3393 1.79241 5.37723 -8.4387
776 1 0 3.58482 7.16964 -8.06844
1024 1 1.79241 5.37723 7.16964 -8.05899
2775 1 1.79241 3.58482 5.37723 -8.28428
3025 2 0 5.37723 5.37723 -6.98781
9 1 3.58482 5.37723 5.37723 -8.21768
1280 2 3.58482 3.58482 7.16964 -6.97866
1530 2 5.37723 5.37723 7.16964 -6.93785
3776 2 5.37723 3.58482 5.37723 -6.91716
777 1 8.96205 3.58482 5.37723 -8.16757
1025 1 7.16964 5.37723 5.37723 -8.15986
1774 1 7.16964 3.58482 7.16964 -8.00653
2025 1 8.96205 5.37723 7.16964 -8.0053
1775 3 12.5469 3.58482 5.37723 -6.3911
2026 3 10.7545 5.37723 5.37723 -6.28474
2279 2 10.7545 3.58482 7.16964 -6.98886
2531 2 12.5469 5.37723 7.16964 -6.90797
2777 3 14.3393 3.58482 7.16964 -6.36383
2776 2 16.1317 3.58482 5.37723 -6.89213
3027 1 16.1317 5.37723 7.16964 -8.59263
3026 3 14.3393 5.37723 5.37723 -6.50922
10 1 0 8.96205 5.37723 -8.27336
3279 3 0 7.16964 7.16964 -6.18877
3530 3 1.79241 8.96205 7.16964 -6.28554
3777 1 1.79241 7.16964 5.37723 -8.12761
11 1 5.37723 8.96205 7.16964 -8.24673
778 3 5.37723 7.16964 5.37723 -6.31742
1026 1 3.58482 8.96205 5.37723 -8.23804
3778 3 3.58482 7.16964 7.16964 -6.28377
281 1 7.16964 7.16964 7.16964 -8.12721
531 1 8.96205 8.96205 7.16964 -8.32253
1776 3 8.96205 7.16964 5.37723 -6.29144
2027 3 7.16964 8.96205 5.37723 -6.34233
779 1 10.7545 7.16964 7.16964 -8.06618
1027 1 12.5469 8.96205 7.16964 -8.0743
2778 1 12.5469 7.16964 5.37723 -8.31729
3028 1 10.7545 8.96205 5.37723 -8.11266
12 2 14.3393 8.96205 5.37723 -7.06797
1281 1 14.3393 7.16964 7.16964 -8.22398
1531 2 16.1317 8.96205 7.16964 -7.06453
3779 3 16.1317 7.16964 5.37723 -6.66517
780 2 1.79241 10.7545 5.37723 -6.9425
1028 3 0 12.5469 5.37723 -6.4142
1777 1 0 10.7545 7.16964 -8.35517
2028 1 1.79241 12.5469 7.16964 -8.32867
1778 1 5.37723 10.7545 5.37723 -8.20513
2029 3 3.58482 12.5469 5.37723 -6.37234
2280 1 3.58482 10.7545 7.16964 -8.22715
2532 3 5.37723 12.5469 7.16964 -6.48852
2780 3 7.16964 10.7545 7.16964 -6.28665
2779 2 8.96205 10.7545 5.37723 -6.96542
3030 1 8.96205 12.5469 7.16964 -8.41808
3029 2 7.16964 12.5469 5.37723 -6.95142
13 3 10.7545 12.5469 5.37723 -6.21502
3280 2 10.7545 10.7545 7.16964 -6.95179
3531 1 12.5469 12.5469 7.16964 -8.27789
3780 2 12.5469 10.7545 5.37723 -7.03309
14 2 16.1317 12.5469 7.16964 -7.07001
781 2 16.1317 10.7545 5.37723 -7.20384
1029 2 14.3393 12.5469 5.37723 -7.0238
3781 3 14.3393 10.7545 7.16964 -6.58036
282 2 0 14.3393 7.16964 -6.96543
532 1 1.79241 16.1317 7.16964 -8.22095
1779 2 1.79241 14.3393 5.37723 -6.92157
2030 1 0 16.1317 5.37723 -8.36982
782 2 3.58482 14.3393 7.16964 -6.98981
1030 2 5.37723 16.1317 7.16964 -6.98316
2781 3 5.37723 14.3393 5.37723 -6.58499
3031 3 3.58482 16.1317 5.37723 -6.49896
15 2 7.16964 16.1317 5.37723 -6.97296
1282 3 7.16964 14.3393 7.16964 -6.56076
1532 2 8.96205 16.1317 7.16964 -6.90461
3782 1 8.96205 14.3393 5.37723 -8.17977
783 3 12.5469 14.3393 5.37723 -6.34632
1031 1 10.7545 16.1317 5.37723 -8.16631
1780 1 10.7545 14.3393 7.16964 -8.14533
2031 3 12.5469 16.1317 7.16964 -6.29962
1781 1 16.1317 14.3393 5.37723 -8.3194
2032 2 14.3393 16.1317 5.37723 -6.92365
2281 1 14.3393 14.3393 7.16964 -8.29232
2533 2 16.1317 16.1317 7.16964 -7.01303
16 3 0 1.79241 12.5469 -6.51438
2782 1 1.79241 0 8.96205 -8.20091
3032 1 0 1.79241 8.96205 -8.16045
3281 1 0 0 10.7545 -8.35548
3532 2 1.79241 1.79241 10.7545 -6.9971
3783 3 1.79241 0 12.5469 -6.43765
251 2 3.58482 0 10.7545 -7.03799
533 1 5.37723 1.79241 10.7545 -8.4312
784 2 5.37723 0 12.5469 -7.06453
1032 1 3.58482 1.79241 12.5469 -8.43637
3282 2 5.37723 0 8.96205 -7.07563
3533 3 3.58482 1.79241 8.96205 -6.46296
17 2 7.16964 1.79241 8.96205 -6.99275
1283 3 7.16964 0 10.7545 -6.50519
1533 1 8.96205 1.79241 10.7545 -8.30076
1782 3 8.96205 0 12.5469 -6.48299
2033 1 7.16964 1.79241 12.5469 -8.49139
3784 1 8.96205 0 8.96205 -8.18482
252 2 12.5469 0 8.96205 -6.99366
534 1 10.7545 1.79241 8.96205 -8.14858
2282 1 10.7545 0 10.7545 -8.27027
2534 2 12.5469 1.79241 10.7545 -6.91449
2783 3 12.5469 0 12.5469 -6.61223
3033 3 10.7545 1.79241 12.5469 -6.44178
18 3 14.3393 1.79241 12.5469 -6.49152
785 2 16.1317 0 8.96205 -7.01752
1033 1 14.3393 1.79241 8.96205 -8.24967
3283 2 14.3393 0 10.7545 -7.02954
3534 3 16.1317 1.79241 10.7545 -6.37525
3785 2 16.1317 0 12.5469 -6.99751
253 2 0 3.58482 10.7545 -6.89246
535 3 1.79241 5.37723 10.7545 -6.27336
786 3 1.79241 3.58482 12.5469 -6.40587
1034 3 0 5.37723 12.5469 -6.30457
1284 1 1.79241 3.58482 8.96205 -8.28927
1534 1 0 5.37723 8.96205 -7.98637
1285 2 3.58482 3.58482 10.7545 -7.00289
1535 1 5.37723 5.37723 10.7545 -8.38195
1784 3 5.37723 3.58482 12.5469 -6.16089
1783 2 5.37723 3.58482 8.96205 -7.00996
2035 1 3.58482 5.37723 12.5469 -8.24632
2034 3 3.58482 5.37723 8.96205 -6.39846
2284 3 7.16964 3.58482 10.7545 -6.22037
2283 1 8.96205 3.58482 8.96205 -8.00831
2536 2 8.96205 5.37723 10.7545 -6.9307
2535 1 7.16964 5.37723 8.96205 -8.1163
2784 3 8.96205 3.58482 12.5469 -6.45331
3034 1 7.16964 5.37723 12.5469 -8.54405
19 2 10.7545 5.37723 12.5469 -6.96598
2785 3 12.5469 3.58482 8.96205 -6.31123
3035 1 10.7545 5.37723 8.96205 -8.23158
3284 3 10.7545 3.58482 10.7545 -6.3424
3535 3 12.5469 5.37723 10.7545 -6.3954
3786 1 12.5469 3.58482 12.5469 -8.22755
254 1 14.3393 3.58482 10.7545 -8.33497
536 2 16.1317 5.37723 10.7545 -6.95602
787 2 16.1317 3.58482 12.5469 -6.95586
1035 2 14.3393 5.37723 12.5469 -7.00576
3285 1 16.1317 3.58482 8.96205 -8.4393
3536 3 14.3393 5.37723 8.96205 -6.41571
20 3 0 8.96205 8.96205 -6.26774
1286 1 0 7.16964 10.7545 -8.15647
1536 1 1.79241 8.96205 10.7545 -8.25024
1785 1 1.79241 7.16964 12.5469 -8.13219
2036 3 0 8.96205 12.5469 -6.3443
3787 1 1.79241 7.16964 8.96205 -8.36182
255 2 5.37723 7.16964 8.96205 -6.95106
537 2 3.58482 8.96205 8.96205 -6.91374
2285 2 3.58482 7.16964 10.7545 -6.99019
2537 1 5.37723 8.96205 10.7545 -8.32879
2786 3 5.37723 7.16964 12.5469 -6.25335
3036 1 3.58482 8.96205 12.5469 -8.15414
21 2 7.16964 8.96205 12.5469 -7.03499
788 2 8.96205 7.16964 8.96205 -7.09105
1036 3 7.16964 8.96205 8.96205 -6.28272
3286 3 7.16964 7.16964 10.7545 -6.45024
3537 2 8.96205 8.96205 10.7545 -7.01494
3788 2 8.96205 7.16964 12.5469 -7.08803
256 1 10.7545 7.16964 10.7545 -8.2705
538 3 12.5469 8.96205 10.7545 -6.34507
789 3 12.5469 7.16964 12.5469 -6.44911
1037 1 10.7545 8.96205 12.5469 -8.18932
1287 2 12.5469 7.16964 8.96205 -6.98908
1537 1 10.7545 8.96205 8.96205 -8.0995
1288 3 14.3393 7.16964 10.7545 -6.56746
1538 2 16.1317 8.96205 10.7545 -6.95333
1787 3 16.1317 7.16964 12.5469 -6.48851
1786 3 16.1317 7.16964 8.96205 -6.50128
2038 3 14.3393 8.96205 12.5469 -6.52089
2037 1 14.3393 8.96205 8.96205 -8.44437
2287 3 0 10.7545 10.7545 -6.25268
2286 3 1.79241 10.7545 8.96205 -6.34562
2539 3 1.79241 12.5469 10.7545 -6.31569
2538 3 0 12.5469 8.96205 -6.32924
2787 1 1.79241 10.7545 12.5469 -8.34211
3037 1 0 12.5469 12.5469 -8.49407
22 3 3.58482 12.5469 12.5469 -6.45482
2788 1 5.37723 10.7545 8.96205 -8.32978
3038 2 3.58482 12.5469 8.96205 -6.87447
3287 3 3.58482 10.7545 10.7545 -6.36188
3538 3 5.37723 12.5469 10.7545 -6.49067
3789 2 5.37723 10.7545 12.5469 -6.97192
257 1 7.16964 10.7545 10.7545 -8.31061
539 1 8.96205 12.5469 10.7545 -8.2868
790 2 8.96205 10.7545 12.5469 -7.06075
1038 2 7.16964 12.5469 12.5469 -7.08022
3288 3 8.96205 10.7545 8.96205 -6.2296
3539 3 7.16964 12.5469 8.96205 -6.41629
23 1 10.7545 12.5469 8.96205 -7.95844
1289 1 10.7545 10.7545 10.7545 -8.05658
1539 1 12.5469 12.5469 10.7545 -8.2298
1788 1 12.5469 10.7545 12.5469 -8.21619
2039 3 10.7545 12.5469 12.5469 -6.26757
3790 2 12.5469 10.7545 8.96205 -6.99842
258 2 16.1317 10.7545 8.96205 -7.11144
540 2 14.3393 12.5469 8.96205 -7.07382
2288 3 14.3393 10.7545 10.7545 -6.50594
2540 2 16.1317 12.5469 10.7545 -7.01052
2789 2 16.1317 10.7545 12.5469 -6.99016
3039 3 14.3393 12.5469 12.5469 -6.43451
24 1 0 16.1317 12.5469 -8.42922
791 1 1.79241 14.3393 8.96205 -8.22135
1039 3 0 16.1317 8.96205 -6.27689
3289 3 0 14.3393 10.7545 -6.25364
3540 1 1.79241 16.1317 10.7545 -8.08682
3791 3 1.79241 14.3393 12.5469 -6.23376
259 1 3.58482 14.3393 10.7545 -8.40089
541 2 5.37723 16.1317 10.7545 -7.04859
792 3 5.37723 14.3393 12.5469 -6.59642
1040 1 3.58482 16.1317 12.5469 -8.50278
1290 3 5.37723 14.3393 8.96205 -6.57253
1540 1 3.58482 16.1317 8.96205 -8.21695
1291 2 7.16964 14.3393 10.7545 -7.03853
1541 1 8.96205 16.1317 10.7545 -8.56519
1790 2 8.96205 14.3393 12.5469 -7.03698
1789 2 8.96205 14.3393 8.96205 -6.95426
2041 2 7.16964 16.1317 12.5469 -7.07261
2040 3 7.16964 16.1317 8.96205 -6.61397
2290 2 10.7545 14.3393 10.7545 -6.94676
2289 1 12.5469 14.3393 8.96205 -8.1988
2542 3 12.5469 16.1317 10.7545 -6.55647
2541 3 10.7545 16.1317 8.96205 -6.41925
2790 2 12.5469 14.3393 12.5469 -6.9529
3040 1 10.7545 16.1317 12.5469 -8.39785
25 3 14.3393 16.1317 12.5469 -6.43295
2791 3 16.1317 14.3393 8.96205 -6.53814
3041 2 14.3393 16.1317 8.96205 -7.02633
3290 2 14.3393 14.3393 10.7545 -6.95024
3541 1 16.1317 16.1317 10.7545 -8.36462
3792 1 16.1317 14.3393 12.5469 -8.24188
260 2 0 0 14.3393 -6.92849
542 2 1.79241 1.79241 14.3393 -6.94299
793 2 1.79241 0 16.1317 -7.0716
1041 2 0 1.79241 16.1317 -7.00189
1292 1 3.58482 0 14.3393 -8.47416
1542 3 5.37723 1.79241 14.3393 -6.35454
1791 2 5.37723 0 16.1317 -7.0601
2042 1 3.58482 1.79241 16.1317 -8.3495
2291 2 7.16964 0 14.3393 -7.01591
2543 2 8.96205 1.79241 14.3393 -6.96632
2792 3 8.96205 0 16.1317 -6.53508
3042 1 7.16964 1.79241 16.1317 -8.48187
26 2 10.7545 1.79241 16.1317 -6.99343
3291 2 10.7545 0 14.3393 -7.02617
3542 1 12.5469 1.79241 14.3393 -8.36929
3793 2 12.5469 0 16.1317 -7.08701
261 2 14.3393 0 14.3393 -6.97935
543 3 16.1317 1.79241 14.3393 -6.3249
794 3 16.1317 0 16.1317 -6.29388
1042 1 14.3393 1.79241 16.1317 -8.26064
1293 1 0 3.58482 14.3393 -8.58273
1543 1 1.79241 5.37723 14.3393 -8.32921
1792 3 1.79241 3.58482 16.1317 -6.37795
2043 3 0 5.37723 16.1317 -6.4875
2292 3 3.58482 3.58482 14.3393 -6.21464
2544 1 5.37723 5.37723 14.3393 -8.20882
2793 2 5.37723 3.58482 16.1317 -6.81679
3043 1 3.58482 5.37723 16.1317 -8.44235
27 1 7.16964 5.37723 16.1317 -8.53428
3292 3 7.16964 3.58482 14.3393 -6.25962
3543 3 8.96205 5.37723 14.3393 -6.5487
3794 1 8.96205 3.58482 16.1317 -8.4526
262 2 10.7545 3.58482 14.3393 -7.0011
544 1 12.5469 5.37723 14.3393 -8.29459
795 3 12.5469 3.58482 16.1317 -6.50775
1043 2 10.7545 5.37723 16.1317 -7.01702
1294 1 14.3393 3.58482 14.3393 -8.13674
1544 1 16.1317 5.37723 14.3393 -8.25353
1793 2 16.1317 3.58482 16.1317 -6.95109
2044 2 14.3393 5.37723 16.1317 -6.97294
2293 3 0 7.16964 14.3393 -6.47721
2545 2 1.79241 8.96205 14.3393 -6.97067
2794 3 1.79241 7.16964 16.1317 -6.53734
3044 2 0 8.96205 16.1317 -7.06761
28 3 3.58482 8.96205 16.1317 -6.5523
3293 1 3.58482 7.16964 14.3393 -8.20407
3544 3 5.37723 8.96205 14.3393 -6.52721
3795 2 5.37723 7.16964 16.1317 -6.99365
263 3 7.16964 7.16964 14.3393 -6.55216
545 2 8.96205 8.96205 14.3393 -7.11834
796 2 8.96205 7.16964 16.1317 -7.05792
1044 2 7.16964 8.96205 16.1317 -7.05173
1295 2 10.7545 7.16964 14.3393 -7.09486
1545 1 12.5469 8.96205 14.3393 -8.33495
1794 1 12.5469 7.16964 16.1317 -8.36086
2045 2 10.7545 8.96205 16.1317 -7.0593
2294 3 14.3393 7.16964 14.3393 -6.36538
2546 3 16.1317 8.96205 14.3393 -6.49356
2795 1 16.1317 7.16964 16.1317 -8.28696
3045 3 14.3393 8.96205 16.1317 -6.43382
29 1 0 12.5469 16.1317 -8.26454
3294 3 0 10.7545 14.3393 -6.39766
3545 1 1.79241 12.5469 14.3393 -8.38303
3796 2 1.79241 10.7545 16.1317 -6.99782
264 2 3.58482 10.7545 14.3393 -6.98662
546 3 5.37723 12.5469 14.3393 -6.58361
797 2 5.37723 10.7545 16.1317 -6.94136
1045 2 3.58482 12.5469 16.1317 -6.96388
1296 1 7.16964 10.7545 14.3393 -8.49752
1546 1 8.96205 12.5469 14.3393 -8.19748
1795 3 8.96205 10.7545 16.1317 -6.53661
2046 3 7.16964 12.5469 16.1317 -6.3581
2295 2 10.7545 10.7545 14.3393 -6.97049
2547 1 12.5469 12.5469 14.3393 -8.09602
2796 3 12.5469 10.7545 16.1317 -6.44136
3046 1 10.7545 12.5469 16.1317 -8.2406
30 1 14.3393 12.5469 16.1317 -8.29989
3295 2 14.3393 10.7545 14.3393 -6.98949
3546 2 16.1317 12.5469 14.3393 -7.07518
3797 2 16.1317 10.7545 16.1317 -7.01066
265 3 0 14.3393 14.3393 -6.27891
547 3 1.79241 16.1317 14.3393 -6.38776
798 3 1.79241 14.3393 16.1317 -6.4189
1046 3 0 16.1317 16.1317 -6.35871
1297 3 3.58482 14.3393 14.3393 -6.4806
1547 2 5.37723 16.1317 14.3393 -7.02609
1796 1 5.37723 14.3393 16.1317 -8.35066
2047 2 3.58482 16.1317 16.1317 -6.96237
2296 2 7.16964 14.3393 14.3393 -6.9811
2548 3 8.96205 16.1317 14.3393 -6.43588
2797 1 8.96205 14.3393 16.1317 -8.15805
3047 1 7.16964 16.1317 16.1317 -8.20056
31 3 10.7545 16.1317 16.1317 -6.32804
3296 1 10.7545 14.3393 14.3393 -8.27708
3547 3 12.5469 16.1317 14.3393 -6.42105
3798 2 12.5469 14.3393 16.1317 -6.94167
266 1 14.3393 14.3393 14.3393 -8.30759
548 2 16.1317 16.1317 14.3393 -7.02272
799 2 16.1317 14.3393 16.1317 -7.0464
1047 2 14.3393 16.1317 16.1317 -7.01138
1298 3 0 0 17.9241 -6.53682
1548 1 1.79241 1.79241 17.9241 -8.45545
1797 3 1.79241 0 19.7165 -6.60809
2048 1 0 1.79241 19.7165 -8.32531
2297 2 0 0 21.5089 -6.9806
2549 3 1.79241 1.79241 21.5089 -6.392
2298 2 3.58482 0 17.9241 -7.03423
2550 1 5.37723 1.79241 17.9241 -8.29676
2798 3 5.37723 0 19.7165 -6.4144
3048 2 3.58482 1.79241 19.7165 -6.92094
3297 2 3.58482 0 21.5089 -7.08212
3548 1 5.37723 1.79241 21.5089 -8.25224
501 3 8.96205 1.79241 21.5089 -6.36678
32 3 7.16964 1.79241 19.7165 -6.40695
283 2 7.16964 0 21.5089 -7.00296
3298 2 7.16964 0 17.9241 -6.9443
3549 3 8.96205 1.79241 17.9241 -6.48063
3799 3 8.96205 0 19.7165 -6.43964
502 2 12.5469 1.79241 17.9241 -6.96018
284 1 10.7545 0 17.9241 -8.49351
800 2 12.5469 0 19.7165 -6.941
1048 3 10.7545 1.79241 19.7165 -6.36439
1299 3 10.7545 0 21.5089 -6.28623
1549 1 12.5469 1.79241 21.5089 -8.13712
1300 1 14.3393 0 17.9241 -8.11686
1550 1 16.1317 1.79241 17.9241 -8.01014
1798 1 16.1317 0 19.7165 -8.1088
2049 2 14.3393 1.79241 19.7165 -6.93614
2299 1 14.3393 0 21.5089 -8.1354
2551 3 16.1317 1.79241 21.5089 -6.28661
2300 2 0 3.58482 17.9241 -6.94083
2552 2 1.79241 5.37723 17.9241 -6.97321
2799 3 1.79241 3.58482 19.7165 -6.49325
3049 2 0 5.37723 19.7165 -6.93297
3299 1 0 3.58482 21.5089 -8.1317
3550 2 1.79241 5.37723 21.5089 -7.04837
503 1 5.37723 5.37723 21.5089 -8.3359
33 2 3.58482 5.37723 19.7165 -7.01409
285 3 3.58482 3.58482 21.5089 -6.46466
3300 3 3.58482 3.58482 17.9241 -6.41256
3551 3 5.37723 5.37723 17.9241 -6.48014
3800 1 5.37723 3.58482 19.7165 -8.34714
504 3 8.96205 5.37723 17.9241 -6.38597
286 3 7.16964 3.58482 17.9241 -6.32443
801 3 8.96205 3.58482 19.7165 -6.35271
1049 3 7.16964 5.37723 19.7165 -6.36763
1301 1 7.16964 3.58482 21.5089 -8.34354
1551 1 8.96205 5.37723 21.5089 -8.04964
1302 3 10.7545 3.58482 17.9241 -6.44075
1552 2 12.5469 5.37723 17.9241 -6.99966
1799 1 12.5469 3.58482 19.7165 -8.21194
2050 1 10.7545 5.37723 19.7165 -8.13947
2301 1 10.7545 3.58482 21.5089 -8.08955
2553 1 12.5469 5.37723 21.5089 -8.15878
2302 3 14.3393 3.58482 17.9241 -6.29921
2554 1 16.1317 5.37723 17.9241 -8.16232
2800 1 16.1317 3.58482 19.7165 -8.20004
3050 1 14.3393 5.37723 19.7165 -8.16688
3301 3 14.3393 3.58482 21.5089 -6.2815
3552 3 16.1317 5.37723 21.5089 -6.45683
505 3 1.79241 8.96205 21.5089 -6.24086
34 1 0 8.96205 19.7165 -8.23324
287 1 0 7.16964 21.5089 -7.96355
3302 3 0 7.16964 17.9241 -6.53656
3553 3 1.79241 8.96205 17.9241 -6.48443
3801 1 1.79241 7.16964 19.7165 -8.31207
506 3 5.37723 8.96205 17.9241 -6.57079
288 2 3.58482 7.16964 17.9241 -6.97129
802 2 5.37723 7.16964 19.7165 -6.93213
1050 3 3.58482 8.96205 19.7165 -6.29176
1303 1 3.58482 7.16964 21.5089 -8.18971
1553 1 5.37723 8.96205 21.5089 -8.46461
1304 3 7.16964 7.16964 17.9241 -6.53895
1554 3 8.96205 8.96205 17.9241 -6.5543
1800 1 8.96205 7.16964 19.7165 -8.39908
2051 3 7.16964 8.96205 19.7165 -6.41475
2303 2 7.16964 7.16964 21.5089 -6.91831
2555 2 8.96205 8.96205 21.5089 -6.98057
2304 2 10.7545 7.16964 17.9241 -7.03289
2556 3 12.5469 8.96205 17.9241 -6.53659
2801 1 12.5469 7.16964 19.7165 -8.20562
3051 1 10.7545 8.96205 19.7165 -8.3293
3303 2 10.7545 7.16964 21.5089 -7.07041
3554 2 12.5469 8.96205 21.5089 -7.0594
507 1 16.1317 8.96205 21.5089 -8.26565
35 3 14.3393 8.96205 19.7165 -6.5276
289 2 14.3393 7.16964 21.5089 -7.03842
3304 2 14.3393 7.16964 17.9241 -7.01579
3555 1 16.1317 8.96205 17.9241 -8.42872
3802 2 16.1317 7.16964 19.7165 -6.90383
508 3 1.79241 12.5469 17.9241 -6.28863
290 2 0 10.7545 17.9241 -6.91678
803 1 1.79241 10.7545 19.7165 -8.42004
1051 3 0 12.5469 19.7165 -6.19802
1305 1 0 10.7545 21.5089 -8.2905
1555 2 1.79241 12.5469 21.5089 -7.01691
1306 1 3.58482 10.7545 17.9241 -8.49501
1556 3 5.37723 12.5469 17.9241 -6.32349
1801 1 5.37723 10.7545 19.7165 -8.43435
2052 2 3.58482 12.5469 19.7165 -7.00029
2305 3 3.58482 10.7545 21.5089 -6.43039
2557 1 5.37723 12.5469 21.5089 -8.34593
2306 3 7.16964 10.7545 17.9241 -6.51495
2558 3 8.96205 12.5469 17.9241 -6.33449
2802 1 8.96205 10.7545 19.7165 -8.595
3052 2 7.16964 12.5469 19.7165 -6.8953
3305 3 7.16964 10.7545 21.5089 -6.41931
3556 2 8.96205 12.5469 21.5089 -6.96028
509 3 12.5469 12.5469 21.5089 -6.49246
36 3 10.7545 12.5469 19.7165 -6.4828
291 3 10.7545 10.7545 21.5089 -6.53315
3306 2 10.7545 10.7545 17.9241 -6.88397
3557 3 12.5469 12.5469 17.9241 -6.33669
3803 3 12.5469 10.7545 19.7165 -6.52135
510 2 16.1317 12.5469 17.9241 -7.05647
292 3 14.3393 10.7545 17.9241 -6.48008
804 2 16.1317 10.7545 19.7165 -6.90471
1052 1 14.3393 12.5469 19.7165 -8.31864
1307 2 14.3393 10.7545 21.5089 -7.05085
1557 1 16.1317 12.5469 21.5089 -8.33763
1308 1 0 14.3393 17.9241 -8.19183
1558 2 1.79241 16.1317 17.9241 -6.94981
1802 1 1.79241 14.3393 19.7165 -8.16085
2053 1 0 16.1317 19.7165 -8.10727
2307 1 0 14.3393 21.5089 -8.14179
2559 1 1.79241 16.1317 21.5089 -8.08602
2308 1 3.58482 14.3393 17.9241 -8.32866
2560 2 5.37723 16.1317 17.9241 -6.99696
2803 1 5.37723 14.3393 19.7165 -8.22615
3053 3 3.58482 16.1317 19.7165 -6.25067
3307 2 3.58482 14.3393 21.5089 -6.94605
3558 1 5.37723 16.1317 21.5089 -8.42766
511 3 8.96205 16.1317 21.5089 -6.51972
37 3 7.16964 16.1317 19.7165 -6.27091
293 3 7.16964 14.3393 21.5089 -6.48684
3308 1 7.16964 14.3393 17.9241 -8.35334
3559 3 8.96205 16.1317 17.9241 -6.15396
3804 3 8.96205 14.3393 19.7165 -6.51631
512 3 12.5469 16.1317 17.9241 -6.42854
294 1 10.7545 14.3393 17.9241 -8.49091
805 1 12.5469 14.3393 19.7165 -8.38527
1053 2 10.7545 16.1317 19.7165 -6.95096
1309 2 10.7545 14.3393 21.5089 -6.98925
1559 2 12.5469 16.1317 21.5089 -7.04922
1310 1 14.3393 14.3393 17.9241 -8.2495
1560 2 16.1317 16.1317 17.9241 -7.02494
1803 2 16.1317 14.3393 19.7165 -6.97139
2054 3 14.3393 16.1317 19.7165 -6.54977
2309 3 14.3393 14.3393 21.5089 -6.49764
2561 1 16.1317 16.1317 21.5089 -8.41381
38 1 0 1.79241 26.8861 -8.04641
2804 1 1.79241 0 23.3013 -8.33171
3054 1 0 1.79241 23.3013 -8.11132
3309 3 0 0 25.0937 -6.27555
3560 2 1.79241 1.79241 25.0937 -7.03119
3805 1 1.79241 0 26.8861 -8.18179
513 2 5.37723 1.79241 25.0937 -6.96295
39 1 3.58482 1.79241 23.3013 -8.21851
295 3 3.58482 0 25.0937 -6.22292
806 3 5.37723 0 26.8861 -6.28791
1054 1 3.58482 1.79241 26.8861 -8.05779
3806 1 5.37723 0 23.3013 -8.17302
807 1 8.96205 0 23.3013 -8.28846
1055 3 7.16964 1.79241 23.3013 -6.45469
1311 2 7.16964 0 25.0937 -7.02903
1561 2 8.96205 1.79241 25.0937 -7.05587
1804 3 8.96205 0 26.8861 -6.30971
2055 3 7.16964 1.79241 26.8861 -6.54409
1805 1 12.5469 0 23.3013 -7.92838
2056 1 10.7545 1.79241 23.3013 -8.07701
2310 2 10.7545 0 25.0937 -7.05981
2562 2 12.5469 1.79241 25.0937 -6.98814
2805 1 12.5469 0 26.8861 -8.07046
3055 1 10.7545 1.79241 26.8861 -8.08913
40 3 14.3393 1.79241 26.8861 -6.23312
2806 2 16.1317 0 23.3013 -6.9954
3056 1 14.3393 1.79241 23.3013 -8.18377
3310 1 14.3393 0 25.0937 -8.10031
3561 1 16.1317 1.79241 25.0937 -8.179
3807 1 16.1317 0 26.8861 -8.1912
514 1 1.79241 5.37723 25.0937 -7.91768
41 1 0 5.37723 23.3013 -7.889
296 1 0 3.58482 25.0937 -7.81564
808 1 1.79241 3.58482 26.8861 -7.91359
1056 1 0 5.37723 26.8861 -8.00902
3808 2 1.79241 3.58482 23.3013 -7.0218
809 2 5.37723 3.58482 23.3013 -6.96346
1057 2 3.58482 5.37723 23.3013 -7.04428
1312 1 3.58482 3.58482 25.0937 -7.99067
1562 2 5.37723 5.37723 25.0937 -7.07165
1806 1 5.37723 3.58482 26.8861 -8.24296
2057 1 3.58482 5.37723 26.8861 -8.03697
1807 2 8.96205 3.58482 23.3013 -6.95868
2058 3 7.16964 5.37723 23.3013 -6.46769
2311 3 7.16964 3.58482 25.0937 -6.59016
2563 3 8.96205 5.37723 25.0937 -6.34823
2807 2 8.96205 3.58482 26.8861 -7.01974
3057 3 7.16964 5.37723 26.8861 -6.53199
42 1 10.7545 5.37723 26.8861 -8.07119
2808 3 12.5469 3.58482 23.3013 -6.18082
3058 1 10.7545 5.37723 23.3013 -7.99736
3311 1 10.7545 3.58482 25.0937 -8.10896
3562 1 12.5469 5.37723 25.0937 -8.04775
3809 1 12.5469 3.58482 26.8861 -8.02502
515 1 16.1317 5.37723 25.0937 -8.15023
43 2 14.3393 5.37723 23.3013 -6.98799
297 2 14.3393 3.58482 25.0937 -7.0428
810 1 16.1317 3.58482 26.8861 -8.19657
1058 1 14.3393 5.37723 26.8861 -7.91118
3810 2 16.1317 3.58482 23.3013 -7.01286
811 1 1.79241 7.16964 23.3013 -8.06709
1059 1 0 8.96205 23.3013 -8.21034
1313 2 0 7.16964 25.0937 -7.00954
1563 3 1.79241 8.96205 25.0937 -6.4804
1808 3 1.79241 7.16964 26.8861 -6.33104
2059 1 0 8.96205 26.8861 -8.52852
1809 2 5.37723 7.16964 23.3013 -6.98487
2060 3 3.58482 8.96205 23.3013 -6.4538
2312 1 3.58482 7.16964 25.0937 -8.37543
2564 3 5.37723 8.96205 25.0937 -6.51079
2809 2 5.37723 7.16964 26.8861 -6.99569
3059 2 3.58482 8.96205 26.8861 -7.00775
44 1 7.16964 8.96205 26.8861 -8.11515
2810 1 8.96205 7.16964 23.3013 -8.38252
3060 3 7.16964 8.96205 23.3013 -6.5414
3312 2 7.16964 7.16964 25.0937 -6.95168
3563 3 8.96205 8.96205 25.0937 -6.31969
3811 1 8.96205 7.16964 26.8861 -8.21002
516 3 12.5469 8.96205 25.0937 -6.44996
45 2 10.7545 8.96205 23.3013 -7.01227
298 1 10.7545 7.16964 25.0937 -8.17814
812 1 12.5469 7.16964 26.8861 -7.99667
1060 2 10.7545 8.96205 26.8861 -6.9034
3812 3 12.5469 7.16964 23.3013 -6.46062
813 2 16.1317 7.16964 23.3013 -7.07278
1061 3 14.3393 8.96205 23.3013 -6.62182
1314 2 14.3393 7.16964 25.0937 -7.04817
1564 2 16.1317 8.96205 25.0937 -7.04901
1810 2 16.1317 7.16964 26.8861 -7.08637
2061 1 14.3393 8.96205 26.8861 -8.2427
1811 2 1.79241 10.7545 23.3013 -7.02904
2062 2 0 12.5469 23.3013 -7.01504
2313 2 0 10.7545 25.0937 -7.06669
2565 3 1.79241 12.5469 25.0937 -6.67125
2811 2 1.79241 10.7545 26.8861 -7.12638
3061 2 0 12.5469 26.8861 -7.13055
46 3 3.58482 12.5469 26.8861 -6.53444
2812 3 5.37723 10.7545 23.3013 -6.51566
3062 2 3.58482 12.5469 23.3013 -7.09168
3313 2 3.58482 10.7545 25.0937 -7.03781
3564 2 5.37723 12.5469 25.0937 -6.95719
3813 1 5.37723 10.7545 26.8861 -8.35807
549 3 8.96205 12.5469 25.0937 -6.24911
47 1 7.16964 12.5469 23.3013 -8.48125
299 3 7.16964 10.7545 25.0937 -6.39264
751 1 8.96205 10.7545 26.8861 -8.31392
1062 3 7.16964 12.5469 26.8861 -6.36763
3814 2 8.96205 10.7545 23.3013 -6.94954
752 2 12.5469 10.7545 23.3013 -7.07381
1063 1 10.7545 12.5469 23.3013 -8.47898
1315 1 10.7545 10.7545 25.0937 -8.27647
1565 2 12.5469 12.5469 25.0937 -7.07215
1812 2 12.5469 10.7545 26.8861 -6.93289
2063 1 10.7545 12.5469 26.8861 -8.19451
1813 1 16.1317 10.7545 23.3013 -8.21825
2064 2 14.3393 12.5469 23.3013 -6.99568
2314 3 14.3393 10.7545 25.0937 -6.50383
2566 2 16.1317 12.5469 25.0937 -7.00369
2813 2 16.1317 10.7545 26.8861 -6.98996
3063 1 14.3393 12.5469 26.8861 -8.16895
48 3 0 16.1317 26.8861 -6.54133
2814 1 1.79241 14.3393 23.3013 -8.16068
3064 1 0 16.1317 23.3013 -7.95272
3314 2 0 14.3393 25.0937 -7.00993
3565 1 1.79241 16.1317 25.0937 -8.10161
3815 2 1.79241 14.3393 26.8861 -7.05569
550 2 5.37723 16.1317 25.0937 -6.98643
49 3 3.58482 16.1317 23.3013 -6.29905
300 1 3.58482 14.3393 25.0937 -8.45444
753 3 5.37723 14.3393 26.8861 -6.49219
1064 2 3.58482 16.1317 26.8861 -7.0386
3816 2 5.37723 14.3393 23.3013 -7.00915
754 3 8.96205 14.3393 23.3013 -6.49171
1065 2 7.16964 16.1317 23.3013 -6.92636