ITEM: TIMESTEP
0
ITEM: NUMBER OF ATOMS
4000
ITEM: BOX BOUNDS pp pp pp
0.0000000000000000e+00 3.5907429999999998e+01
0.0000000000000000e+00 3.5907429999999998e+01
0.0000000000000000e+00 3.5907429999999998e+01
ITEM: ATOMS id type x y z c_peratom
267 1 0 0 0 -8.63278
516 3 1.79537 1.79537 0 -6.35903
767 3 1.79537 0 1.79537 -6.58934
1016 3 0 1.79537 1.79537 -6.56112
1267 3 0 0 3.59074 -6.61771
1268 2 3.59074 0 0 -6.93344
1270 1 0 3.59074 0 -8.52212
1517 2 1.79537 1.79537 3.59074 -6.96328
1768 1 1.79537 3.59074 1.79537 -8.4204
2017 1 3.59074 1.79537 1.79537 -8.28779
2266 2 3.59074 0 3.59074 -6.99218
2268 3 0 3.59074 3.59074 -6.55111
2269 2 3.59074 3.59074 0 -6.99718
3268 1 3.59074 3.59074 3.59074 -8.33759
1518 2 5.38611 1.79537 0 -6.99962
1767 3 5.38611 0 1.79537 -6.54792
2517 1 5.38611 1.79537 3.59074 -8.04641
2767 2 5.38611 3.59074 1.79537 -7.01454
1 2 10.7722 1.79537 1.79537 -7.01018
268 2 10.7722 0 3.59074 -7.11292
270 1 7.18149 3.59074 3.59074 -8.13954
271 3 10.7722 3.59074 0 -6.23708
1271 1 10.7722 3.59074 3.59074 -8.12319
2267 2 7.18149 0 0 -6.9514
2518 1 8.97686 1.79537 0 -8.01738
2766 3 8.97686 0 1.79537 -6.43882
3017 1 7.18149 1.79537 1.79537 -8.15301
3266 2 7.18149 0 3.59074 -7.05559
3269 1 7.18149 3.59074 0 -7.94337
3267 1 10.7722 0 0 -8.08699
3517 2 8.97686 1.79537 3.59074 -6.98398
3768 1 8.97686 3.59074 1.79537 -7.987
517 2 12.5676 1.79537 3.59074 -7.08908
769 1 12.5676 3.59074 1.79537 -8.10776
3518 2 12.5676 1.79537 0 -7.01988
3767 2 12.5676 0 1.79537 -7.08109
269 1 14.363 0 0 -8.20545
376 2 17.9537 0 0 -6.98468
518 1 16.1583 1.79537 0 -8.24015
768 2 16.1583 0 1.79537 -7.04584
1017 1 14.363 1.79537 1.79537 -8.11633
1126 2 17.9537 1.79537 1.79537 -7.10185
1379 1 17.9537 3.59074 0 -8.28776
1376 2 17.9537 0 3.59074 -6.97847
1269 2 14.363 0 3.59074 -7.04913
1272 2 14.363 3.59074 0 -6.97967
1519 3 16.1583 1.79537 3.59074 -6.50728
1769 2 16.1583 3.59074 1.79537 -7.03185
2270 1 14.363 3.59074 3.59074 -8.15645
2393 2 17.9537 3.59074 3.59074 -7.017
1520 2 1.79537 5.38611 0 -7.02292
2018 3 0 5.38611 1.79537 -6.53925
2519 3 1.79537 5.38611 3.59074 -6.4821
3018 3 3.59074 5.38611 1.79537 -6.53428
2520 1 5.38611 5.38611 0 -8.28423
3519 2 5.38611 5.38611 3.59074 -6.9659
2 3 7.18149 5.38611 1.79537 -6.40806
519 1 8.97686 5.38611 3.59074 -8.4137
1018 1 10.7722 5.38611 1.79537 -8.30002
3520 2 8.97686 5.38611 0 -6.96329
520 3 12.5676 5.38611 0 -6.39379
1521 2 12.5676 5.38611 3.59074 -6.95037
1522 2 16.1583 5.38611 0 -6.92426
2002 3 17.9537 5.38611 1.79537 -6.2912
2019 1 14.363 5.38611 1.79537 -8.19329
2521 1 16.1583 5.38611 3.59074 -8.2409
3 3 3.59074 8.97686 1.79537 -6.60882
272 3 3.59074 7.18149 3.59074 -6.60773
274 3 0 10.7722 3.59074 -6.43045
275 3 3.59074 10.7722 0 -6.5181
1275 1 3.59074 10.7722 3.59074 -8.25046
2271 2 0 7.18149 0 -7.02042
2522 3 1.79537 8.97686 0 -6.58746
2768 2 1.79537 7.18149 1.79537 -6.99265
3019 2 0 8.97686 1.79537 -6.94427
3273 3 0 10.7722 0 -6.43714
3271 3 3.59074 7.18149 0 -6.52586
3270 3 0 7.18149 3.59074 -6.5202
3521 3 1.79537 8.97686 3.59074 -6.51241
3770 3 1.79537 10.7722 1.79537 -6.50794
521 1 5.38611 8.97686 3.59074 -8.49003
771 2 5.38611 10.7722 1.79537 -7.036
3522 2 5.38611 8.97686 0 -6.95729
3769 2 5.38611 7.18149 1.79537 -6.98016
273 3 7.18149 7.18149 0 -6.47328
522 3 8.97686 8.97686 0 -6.57843
770 2 8.97686 7.18149 1.79537 -7.01833
1019 2 7.18149 8.97686 1.79537 -7.13513
1276 2 7.18149 10.7722 0 -7.08643
1274 2 10.7722 7.18149 0 -6.95374
1273 3 7.18149 7.18149 3.59074 -6.64052
1523 2 8.97686 8.97686 3.59074 -7.05036
1771 2 8.97686 10.7722 1.79537 -7.053
2020 3 10.7722 8.97686 1.79537 -6.53262
2272 3 10.7722 7.18149 3.59074 -6.4773
2275 2 10.7722 10.7722 0 -6.91375
2274 3 7.18149 10.7722 3.59074 -6.61961
3274 3 10.7722 10.7722 3.59074 -6.47144
1524 1 12.5676 8.97686 0 -8.25306
1770 3 12.5676 7.18149 1.79537 -6.36017
2523 1 12.5676 8.97686 3.59074 -8.44098
2770 1 12.5676 10.7722 1.79537 -8.24539
383 1 17.9537 10.7722 3.59074 -8.32275
276 3 14.363 10.7722 3.59074 -6.45905
2273 3 14.363 7.18149 0 -6.33873
2396 3 17.9537 7.18149 0 -6.32881
2524 3 16.1583 8.97686 0 -6.44593
2769 1 16.1583 7.18149 1.79537 -8.35797
3144 2 17.9537 8.97686 1.79537 -7.01954
3020 3 14.363 8.97686 1.79537 -6.36653
3398 2 17.9537 10.7722 0 -7.0679
3395 1 17.9537 7.18149 3.59074 -8.15177
3275 2 14.363 10.7722 0 -7.0177
3272 1 14.363 7.18149 3.59074 -8.26217
3523 3 16.1583 8.97686 3.59074 -6.4132
3771 2 16.1583 10.7722 1.79537 -6.98032
4 1 0 12.5676 1.79537 -8.41829
523 2 1.79537 12.5676 3.59074 -6.97261
1020 2 3.59074 12.5676 1.79537 -6.9281
3524 1 1.79537 12.5676 0 -8.4986
524 1 5.38611 12.5676 0 -8.41285
1525 2 5.38611 12.5676 3.59074 -7.03034
1526 1 8.97686 12.5676 0 -8.28194
2021 1 7.18149 12.5676 1.79537 -8.2099
2525 2 8.97686 12.5676 3.59074 -7.03118
3021 1 10.7722 12.5676 1.79537 -8.2254
2526 3 12.5676 12.5676 0 -6.31089
3525 2 12.5676 12.5676 3.59074 -6.92867
5 1 14.363 12.5676 1.79537 -8.44964
129 3 17.9537 12.5676 1.79537 -6.48045
525 3 16.1583 12.5676 3.59074 -6.59589
3526 2 16.1583 12.5676 0 -7.04473
314 1 3.59074 17.9537 3.59074 -8.13414
277 3 0 14.363 0 -6.46147
526 1 1.79537 16.1583 0 -8.38161
772 1 1.79537 14.363 1.79537 -8.21401
1021 3 0 16.1583 1.79537 -6.34077
1278 3 3.59074 14.363 0 -6.32888
1277 2 0 14.363 3.59074 -7.06898
1527 2 1.79537 16.1583 3.59074 -7.01895
2022 1 3.59074 16.1583 1.79537 -8.22941
2328 3 0 17.9537 0 -6.45013
2276 3 3.59074 14.363 3.59074 -6.41712
2828 1 1.79537 17.9537 1.79537 -8.40399
3329 2 3.59074 17.9537 0 -6.98322
3328 2 0 17.9537 3.59074 -6.97908
1528 3 5.38611 16.1583 0 -6.39317
1772 3 5.38611 14.363 1.79537 -6.40774
2527 3 5.38611 16.1583 3.59074 -6.25961
3829 1 5.38611 17.9537 1.79537 -8.26806
6 2 10.7722 16.1583 1.79537 -7.01244
315 3 7.18149 17.9537 0 -6.36104
278 2 10.7722 14.363 3.59074 -7.00181
814 2 8.97686 17.9537 1.79537 -6.99556
1331 1 10.7722 17.9537 0 -8.16912
1330 2 7.18149 17.9537 3.59074 -6.97071
2329 1 10.7722 17.9537 3.59074 -8.115
2277 2 7.18149 14.363 0 -6.91578
2528 3 8.97686 16.1583 0 -6.48191
2771 1 8.97686 14.363 1.79537 -8.20388
3022 3 7.18149 16.1583 1.79537 -6.42113
3277 1 10.7722 14.363 0 -8.36614
3276 1 7.18149 14.363 3.59074 -8.22679
3527 3 8.97686 16.1583 3.59074 -6.44609
527 1 12.5676 16.1583 3.59074 -8.23652
1830 1 12.5676 17.9537 1.79537 -8.21322
3528 1 12.5676 16.1583 0 -8.38636
3772 3 12.5676 14.363 1.79537 -6.40712
386 3 17.9537 14.363 0 -6.28763
279 3 14.363 14.363 0 -6.40162
528 3 16.1583 16.1583 0 -6.40927
773 2 16.1583 14.363 1.79537 -7.00106
1131 1 17.9537 16.1583 1.79537 -8.26229
1022 3 14.363 16.1583 1.79537 -6.49923
1386 2 17.9537 14.363 3.59074 -7.01591
1279 2 14.363 14.363 3.59074 -7.05853
1529 2 16.1583 16.1583 3.59074 -7.06171
2438 2 17.9537 17.9537 0 -7.0807
2330 3 14.363 17.9537 0 -6.35165
2829 2 16.1583 17.9537 1.79537 -6.99005
3453 2 17.9537 17.9537 3.59074 -6.95656
3330 3 14.363 17.9537 3.59074 -6.42984
775 1 0 3.59074 7.18149 -8.43356
1280 3 3.59074 3.59074 7.18149 -6.64857
1773 1 1.79537 0 5.38611 -8.46893
2023 3 0 1.79537 5.38611 -6.46512
2278 1 0 0 7.18149 -8.18139
2529 3 1.79537 1.79537 7.18149 -6.46208
2774 2 1.79537 3.59074 5.38611 -6.88967
2773 3 3.59074 0 7.18149 -6.369
3023 2 3.59074 1.79537 5.38611 -6.96766
2772 1 5.38611 0 5.38611 -8.28437
3024 3 5.38611 1.79537 7.18149 -6.45187
3775 3 5.38611 3.59074 5.38611 -6.48041
7 1 7.18149 1.79537 5.38611 -8.31677
776 3 8.97686 3.59074 5.38611 -6.35551
1023 1 10.7722 1.79537 5.38611 -8.36529
1775 3 7.18149 3.59074 7.18149 -6.45395
2279 3 10.7722 3.59074 7.18149 -6.49016
3278 3 7.18149 0 7.18149 -6.35461
3529 2 8.97686 1.79537 7.18149 -6.86606
3774 2 10.7722 0 7.18149 -7.07346
3773 1 8.97686 0 5.38611 -8.05715
8 2 12.5676 1.79537 7.18149 -7.01722
774 3 12.5676 0 5.38611 -6.68795
1776 3 12.5676 3.59074 5.38611 -6.42134
280 2 14.363 0 7.18149 -7.13008
529 2 16.1583 1.79537 7.18149 -6.99783
884 1 17.9537 3.59074 7.18149 -8.21158
1774 1 16.1583 0 5.38611 -8.21815
2024 1 14.363 1.79537 5.38611 -8.28139
2007 2 17.9537 1.79537 5.38611 -7.01168
2403 1 17.9537 0 7.18149 -8.22352
2776 1 14.363 3.59074 7.18149 -8.16255
2775 3 16.1583 3.59074 5.38611 -6.36319
9 3 3.59074 5.38611 5.38611 -6.56506
1024 2 1.79537 5.38611 7.18149 -6.98165
3025 3 0 5.38611 5.38611 -6.51107
1530 3 5.38611 5.38611 7.18149 -6.48486
1025 2 7.18149 5.38611 5.38611 -6.91793
2026 3 10.7722 5.38611 5.38611 -6.46408
2025 1 8.97686 5.38611 7.18149 -8.63803
2530 2 12.5676 5.38611 7.18149 -6.98521
3150 3 17.9537 5.38611 5.38611 -6.34011
3027 1 16.1583 5.38611 7.18149 -8.47826
3026 2 14.363 5.38611 5.38611 -6.94466
10 3 0 8.97686 5.38611 -6.37692
779 1 1.79537 10.7722 5.38611 -8.2831
1026 2 3.59074 8.97686 5.38611 -6.95556
1778 1 0 10.7722 7.18149 -8.04981
2280 3 3.59074 10.7722 7.18149 -6.28349
3279 3 0 7.18149 7.18149 -6.49043
3530 1 1.79537 8.97686 7.18149 -8.21953
3777 3 3.59074 7.18149 7.18149 -6.38475
3776 1 1.79537 7.18149 5.38611 -8.68528
11 1 5.38611 8.97686 7.18149 -8.19703
777 2 5.38611 7.18149 5.38611 -6.99638
1779 2 5.38611 10.7722 5.38611 -7.06277
281 1 7.18149 7.18149 7.18149 -8.2037
530 2 8.97686 8.97686 7.18149 -6.95223
778 3 10.7722 7.18149 7.18149 -6.52534
1777 3 8.97686 7.18149 5.38611 -6.50514
2027 2 7.18149 8.97686 5.38611 -7.03834
2779 2 7.18149 10.7722 7.18149 -7.03483
2778 3 8.97686 10.7722 5.38611 -6.63596
3028 3 10.7722 8.97686 5.38611 -6.50936
3280 3 10.7722 10.7722 7.18149 -6.49353
1027 1 12.5676 8.97686 7.18149 -8.40143
2777 2 12.5676 7.18149 5.38611 -6.96433
3779 1 12.5676 10.7722 5.38611 -8.50738
12 3 14.363 8.97686 5.38611 -6.46995
135 2 17.9537 8.97686 5.38611 -6.99029
780 2 16.1583 10.7722 5.38611 -6.97594
1281 3 14.363 7.18149 7.18149 -6.54936
1531 2 16.1583 8.97686 7.18149 -7.02396
1887 1 17.9537 10.7722 7.18149 -8.12886
3404 3 17.9537 7.18149 7.18149 -6.54349
3780 2 14.363 10.7722 7.18149 -6.97765
3778 3 16.1583 7.18149 5.38611 -6.4228
1028 1 0 12.5676 5.38611 -7.95418
2029 2 3.59074 12.5676 5.38611 -6.98787
2028 3 1.79537 12.5676 7.18149 -6.13363
2531 2 5.38611 12.5676 7.18149 -7.05169
13 3 10.7722 12.5676 5.38611 -6.58269
3030 3 8.97686 12.5676 7.18149 -6.5762
3029 1 7.18149 12.5676 5.38611 -8.43726
3531 2 12.5676 12.5676 7.18149 -6.88822
14 1 16.1583 12.5676 7.18149 -8.30333
1138 3 17.9537 12.5676 5.38611 -6.37423
1029 3 14.363 12.5676 5.38611 -6.51507
326 2 0 17.9537 7.18149 -7.03217
282 1 0 14.363 7.18149 -8.15723
531 2 1.79537 16.1583 7.18149 -7.03741
821 3 3.59074 17.9537 7.18149 -6.2483
781 1 3.59074 14.363 7.18149 -8.2944
1780 1 1.79537 14.363 5.38611 -8.11921
2030 1 0 16.1583 5.38611 -7.9728
3031 1 3.59074 16.1583 5.38611 -8.12078
3835 1 1.79537 17.9537 5.38611 -8.21151
820 1 5.38611 17.9537 5.38611 -8.11947
1030 2 5.38611 16.1583 7.18149 -7.04323
2780 2 5.38611 14.363 5.38611 -7.0196
15 1 7.18149 16.1583 5.38611 -8.23827
1031 2 10.7722 16.1583 5.38611 -7.0927
1342 1 7.18149 17.9537 7.18149 -7.97751
1282 2 7.18149 14.363 7.18149 -6.98329
1532 2 8.97686 16.1583 7.18149 -7.13934
1837 3 10.7722 17.9537 7.18149 -6.46594
1836 2 8.97686 17.9537 5.38611 -7.01014
1781 3 10.7722 14.363 7.18149 -6.61461
3781 2 8.97686 14.363 5.38611 -7.07425
782 1 12.5676 14.363 5.38611 -8.34923
2031 2 12.5676 16.1583 7.18149 -7.05135
2835 1 12.5676 17.9537 5.38611 -8.25573
451 2 17.9537 17.9537 7.18149 -7.02342
391 3 17.9537 14.363 7.18149 -6.4858
1782 2 16.1583 14.363 5.38611 -7.03325
2032 2 14.363 16.1583 5.38611 -7.09694
2014 3 17.9537 16.1583 5.38611 -6.54568
2341 2 14.363 17.9537 7.18149 -7.03384
2281 1 14.363 14.363 7.18149 -8.20743
2532 2 16.1583 16.1583 7.18149 -7.05464
3836 1 16.1583 17.9537 5.38611 -8.6162
251 1 3.59074 0 10.7722 -8.38452
253 2 0 3.59074 10.7722 -7.15618
16 3 0 1.79537 12.5676 -6.72138
785 2 1.79537 3.59074 12.5676 -7.0374
1032 3 3.59074 1.79537 12.5676 -6.7202
1285 3 3.59074 3.59074 10.7722 -6.61246
1284 2 1.79537 3.59074 8.97686 -7.02853
2781 1 1.79537 0 8.97686 -8.3569
3032 3 0 1.79537 8.97686 -6.48767
3281 3 0 0 10.7722 -6.50318
3533 2 3.59074 1.79537 8.97686 -6.97439
3532 3 1.79537 1.79537 10.7722 -6.61144
3782 2 1.79537 0 12.5676 -6.95577
532 2 5.38611 1.79537 10.7722 -6.97326
783 2 5.38611 0 12.5676 -6.97324
1785 2 5.38611 3.59074 12.5676 -7.00902
1784 2 5.38611 3.59074 8.97686 -6.91011
3282 3 5.38611 0 8.97686 -6.39295
17 1 7.18149 1.79537 8.97686 -8.40813
533 3 10.7722 1.79537 8.97686 -6.38604
1283 1 7.18149 0 10.7722 -8.25187
1533 1 8.97686 1.79537 10.7722 -8.19911
1783 1 8.97686 0 12.5676 -8.19158
2033 3 7.18149 1.79537 12.5676 -6.50934
2284 1 7.18149 3.59074 10.7722 -8.23453
2283 3 8.97686 3.59074 8.97686 -6.2944
2282 1 10.7722 0 10.7722 -8.23774
2783 2 8.97686 3.59074 12.5676 -7.02854
3033 3 10.7722 1.79537 12.5676 -6.24115
3284 1 10.7722 3.59074 10.7722 -8.25657
3783 3 8.97686 0 8.97686 -6.37057
252 3 12.5676 0 8.97686 -6.60405
2533 1 12.5676 1.79537 10.7722 -8.22719
2784 1 12.5676 3.59074 8.97686 -8.21809
2782 3 12.5676 0 12.5676 -6.3026
3785 3 12.5676 3.59074 12.5676 -6.22024
254 1 14.363 3.59074 10.7722 -8.00565
394 3 17.9537 3.59074 10.7722 -6.40453
141 3 17.9537 1.79537 12.5676 -6.34734
18 1 14.363 1.79537 12.5676 -8.17505
786 2 16.1583 3.59074 12.5676 -6.95387
784 2 16.1583 0 8.97686 -7.07482
1033 2 14.363 1.79537 8.97686 -7.07638
3157 3 17.9537 1.79537 8.97686 -6.25485
3406 1 17.9537 0 10.7722 -8.45016
3285 1 16.1583 3.59074 8.97686 -8.07888
3283 3 14.363 0 10.7722 -6.47082
3534 1 16.1583 1.79537 10.7722 -8.24034
3784 3 16.1583 0 12.5676 -6.39552
534 3 1.79537 5.38611 10.7722 -6.5182
1034 2 0 5.38611 12.5676 -6.99993
1534 2 0 5.38611 8.97686 -7.06562
2035 1 3.59074 5.38611 12.5676 -8.41985
2034 1 3.59074 5.38611 8.97686 -8.56684
1535 3 5.38611 5.38611 10.7722 -6.26896
19 2 10.7722 5.38611 12.5676 -6.93896
2535 1 8.97686 5.38611 10.7722 -8.09137
2534 3 7.18149 5.38611 8.97686 -6.31308
3035 2 10.7722 5.38611 8.97686 -7.00451
3034 1 7.18149 5.38611 12.5676 -8.22143
3535 3 12.5676 5.38611 10.7722 -6.24084
535 1 16.1583 5.38611 10.7722 -8.19149
1144 3 17.9537 5.38611 12.5676 -6.35249
1035 1 14.363 5.38611 12.5676 -8.34373
1643 2 17.9537 5.38611 8.97686 -6.96127
3536 3 14.363 5.38611 8.97686 -6.28194
20 3 0 8.97686 8.97686 -6.38827
536 1 3.59074 8.97686 8.97686 -8.1054
1286 1 0 7.18149 10.7722 -8.41736
1536 2 1.79537 8.97686 10.7722 -6.93126
1786 1 1.79537 7.18149 12.5676 -8.28425
2036 2 0 8.97686 12.5676 -7.02324
2287 3 0 10.7722 10.7722 -6.53751
2286 1 1.79537 10.7722 8.97686 -8.19234
2285 3 3.59074 7.18149 10.7722 -6.23534
2786 2 1.79537 10.7722 12.5676 -6.94648
3036 3 3.59074 8.97686 12.5676 -6.27249
3287 1 3.59074 10.7722 10.7722 -8.25536
3786 2 1.79537 7.18149 8.97686 -6.91746
255 1 5.38611 7.18149 8.97686 -8.2262
2536 3 5.38611 8.97686 10.7722 -6.13635
2787 1 5.38611 10.7722 8.97686 -8.09492
2785 1 5.38611 7.18149 12.5676 -8.18615
3788 2 5.38611 10.7722 12.5676 -6.91772
256 1 10.7722 7.18149 10.7722 -8.18961
257 3 7.18149 10.7722 10.7722 -6.3351
21 1 7.18149 8.97686 12.5676 -8.16798
789 1 8.97686 10.7722 12.5676 -8.26923
787 2 8.97686 7.18149 8.97686 -7.02891
1037 2 10.7722 8.97686 12.5676 -7.02059
1036 1 7.18149 8.97686 8.97686 -8.21431
1289 1 10.7722 10.7722 10.7722 -8.1403
1537 1 10.7722 8.97686 8.97686 -8.24238
3288 3 8.97686 10.7722 8.97686 -6.41475
3286 1 7.18149 7.18149 10.7722 -8.02475
3537 2 8.97686 8.97686 10.7722 -7.03992
3787 2 8.97686 7.18149 12.5676 -7.04449
537 3 12.5676 8.97686 10.7722 -6.32587
788 1 12.5676 7.18149 12.5676 -8.21222
1287 2 12.5676 7.18149 8.97686 -6.98395
1789 2 12.5676 10.7722 12.5676 -7.01087
3789 1 12.5676 10.7722 8.97686 -8.19376
258 2 16.1583 10.7722 8.97686 -7.05123
145 1 17.9537 8.97686 8.97686 -8.34212
1395 1 17.9537 7.18149 10.7722 -8.3433
1288 1 14.363 7.18149 10.7722 -8.36436
1538 3 16.1583 8.97686 10.7722 -6.33278
1788 3 16.1583 7.18149 12.5676 -6.36348
1787 3 16.1583 7.18149 8.97686 -6.39055
2145 3 17.9537 8.97686 12.5676 -6.41217
2038 2 14.363 8.97686 12.5676 -7.0425
2037 2 14.363 8.97686 8.97686 -7.01702
2256 1 17.9537 10.7722 10.7722 -8.2861
2288 1 14.363 10.7722 10.7722 -8.31818
2788 2 16.1583 10.7722 12.5676 -7.04666
22 3 3.59074 12.5676 12.5676 -6.26937
2538 1 1.79537 12.5676 10.7722 -8.29603
2537 3 0 12.5676 8.97686 -6.18104
3038 1 3.59074 12.5676 8.97686 -8.11649
3037 3 0 12.5676 12.5676 -6.40808
3538 3 5.38611 12.5676 10.7722 -6.27182
23 2 10.7722 12.5676 8.97686 -7.01473
538 2 8.97686 12.5676 10.7722 -6.95861
1038 3 7.18149 12.5676 12.5676 -6.46507
2039 3 10.7722 12.5676 12.5676 -6.41533
3539 1 7.18149 12.5676 8.97686 -8.39629
1539 1 12.5676 12.5676 10.7722 -8.20981
539 3 14.363 12.5676 8.97686 -6.26584
2662 1 17.9537 12.5676 8.97686 -8.10368
2539 1 16.1583 12.5676 10.7722 -8.21993
3162 3 17.9537 12.5676 12.5676 -6.33801
3039 3 14.363 12.5676 12.5676 -6.38748
259 1 3.59074 14.363 10.7722 -8.5474
24 2 0 16.1583 12.5676 -7.04992
829 1 1.79537 17.9537 8.97686 -8.36868
790 3 1.79537 14.363 8.97686 -6.2434
1040 2 3.59074 16.1583 12.5676 -6.97399
1039 3 0 16.1583 8.97686 -6.25529
1251 1 0 17.9537 10.7722 -8.24438
1540 3 3.59074 16.1583 8.97686 -6.39372
1845 1 1.79537 17.9537 12.5676 -8.17001
2344 2 3.59074 17.9537 10.7722 -6.97993
3289 1 0 14.363 10.7722 -8.32249
3540 2 1.79537 16.1583 10.7722 -6.95702
3790 3 1.79537 14.363 12.5676 -6.2919
540 3 5.38611 16.1583 10.7722 -6.3134
791 3 5.38611 14.363 12.5676 -6.37748
1252 1 5.38611 17.9537 8.97686 -8.13563
1290 3 5.38611 14.363 8.97686 -6.27225
2844 2 5.38611 17.9537 12.5676 -7.00076
330 2 10.7722 17.9537 10.7722 -6.99784
1291 1 7.18149 14.363 10.7722 -8.27134
1541 1 8.97686 16.1583 10.7722 -8.06415
1846 1 8.97686 17.9537 8.97686 -8.1708
1791 2 8.97686 14.363 12.5676 -6.96707
1790 2 8.97686 14.363 8.97686 -7.07276
2041 1 7.18149 16.1583 12.5676 -8.44082
2040 1 7.18149 16.1583 8.97686 -8.09655
2290 3 10.7722 14.363 10.7722 -6.41325
2540 2 10.7722 16.1583 8.97686 -7.04297
3040 1 10.7722 16.1583 12.5676 -8.22193
3344 1 7.18149 17.9537 10.7722 -8.02599
3845 2 8.97686 17.9537 12.5676 -7.02161
830 3 12.5676 17.9537 12.5676 -6.19766
2345 2 12.5676 17.9537 8.97686 -7.01438
2289 1 12.5676 14.363 8.97686 -8.21124
2541 1 12.5676 16.1583 10.7722 -8.17878
2789 3 12.5676 14.363 12.5676 -6.34203
149 3 17.9537 16.1583 12.5676 -6.1868
25 2 14.363 16.1583 12.5676 -6.95727
1149 3 17.9537 16.1583 8.97686 -6.61373
1253 1 14.363 17.9537 10.7722 -8.14406
1454 3 17.9537 17.9537 10.7722 -6.41125
1847 1 16.1583 17.9537 12.5676 -8.07555
2845 3 16.1583 17.9537 8.97686 -6.58628
2790 2 16.1583 14.363 8.97686 -6.99781
3041 2 14.363 16.1583 8.97686 -7.12689
3414 2 17.9537 14.363 10.7722 -6.87459
3290 1 14.363 14.363 10.7722 -8.18251
3541 1 16.1583 16.1583 10.7722 -8.38642
3791 3 16.1583 14.363 12.5676 -6.27878
260 1 0 0 14.363 -8.35024
541 2 1.79537 1.79537 14.363 -7.0627
792 2 1.79537 0 16.1583 -6.94769
1041 3 0 1.79537 16.1583 -6.60738
1298 2 0 0 17.9537 -7.01233
1293 3 0 3.59074 14.363 -6.6193
1292 2 3.59074 0 14.363 -7.0102
1548 1 1.79537 1.79537 17.9537 -8.28741
1793 2 1.79537 3.59074 16.1583 -7.03863
2042 3 3.59074 1.79537 16.1583 -6.53752
2300 2 0 3.59074 17.9537 -7.01346
2298 3 3.59074 0 17.9537 -6.29873
2292 3 3.59074 3.59074 14.363 -6.58592
3300 1 3.59074 3.59074 17.9537 -8.07815
1542 2 5.38611 1.79537 14.363 -7.07876
1792 3 5.38611 0 16.1583 -6.41917
2549 1 5.38611 1.79537 17.9537 -8.42524
2792 3 5.38611 3.59074 16.1583 -6.49358
262 1 10.7722 3.59074 14.363 -8.47414
286 2 7.18149 3.59074 17.9537 -7.04125
284 3 10.7722 0 17.9537 -6.63176
26 1 10.7722 1.79537 16.1583 -8.36249
1302 2 10.7722 3.59074 17.9537 -7.04632
2291 3 7.18149 0 14.363 -6.43335
2542 2 8.97686 1.79537 14.363 -6.95905
2791 3 8.97686 0 16.1583 -6.4549
3042 3 7.18149 1.79537 16.1583 -6.6685
3298 2 7.18149 0 17.9537 -7.00322
3292 2 7.18149 3.59074 14.363 -7.09669
3291 3 10.7722 0 14.363 -6.37651
3549 2 8.97686 1.79537 17.9537 -7.10638
3793 2 8.97686 3.59074 16.1583 -7.097
502 2 12.5676 1.79537 17.9537 -7.05036
794 2 12.5676 3.59074 16.1583 -7.08174
3542 1 12.5676 1.79537 14.363 -8.24786
3792 2 12.5676 0 16.1583 -7.10328
261 2 14.363 0 14.363 -6.99618
401 2 17.9537 0 14.363 -6.91547
542 1 16.1583 1.79537 14.363 -8.14991
793 3 16.1583 0 16.1583 -6.34273
1151 1 17.9537 1.79537 16.1583 -8.03011
1042 1 14.363 1.79537 16.1583 -8.14517
1407 1 17.9537 0 17.9537 -8.09179
1402 1 17.9537 3.59074 14.363 -8.34084
1300 1 14.363 0 17.9537 -8.32345
1294 2 14.363 3.59074 14.363 -6.98793
1550 2 16.1583 1.79537 17.9537 -6.95399
1794 1 16.1583 3.59074 16.1583 -8.30554
2410 3 17.9537 3.59074 17.9537 -6.35606
2302 2 14.363 3.59074 17.9537 -7.0276
1543 3 1.79537 5.38611 14.363 -6.33593
2043 1 0 5.38611 16.1583 -8.22543
2551 2 1.79537 5.38611 17.9537 -6.91225
3043 1 3.59074 5.38611 16.1583 -8.33365
2543 3 5.38611 5.38611 14.363 -6.36301
3551 1 5.38611 5.38611 17.9537 -8.25184
27 2 7.18149 5.38611 16.1583 -7.00121
504 1 8.97686 5.38611 17.9537 -8.39573
1043 3 10.7722 5.38611 16.1583 -6.46557
3543 3 8.97686 5.38611 14.363 -6.52668
543 3 12.5676 5.38611 14.363 -6.44606
1552 3 12.5676 5.38611 17.9537 -6.49184
1544 3 16.1583 5.38611 14.363 -6.43628
2152 2 17.9537 5.38611 16.1583 -6.96685
2044 2 14.363 5.38611 16.1583 -6.99997
2553 3 16.1583 5.38611 17.9537 -6.5984
264 1 3.59074 10.7722 14.363 -8.33766
290 3 0 10.7722 17.9537 -6.55214
288 3 3.59074 7.18149 17.9537 -6.49781
28 2 3.59074 8.97686 16.1583 -6.95203
1306 2 3.59074 10.7722 17.9537 -7.08672
2293 1 0 7.18149 14.363 -8.14627
2544 3 1.79537 8.97686 14.363 -6.35311
2793 3 1.79537 7.18149 16.1583 -6.25397
3044 1 0 8.97686 16.1583 -8.31889
3302 1 0 7.18149 17.9537 -8.2987
3294 3 0 10.7722 14.363 -6.5333
3293 1 3.59074 7.18149 14.363 -8.11789
3553 3 1.79537 8.97686 17.9537 -6.5953
3795 2 1.79537 10.7722 16.1583 -6.99292
506 3 5.38611 8.97686 17.9537 -6.65475
796 3 5.38611 10.7722 16.1583 -6.45579
3544 1 5.38611 8.97686 14.363 -7.97498
3794 1 5.38611 7.18149 16.1583 -8.13525
263 2 7.18149 7.18149 14.363 -7.01308
544 2 8.97686 8.97686 14.363 -7.07281
795 3 8.97686 7.18149 16.1583 -6.47343
1044 1 7.18149 8.97686 16.1583 -8.31916
1304 3 7.18149 7.18149 17.9537 -6.51268
1296 2 7.18149 10.7722 14.363 -7.03366
1295 1 10.7722 7.18149 14.363 -8.52432
1554 2 8.97686 8.97686 17.9537 -7.01115
1796 1 8.97686 10.7722 16.1583 -8.19978
2045 3 10.7722 8.97686 16.1583 -6.49553
2306 2 7.18149 10.7722 17.9537 -7.09501
2304 1 10.7722 7.18149 17.9537 -8.40273
2295 1 10.7722 10.7722 14.363 -8.36105
3306 2 10.7722 10.7722 17.9537 -7.15352
1545 2 12.5676 8.97686 14.363 -7.05413
1795 3 12.5676 7.18149 16.1583 -6.52987
2555 2 12.5676 8.97686 17.9537 -7.05468
2795 3 12.5676 10.7722 16.1583 -6.64551
415 1 17.9537 10.7722 17.9537 -8.22306
292 2 14.363 10.7722 17.9537 -7.06361
2262 1 17.9537 7.18149 14.363 -8.40521
2294 3 14.363 7.18149 14.363 -6.54346
2545 2 16.1583 8.97686 14.363 -7.09872
2794 2 16.1583 7.18149 16.1583 -7.06228
3169 1 17.9537 8.97686 16.1583 -8.25997
3045 1 14.363 8.97686 16.1583 -8.55143
3427 2 17.9537 7.18149 17.9537 -7.03047
3419 2 17.9537 10.7722 14.363 -7.00854
3304 3 14.363 7.18149 17.9537 -6.55806
3295 2 14.363 10.7722 14.363 -7.09491
3555 2 16.1583 8.97686 17.9537 -7.0925
3796 2 16.1583 10.7722 16.1583 -7.0365
29 3 0 12.5676 16.1583 -6.50455
508 1 1.79537 12.5676 17.9537 -8.45969
1045 2 3.59074 12.5676 16.1583 -6.96826
3545 1 1.79537 12.5676 14.363 -8.4476
545 1 5.38611 12.5676 14.363 -8.55061
1556 1 5.38611 12.5676 17.9537 -8.37219
1546 2 8.97686 12.5676 14.363 -7.02931
2046 2 7.18149 12.5676 16.1583 -7.0227
2557 2 8.97686 12.5676 17.9537 -7.14096
3046 2 10.7722 12.5676 16.1583 -7.09623
2546 2 12.5676 12.5676 14.363 -7.01207
3557 2 12.5676 12.5676 17.9537 -7.13384
154 1 17.9537 12.5676 16.1583 -8.04894
30 1 14.363 12.5676 16.1583 -8.25276
510 3 16.1583 12.5676 17.9537 -6.27415
3546 1 16.1583 12.5676 14.363 -8.3508
265 1 0 14.363 14.363 -8.26212
346 3 3.59074 17.9537 17.9537 -6.56185
546 1 1.79537 16.1583 14.363 -8.20742
797 2 1.79537 14.363 16.1583 -6.9934
1046 2 0 16.1583 16.1583 -7.06279
1308 2 0 14.363 17.9537 -6.96399
1297 3 3.59074 14.363 14.363 -6.46471
1558 3 1.79537 16.1583 17.9537 -6.48951
2047 2 3.59074 16.1583 16.1583 -6.94379
2353 1 0 17.9537 14.363 -8.10006
2308 1 3.59074 14.363 17.9537 -8.46252
2853 1 1.79537 17.9537 16.1583 -8.19053
3359 1 0 17.9537 17.9537 -8.33613
3353 3 3.59074 17.9537 14.363 -6.47529
1547 3 5.38611 16.1583 14.363 -6.49531
1797 3 5.38611 14.363 16.1583 -6.43165
2559 2 5.38611 16.1583 17.9537 -6.91222
3854 3 5.38611 17.9537 16.1583 -6.47273
339 3 7.18149 17.9537 14.363 -6.43412
294 2 10.7722 14.363 17.9537 -7.05944
31 1 10.7722 16.1583 16.1583 -8.24997
839 3 8.97686 17.9537 16.1583 -6.31701
1261 1 10.7722 17.9537 14.363 -8.3
1346 2 7.18149 17.9537 17.9537 -6.87449
2361 2 10.7722 17.9537 17.9537 -6.93924
2296 3 7.18149 14.363 14.363 -6.43125
2547 3 8.97686 16.1583 14.363 -6.25533
2796 1 8.97686 14.363 16.1583 -8.12113
3047 1 7.18149 16.1583 16.1583 -8.48825
3308 1 7.18149 14.363 17.9537 -8.25442
3296 1 10.7722 14.363 14.363 -8.34015
3559 1 8.97686 16.1583 17.9537 -8.18038
512 3 12.5676 16.1583 17.9537 -6.51615
1855 2 12.5676 17.9537 16.1583 -6.99877
3547 3 12.5676 16.1583 14.363 -6.41411
3797 3 12.5676 14.363 16.1583 -6.44914
266 2 14.363 14.363 14.363 -6.93551
406 3 17.9537 14.363 14.363 -6.16218
547 1 16.1583 16.1583 14.363 -8.42061
798 1 16.1583 14.363 16.1583 -8.07098
1156 3 17.9537 16.1583 16.1583 -6.18126
1047 3 14.363 16.1583 16.1583 -6.46788
1417 1 17.9537 14.363 17.9537 -8.1287
1310 1 14.363 14.363 17.9537 -8.54555
1560 2 16.1583 16.1583 17.9537 -6.91456
2463 3 17.9537 17.9537 14.363 -6.14399
2354 3 14.363 17.9537 14.363 -6.29981
2854 1 16.1583 17.9537 16.1583 -8.3805
3469 2 17.9537 17.9537 17.9537 -6.97249
3361 2 14.363 17.9537 17.9537 -7.01282
285 3 3.59074 3.59074 21.5445 -6.32982
1798 1 1.79537 0 19.7491 -8.14326
2048 1 0 1.79537 19.7491 -8.01453
2297 3 0 0 21.5445 -6.13801
2548 1 1.79537 1.79537 21.5445 -7.9803
2798 3 1.79537 3.59074 19.7491 -6.25113
3048 1 3.59074 1.79537 19.7491 -8.06186
3299 1 0 3.59074 21.5445 -8.16193
3297 1 3.59074 0 21.5445 -8.12255
2797 1 5.38611 0 19.7491 -8.16363
3548 2 5.38611 1.79537 21.5445 -6.9298
3799 3 5.38611 3.59074 19.7491 -6.40248
501 2 8.97686 1.79537 21.5445 -7.12388
32 2 7.18149 1.79537 19.7491 -7.05907
283 3 7.18149 0 21.5445 -6.58044
800 2 8.97686 3.59074 19.7491 -7.17702
1048 2 10.7722 1.79537 19.7491 -7.1282
1301 1 7.18149 3.59074 21.5445 -8.49347
1299 3 10.7722 0 21.5445 -6.7244
2301 2 10.7722 3.59074 21.5445 -7.06866
3798 3 8.97686 0 19.7491 -6.60241
799 3 12.5676 0 19.7491 -6.59646
1549 3 12.5676 1.79537 21.5445 -6.65429
1800 3 12.5676 3.59074 19.7491 -6.6242
1799 3 16.1583 0 19.7491 -6.41943
2157 1 17.9537 1.79537 19.7491 -8.42236
2049 3 14.363 1.79537 19.7491 -6.64336
2407 3 17.9537 0 21.5445 -6.42575
2299 3 14.363 0 21.5445 -6.58346
2550 2 16.1583 1.79537 21.5445 -6.96122
2799 2 16.1583 3.59074 19.7491 -6.98481
3424 3 17.9537 3.59074 21.5445 -6.55354
3301 3 14.363 3.59074 21.5445 -6.62132
33 1 3.59074 5.38611 19.7491 -8.4892
3049 2 0 5.38611 19.7491 -6.97565
3550 3 1.79537 5.38611 21.5445 -6.49776
503 2 5.38611 5.38611 21.5445 -7.03574
1049 2 7.18149 5.38611 19.7491 -7.07199
1551 2 8.97686 5.38611 21.5445 -7.05741
2050 1 10.7722 5.38611 19.7491 -8.3248
2552 2 12.5676 5.38611 21.5445 -6.93368
3174 2 17.9537 5.38611 19.7491 -6.93773
3050 1 14.363 5.38611 19.7491 -8.60165
3552 3 16.1583 5.38611 21.5445 -6.51568
505 3 1.79537 8.97686 21.5445 -6.60233
34 2 0 8.97686 19.7491 -6.96155
287 2 0 7.18149 21.5445 -7.04717
802 2 1.79537 10.7722 19.7491 -7.06416
1050 2 3.59074 8.97686 19.7491 -7.1106
1305 1 0 10.7722 21.5445 -8.32641
1303 2 3.59074 7.18149 21.5445 -7.00622
2305 2 3.59074 10.7722 21.5445 -7.02557
3800 3 1.79537 7.18149 19.7491 -6.58882
801 2 5.38611 7.18149 19.7491 -7.04591
1553 1 5.38611 8.97686 21.5445 -8.19634
1802 2 5.38611 10.7722 19.7491 -7.10082
291 2 10.7722 10.7722 21.5445 -7.1871
1801 3 8.97686 7.18149 19.7491 -6.59472
2051 2 7.18149 8.97686 19.7491 -7.13516
2303 2 7.18149 7.18149 21.5445 -7.1013
2554 3 8.97686 8.97686 21.5445 -6.73422
2801 3 8.97686 10.7722 19.7491 -6.8429
3051 3 10.7722 8.97686 19.7491 -6.66928
3305 2 7.18149 10.7722 21.5445 -7.14248
3303 3 10.7722 7.18149 21.5445 -6.51416
2800 1 12.5676 7.18149 19.7491 -8.2771
3554 2 12.5676 8.97686 21.5445 -7.08022
3802 2 12.5676 10.7722 19.7491 -7.14325
507 2 16.1583 8.97686 21.5445 -7.00341
159 3 17.9537 8.97686 19.7491 -6.52888
35 2 14.363 8.97686 19.7491 -7.02957
412 1 17.9537 7.18149 21.5445 -8.47102
289 3 14.363 7.18149 21.5445 -6.61001
803 1 16.1583 10.7722 19.7491 -8.51424
1414 2 17.9537 10.7722 21.5445 -6.87028
1307 3 14.363 10.7722 21.5445 -6.57598
3801 3 16.1583 7.18149 19.7491 -6.623
1051 2 0 12.5676 19.7491 -6.99047
1555 1 1.79537 12.5676 21.5445 -8.25581
2052 3 3.59074 12.5676 19.7491 -6.3266
2556 1 5.38611 12.5676 21.5445 -8.40841
36 2 10.7722 12.5676 19.7491 -7.20875
3052 2 7.18149 12.5676 19.7491 -7.10598
3556 2 8.97686 12.5676 21.5445 -7.19076
509 1 12.5676 12.5676 21.5445 -8.58911
1161 3 17.9537 12.5676 19.7491 -6.29801
1052 3 14.363 12.5676 19.7491 -6.57276
1557 3 16.1583 12.5676 21.5445 -6.50902
345 1 0 17.9537 21.5445 -8.40544
1345 1 3.59074 17.9537 21.5445 -8.36231
1803 3 1.79537 14.363 19.7491 -6.40722
2053 3 0 16.1583 19.7491 -6.48728
2307 3 0 14.363 21.5445 -6.41377
2558 3 1.79537 16.1583 21.5445 -6.32127
3053 3 3.59074 16.1583 19.7491 -6.40722
3307 1 3.59074 14.363 21.5445 -8.33522
3860 2 1.79537 17.9537 19.7491 -6.93711
845 3 5.38611 17.9537 19.7491 -6.49285
2802 3 5.38611 14.363 19.7491 -6.37848
3558 3 5.38611 16.1583 21.5445 -6.47173
511 3 8.97686 16.1583 21.5445 -6.60668
37 3 7.18149 16.1583 19.7491 -6.55785
293 3 7.18149 14.363 21.5445 -6.66547
1053 1 10.7722 16.1583 19.7491 -8.48024
1309 3 10.7722 14.363 21.5445 -6.62389
1861 3 8.97686 17.9537 19.7491 -6.42326
2360 3 7.18149 17.9537 21.5445 -6.5969
3360 2 10.7722 17.9537 21.5445 -6.92016
3803 2 8.97686 14.363 19.7491 -7.0769
804 2 12.5676 14.363 19.7491 -7.0823
1559 2 12.5676 16.1583 21.5445 -6.95795
2860 3 12.5676 17.9537 19.7491 -6.41396
470 2 17.9537 17.9537 21.5445 -6.9553
347 1 14.363 17.9537 21.5445 -8.20964
1804 3 16.1583 14.363 19.7491 -6.38025
2162 1 17.9537 16.1583 19.7491 -8.0308
2054 3 14.363 16.1583 19.7491 -6.47805
2417 3 17.9537 14.363 21.5445 -6.33131
2309 2 14.363 14.363 21.5445 -6.91626
2560 1 16.1583 16.1583 21.5445 -8.27567
3861 1 16.1583 17.9537 19.7491 -8.17424
38 1 3.59074 1.79537 23.3398 -8.15561