ITEM: TIMESTEP
0
ITEM: NUMBER OF ATOMS
4000
ITEM: BOX BOUNDS pp pp pp
0.0000000000000000e+00 3.5734059999999999e+01
0.0000000000000000e+00 3.5734059999999999e+01
0.0000000000000000e+00 3.5734059999999999e+01
ITEM: ATOMS id type x y z c_peratom
267 3 0 0 0 -6.38804
516 2 1.7867 1.7867 0 -7.03969
767 2 1.7867 0 1.7867 -7.01118
1016 1 0 1.7867 1.7867 -8.42898
1267 2 0 0 3.57341 -7.0977
1517 3 1.7867 1.7867 3.57341 -6.53303
1268 2 3.57341 0 0 -6.95573
1518 1 5.36011 1.7867 0 -8.21791
1767 2 5.36011 0 1.7867 -6.90884
2017 1 3.57341 1.7867 1.7867 -8.323
2266 2 3.57341 0 3.57341 -7.08443
2267 1 7.14681 0 0 -8.38939
2517 3 5.36011 1.7867 3.57341 -6.39869
3017 3 7.14681 1.7867 1.7867 -6.33402
3267 3 7.14681 0 3.57341 -6.41627
1 3 10.7202 1.7867 1.7867 -6.47603
268 3 10.7202 0 3.57341 -6.42798
2518 3 8.93351 1.7867 0 -6.2266
2766 1 8.93351 0 1.7867 -8.62159
3266 2 10.7202 0 0 -6.89096
3517 3 8.93351 1.7867 3.57341 -6.47074
269 2 14.2936 0 0 -7.03697
517 3 12.5069 1.7867 3.57341 -6.45305
1017 1 14.2936 1.7867 1.7867 -8.48277
1269 2 14.2936 0 3.57341 -7.04792
3518 3 12.5069 1.7867 0 -6.5131
3767 2 12.5069 0 1.7867 -6.96576
376 1 17.867 0 0 -8.20836
518 3 16.0803 1.7867 0 -6.41047
768 2 16.0803 0 1.7867 -7.06186
1126 1 17.867 1.7867 1.7867 -8.31503
1377 2 17.867 0 3.57341 -7.04946
1519 1 16.0803 1.7867 3.57341 -8.13604
1270 1 0 3.57341 0 -8.34654
1520 3 1.7867 5.36011 0 -6.32702
1768 1 1.7867 3.57341 1.7867 -8.35788
2018 3 0 5.36011 1.7867 -6.49711
2268 3 0 3.57341 3.57341 -6.50106
2271 1 0 7.14681 0 -8.3499
2519 2 1.7867 5.36011 3.57341 -6.97152
2768 2 1.7867 7.14681 1.7867 -7.03271
3271 2 0 7.14681 3.57341 -7.03373
2 3 7.14681 5.36011 1.7867 -6.55534
271 2 7.14681 3.57341 3.57341 -6.88339
274 1 3.57341 7.14681 3.57341 -8.27575
275 2 7.14681 7.14681 0 -7.01448
1276 3 7.14681 7.14681 3.57341 -6.36197
2269 1 3.57341 3.57341 0 -8.33255
2520 3 5.36011 5.36011 0 -6.51384
2767 1 5.36011 3.57341 1.7867 -8.53495
3018 2 3.57341 5.36011 1.7867 -6.85665
3272 3 3.57341 7.14681 0 -6.5724
3269 2 7.14681 3.57341 0 -6.82122
3268 3 3.57341 3.57341 3.57341 -6.3108
3519 3 5.36011 5.36011 3.57341 -6.25098
3770 3 5.36011 7.14681 1.7867 -6.48091
270 1 10.7202 3.57341 0 -8.67851
519 2 8.93351 5.36011 3.57341 -6.96382
771 2 8.93351 7.14681 1.7867 -6.96518
1018 3 10.7202 5.36011 1.7867 -6.33541
1274 1 10.7202 7.14681 0 -8.49432
1271 2 10.7202 3.57341 3.57341 -6.89218
2273 1 10.7202 7.14681 3.57341 -8.40309
3520 3 8.93351 5.36011 0 -6.44409
3768 1 8.93351 3.57341 1.7867 -8.66928
520 2 12.5069 5.36011 0 -6.96912
769 3 12.5069 3.57341 1.7867 -6.41687
1272 2 14.2936 3.57341 0 -6.97295
1521 1 12.5069 5.36011 3.57341 -8.36828
1771 1 12.5069 7.14681 1.7867 -8.23107
2019 3 14.2936 5.36011 1.7867 -6.53967
2275 2 14.2936 7.14681 0 -7.07732
2270 1 14.2936 3.57341 3.57341 -8.40953
3275 2 14.2936 7.14681 3.57341 -7.02806
1379 1 17.867 3.57341 0 -8.50294
1522 3 16.0803 5.36011 0 -6.71179
1769 3 16.0803 3.57341 1.7867 -6.4189
2002 2 17.867 5.36011 1.7867 -7.04564
2396 2 17.867 7.14681 0 -7.07181
2394 2 17.867 3.57341 3.57341 -6.99534
2521 2 16.0803 5.36011 3.57341 -7.04261
2770 2 16.0803 7.14681 1.7867 -7.12573
3397 1 17.867 7.14681 3.57341 -8.44561
272 2 0 10.7202 3.57341 -7.06057
2522 1 1.7867 8.93351 0 -8.24542
3019 1 0 8.93351 1.7867 -8.07558
3270 3 0 10.7202 0 -6.24179
3521 1 1.7867 8.93351 3.57341 -8.19863
3769 2 1.7867 10.7202 1.7867 -6.98018
3 1 3.57341 8.93351 1.7867 -8.42456
273 2 3.57341 10.7202 0 -7.00011
521 3 5.36011 8.93351 3.57341 -6.26032
770 3 5.36011 10.7202 1.7867 -6.51407
1019 1 7.14681 8.93351 1.7867 -8.60699
1275 2 7.14681 10.7202 0 -7.04016
1273 3 3.57341 10.7202 3.57341 -6.38539
2274 2 7.14681 10.7202 3.57341 -6.92366
3522 2 5.36011 8.93351 0 -6.96092
522 2 8.93351 8.93351 0 -7.04676
1523 3 8.93351 8.93351 3.57341 -6.36109
1770 1 8.93351 10.7202 1.7867 -8.24541
2020 2 10.7202 8.93351 1.7867 -6.97708
2272 3 10.7202 10.7202 0 -6.51109
3273 1 10.7202 10.7202 3.57341 -8.30488
276 1 14.2936 10.7202 3.57341 -8.1947
1524 2 12.5069 8.93351 0 -6.98087
2523 1 12.5069 8.93351 3.57341 -8.06683
2769 3 12.5069 10.7202 1.7867 -6.30519
3020 2 14.2936 8.93351 1.7867 -7.04345
3274 1 14.2936 10.7202 0 -8.4377
383 1 17.867 10.7202 3.57341 -8.04344
2524 3 16.0803 8.93351 0 -6.55086
3144 2 17.867 8.93351 1.7867 -7.03327
3396 3 17.867 10.7202 0 -6.24256
3523 1 16.0803 8.93351 3.57341 -7.99052
3771 1 16.0803 10.7202 1.7867 -8.11018
4 1 0 12.5069 1.7867 -8.48841
277 2 0 14.2936 0 -6.97748
523 2 1.7867 12.5069 3.57341 -6.9671
772 3 1.7867 14.2936 1.7867 -6.49909
1277 2 0 14.2936 3.57341 -6.97218
3524 3 1.7867 12.5069 0 -6.6052
524 1 5.36011 12.5069 0 -8.59633
1020 3 3.57341 12.5069 1.7867 -6.58849
1278 2 3.57341 14.2936 0 -7.0349
1525 2 5.36011 12.5069 3.57341 -6.96906
1772 3 5.36011 14.2936 1.7867 -6.41322
2021 2 7.14681 12.5069 1.7867 -6.93291
2277 1 7.14681 14.2936 0 -8.34618
2276 1 3.57341 14.2936 3.57341 -8.4718
3277 3 7.14681 14.2936 3.57341 -6.31495
278 2 10.7202 14.2936 3.57341 -6.93814
1526 1 8.93351 12.5069 0 -8.27687
2525 3 8.93351 12.5069 3.57341 -6.33156
2771 3 8.93351 14.2936 1.7867 -6.19366
3021 1 10.7202 12.5069 1.7867 -8.27239
3276 1 10.7202 14.2936 0 -8.23232
5 3 14.2936 12.5069 1.7867 -6.32951
279 2 14.2936 14.2936 0 -7.01134
1279 2 14.2936 14.2936 3.57341 -7.01382
2526 3 12.5069 12.5069 0 -6.47158
3525 1 12.5069 12.5069 3.57341 -8.32299
3772 2 12.5069 14.2936 1.7867 -7.03192
129 1 17.867 12.5069 1.7867 -8.14476
386 1 17.867 14.2936 0 -8.24059
525 3 16.0803 12.5069 3.57341 -6.34544
773 3 16.0803 14.2936 1.7867 -6.51168
1387 2 17.867 14.2936 3.57341 -6.94517
3526 1 16.0803 12.5069 0 -8.16364
526 2 1.7867 16.0803 0 -7.0156
1021 1 0 16.0803 1.7867 -8.34516
1527 1 1.7867 16.0803 3.57341 -8.24779
2328 3 0 17.867 0 -6.3207
2828 2 1.7867 17.867 1.7867 -6.95447
3329 3 0 17.867 3.57341 -6.16203
317 2 7.14681 17.867 0 -6.92765
316 1 3.57341 17.867 3.57341 -8.14272
1333 2 7.14681 17.867 3.57341 -7.02578
1528 3 5.36011 16.0803 0 -6.46587
2022 3 3.57341 16.0803 1.7867 -6.45747
2527 3 5.36011 16.0803 3.57341 -6.27748
3022 1 7.14681 16.0803 1.7867 -8.26029
3330 3 3.57341 17.867 0 -6.53835
3830 1 5.36011 17.867 1.7867 -8.39741
6 1 10.7202 16.0803 1.7867 -8.08692
815 1 8.93351 17.867 1.7867 -8.22405
1331 3 10.7202 17.867 0 -6.3202
2330 3 10.7202 17.867 3.57341 -6.2238
2528 1 8.93351 16.0803 0 -8.27696
3527 1 8.93351 16.0803 3.57341 -8.12476
527 1 12.5069 16.0803 3.57341 -8.25777
1022 2 14.2936 16.0803 1.7867 -7.0622
1831 1 12.5069 17.867 1.7867 -8.21101
2332 1 14.2936 17.867 0 -8.16959
3333 3 14.2936 17.867 3.57341 -6.49189
3528 1 12.5069 16.0803 0 -8.25977
528 2 16.0803 16.0803 0 -6.99058
1131 3 17.867 16.0803 1.7867 -6.50749
1529 3 16.0803 16.0803 3.57341 -6.7565
2438 2 17.867 17.867 0 -6.97023
2830 2 16.0803 17.867 1.7867 -7.0588
3455 2 17.867 17.867 3.57341 -7.0765
1773 2 1.7867 0 5.36011 -7.02041
2023 2 0 1.7867 5.36011 -7.00458
2278 3 0 0 7.14681 -6.40011
2529 1 1.7867 1.7867 7.14681 -8.40849
2781 1 1.7867 0 8.93351 -8.25671
3032 3 0 1.7867 8.93351 -6.27607
7 1 7.14681 1.7867 5.36011 -8.43327
17 3 7.14681 1.7867 8.93351 -6.31478
2773 3 3.57341 0 7.14681 -6.48985
2772 2 5.36011 0 5.36011 -6.98929
3024 3 5.36011 1.7867 7.14681 -6.45114
3023 2 3.57341 1.7867 5.36011 -6.95933
3282 3 5.36011 0 8.93351 -6.32316
3278 1 7.14681 0 7.14681 -8.43423
3533 2 3.57341 1.7867 8.93351 -6.91241
533 1 10.7202 1.7867 8.93351 -8.1308
1023 2 10.7202 1.7867 5.36011 -6.98859
3529 2 8.93351 1.7867 7.14681 -7.0068
3783 2 8.93351 0 8.93351 -6.99243
3774 2 10.7202 0 7.14681 -7.02163
3773 2 8.93351 0 5.36011 -7.00113
8 1 12.5069 1.7867 7.14681 -8.29908
252 2 12.5069 0 8.93351 -6.92916
280 3 14.2936 0 7.14681 -6.36943
774 1 12.5069 0 5.36011 -8.33776
1033 3 14.2936 1.7867 8.93351 -6.27891
2024 1 14.2936 1.7867 5.36011 -8.32875
529 2 16.0803 1.7867 7.14681 -6.94321
784 1 16.0803 0 8.93351 -8.61467
1774 2 16.0803 0 5.36011 -7.02797
2007 1 17.867 1.7867 5.36011 -8.29451
2403 2 17.867 0 7.14681 -6.98108
3157 3 17.867 1.7867 8.93351 -6.22365
775 1 0 3.57341 7.14681 -8.30371
1024 2 1.7867 5.36011 7.14681 -6.90855
1284 1 1.7867 3.57341 8.93351 -8.48875
1534 2 0 5.36011 8.93351 -7.04506
2774 3 1.7867 3.57341 5.36011 -6.52758
3025 3 0 5.36011 5.36011 -6.60098
3279 2 0 7.14681 7.14681 -7.06304
3786 1 1.7867 7.14681 8.93351 -8.47358
3776 3 1.7867 7.14681 5.36011 -6.46191
9 1 3.57341 5.36011 5.36011 -8.39201
255 3 5.36011 7.14681 8.93351 -6.34623
281 1 7.14681 7.14681 7.14681 -8.11919
778 1 5.36011 7.14681 5.36011 -8.16013
1025 1 7.14681 5.36011 5.36011 -8.30995
1280 3 3.57341 3.57341 7.14681 -6.31989
1530 1 5.36011 5.36011 7.14681 -8.19056
1784 2 5.36011 3.57341 8.93351 -6.88434
1775 1 7.14681 3.57341 7.14681 -8.29409
2034 3 3.57341 5.36011 8.93351 -6.35174
2534 1 7.14681 5.36011 8.93351 -8.11402
3777 3 3.57341 7.14681 7.14681 -6.28526
3775 1 5.36011 3.57341 5.36011 -8.35073
787 1 8.93351 7.14681 8.93351 -8.26452
779 1 10.7202 7.14681 7.14681 -8.47472
776 3 8.93351 3.57341 5.36011 -6.40486
1779 2 8.93351 7.14681 5.36011 -6.85449
2026 3 8.93351 5.36011 7.14681 -6.18289
2025 3 10.7202 5.36011 5.36011 -6.30291
2283 2 8.93351 3.57341 8.93351 -6.94921
2279 1 10.7202 3.57341 7.14681 -8.45197
3034 3 10.7202 5.36011 8.93351 -6.30862
1288 3 12.5069 7.14681 8.93351 -6.43232
1281 3 14.2936 7.14681 7.14681 -6.48061
1776 3 12.5069 3.57341 5.36011 -6.28828
2530 1 12.5069 5.36011 7.14681 -8.42781
2784 2 12.5069 3.57341 8.93351 -6.9472
2779 1 12.5069 7.14681 5.36011 -8.10746
2776 3 14.2936 3.57341 7.14681 -6.40689
3026 2 14.2936 5.36011 5.36011 -6.98947
3536 2 14.2936 5.36011 8.93351 -6.98515
884 1 17.867 3.57341 7.14681 -8.27059
1643 3 17.867 5.36011 8.93351 -6.20263
1788 2 16.0803 7.14681 8.93351 -7.03034
2775 3 16.0803 3.57341 5.36011 -6.41802
3150 2 17.867 5.36011 5.36011 -7.00063
3027 3 16.0803 5.36011 7.14681 -6.56611
3404 2 17.867 7.14681 7.14681 -6.97452
3285 1 16.0803 3.57341 8.93351 -8.46853
3779 2 16.0803 7.14681 5.36011 -7.09369
10 1 0 8.93351 5.36011 -8.27736
20 2 0 8.93351 8.93351 -7.03798
777 1 1.7867 10.7202 5.36011 -8.52522
1777 2 0 10.7202 7.14681 -6.97924
2285 2 1.7867 10.7202 8.93351 -6.98653
3530 2 1.7867 8.93351 7.14681 -6.96829
11 1 5.36011 8.93351 7.14681 -8.504
536 3 3.57341 8.93351 8.93351 -6.51578
1036 3 7.14681 8.93351 8.93351 -6.21112
1026 3 3.57341 8.93351 5.36011 -6.24892
1778 1 5.36011 10.7202 5.36011 -8.36364
2027 1 7.14681 8.93351 5.36011 -8.39636
2280 3 3.57341 10.7202 7.14681 -6.32921
2786 3 5.36011 10.7202 8.93351 -6.26296
2778 3 7.14681 10.7202 7.14681 -6.26482
530 3 8.93351 8.93351 7.14681 -6.25982
1537 3 10.7202 8.93351 8.93351 -6.25949
2777 2 8.93351 10.7202 5.36011 -6.91963
3028 3 10.7202 8.93351 5.36011 -6.27876
3287 3 8.93351 10.7202 8.93351 -6.24557
3280 1 10.7202 10.7202 7.14681 -8.6093
12 1 14.2936 8.93351 5.36011 -8.07967
1027 2 12.5069 8.93351 7.14681 -6.94469
2037 2 14.2936 8.93351 8.93351 -6.98807
3789 2 12.5069 10.7202 8.93351 -6.95706
3780 2 14.2936 10.7202 7.14681 -6.97213
3778 2 12.5069 10.7202 5.36011 -6.98237
145 2 17.867 8.93351 8.93351 -7.03453
135 1 17.867 8.93351 5.36011 -8.09153
258 3 16.0803 10.7202 8.93351 -6.48425
780 1 16.0803 10.7202 5.36011 -8.1474
1531 1 16.0803 8.93351 7.14681 -8.29028
1886 2 17.867 10.7202 7.14681 -7.06062
282 1 0 14.2936 7.14681 -8.52945
790 1 1.7867 14.2936 8.93351 -8.39181
1028 3 0 12.5069 5.36011 -6.53484
1780 3 1.7867 14.2936 5.36011 -6.36178
2028 3 1.7867 12.5069 7.14681 -6.38767
2537 3 0 12.5069 8.93351 -6.49651
781 3 3.57341 14.2936 7.14681 -6.2721
1290 3 5.36011 14.2936 8.93351 -6.39314
1282 2 7.14681 14.2936 7.14681 -7.0068
2029 2 3.57341 12.5069 5.36011 -6.87387
2531 1 5.36011 12.5069 7.14681 -8.26356
2780 1 5.36011 14.2936 5.36011 -8.28487
3038 1 3.57341 12.5069 8.93351 -8.34793
3029 1 7.14681 12.5069 5.36011 -8.37692
3539 1 7.14681 12.5069 8.93351 -8.31326
13 2 10.7202 12.5069 5.36011 -6.91177
23 1 10.7202 12.5069 8.93351 -8.32603
1790 1 8.93351 14.2936 8.93351 -8.3552
1781 1 10.7202 14.2936 7.14681 -8.32747
3030 2 8.93351 12.5069 7.14681 -7.01449
3781 1 8.93351 14.2936 5.36011 -8.24148
539 3 14.2936 12.5069 8.93351 -6.39749
782 3 12.5069 14.2936 5.36011 -6.39154
1029 3 14.2936 12.5069 5.36011 -6.38762
2290 3 12.5069 14.2936 8.93351 -6.47782
2281 1 14.2936 14.2936 7.14681 -8.58982
3531 3 12.5069 12.5069 7.14681 -6.39932
14 3 16.0803 12.5069 7.14681 -6.47882
391 2 17.867 14.2936 7.14681 -7.039
1138 1 17.867 12.5069 5.36011 -8.44101
1782 2 16.0803 14.2936 5.36011 -6.98504
2662 2 17.867 12.5069 8.93351 -7.06601
2790 1 16.0803 14.2936 8.93351 -8.33512
326 2 0 17.867 7.14681 -6.97601
531 3 1.7867 16.0803 7.14681 -6.30758
829 2 1.7867 17.867 8.93351 -7.02334
1039 2 0 16.0803 8.93351 -6.98324
2030 1 0 16.0803 5.36011 -8.31984
3835 3 1.7867 17.867 5.36011 -6.10098
15 2 7.14681 16.0803 5.36011 -6.95748
822 1 3.57341 17.867 7.14681 -8.29298
821 2 5.36011 17.867 5.36011 -7.02947
1030 3 5.36011 16.0803 7.14681 -6.4886
1252 2 5.36011 17.867 8.93351 -7.07138
1342 2 7.14681 17.867 7.14681 -7.07949
1540 3 3.57341 16.0803 8.93351 -6.40465
2040 2 7.14681 16.0803 8.93351 -7.0771
3031 1 3.57341 16.0803 5.36011 -8.29275
1031 1 10.7202 16.0803 5.36011 -8.21583
1532 3 8.93351 16.0803 7.14681 -6.53078
1846 3 8.93351 17.867 8.93351 -6.66972
1838 2 10.7202 17.867 7.14681 -7.05952
1837 2 8.93351 17.867 5.36011 -6.94852
2540 2 10.7202 16.0803 8.93351 -6.96892
2032 2 14.2936 16.0803 5.36011 -7.02557
2031 2 12.5069 16.0803 7.14681 -7.03376
2346 2 12.5069 17.867 8.93351 -7.0678
2341 2 14.2936 17.867 7.14681 -7.01938
2837 1 12.5069 17.867 5.36011 -8.37274
3041 2 14.2936 16.0803 8.93351 -7.04573
451 1 17.867 17.867 7.14681 -8.41265
1149 2 17.867 16.0803 8.93351 -7.07555
2014 3 17.867 16.0803 5.36011 -6.59275
2532 1 16.0803 16.0803 7.14681 -8.16485
2846 1 16.0803 17.867 8.93351 -8.30103
3838 2 16.0803 17.867 5.36011 -7.04312
16 2 0 1.7867 12.5069 -6.98727
3281 1 0 0 10.7202 -8.26598
3532 3 1.7867 1.7867 10.7202 -6.33368
3782 1 1.7867 0 12.5069 -7.99786
251 1 3.57341 0 10.7202 -8.10139
532 1 5.36011 1.7867 10.7202 -8.33614
783 1 5.36011 0 12.5069 -8.15051
1032 2 3.57341 1.7867 12.5069 -6.98041
1283 1 7.14681 0 10.7202 -8.45739
2033 3 7.14681 1.7867 12.5069 -6.23158
1533 2 8.93351 1.7867 10.7202 -6.93064
1783 2 8.93351 0 12.5069 -6.79406
2282 1 10.7202 0 10.7202 -8.31262
3033 3 10.7202 1.7867 12.5069 -6.23487
18 1 14.2936 1.7867 12.5069 -7.98626
2533 1 12.5069 1.7867 10.7202 -8.07361
2782 1 12.5069 0 12.5069 -8.24227
3283 1 14.2936 0 10.7202 -8.28239
141 3 17.867 1.7867 12.5069 -6.22309
3406 1 17.867 0 10.7202 -8.63677
3534 3 16.0803 1.7867 10.7202 -6.08961
3784 2 16.0803 0 12.5069 -6.9005
253 3 0 3.57341 10.7202 -6.38912
534 1 1.7867 5.36011 10.7202 -8.43045
785 2 1.7867 3.57341 12.5069 -6.89464
1034 3 0 5.36011 12.5069 -6.33069
1286 1 0 7.14681 10.7202 -8.14979
1786 2 1.7867 7.14681 12.5069 -6.89019
1285 3 3.57341 3.57341 10.7202 -6.4356
1535 3 5.36011 5.36011 10.7202 -6.4236
1785 3 5.36011 3.57341 12.5069 -6.32395
2035 3 3.57341 5.36011 12.5069 -6.32795
2287 2 3.57341 7.14681 10.7202 -6.87325
2284 1 7.14681 3.57341 10.7202 -8.3399
2787 1 5.36011 7.14681 12.5069 -8.60378
3035 3 7.14681 5.36011 12.5069 -6.23597
3288 3 7.14681 7.14681 10.7202 -6.30061
256 3 10.7202 7.14681 10.7202 -6.37103
19 2 10.7202 5.36011 12.5069 -6.98013
2535 1 8.93351 5.36011 10.7202 -8.35872
2783 1 8.93351 3.57341 12.5069 -8.2506
3284 2 10.7202 3.57341 10.7202 -6.92078
3788 3 8.93351 7.14681 12.5069 -6.39606
254 1 14.2936 3.57341 10.7202 -8.30098
789 3 12.5069 7.14681 12.5069 -6.46273
1035 3 14.2936 5.36011 12.5069 -6.33762
1289 3 14.2936 7.14681 10.7202 -6.6361
3535 3 12.5069 5.36011 10.7202 -6.59036
3785 2 12.5069 3.57341 12.5069 -6.87022
394 1 17.867 3.57341 10.7202 -8.25431
535 2 16.0803 5.36011 10.7202 -6.94567
786 1 16.0803 3.57341 12.5069 -8.33305
1144 3 17.867 5.36011 12.5069 -6.20944
1395 1 17.867 7.14681 10.7202 -8.32785
1789 2 16.0803 7.14681 12.5069 -6.91197
1536 2 1.7867 8.93351 10.7202 -7.00702
2036 1 0 8.93351 12.5069 -8.39737
2286 3 0 10.7202 10.7202 -6.60802
2785 3 1.7867 10.7202 12.5069 -6.57304
257 1 7.14681 10.7202 10.7202 -8.45241
21 2 7.14681 8.93351 12.5069 -6.91189
2536 3 5.36011 8.93351 10.7202 -6.49787
3036 3 3.57341 8.93351 12.5069 -6.49092
3286 3 3.57341 10.7202 10.7202 -6.55445
3787 2 5.36011 10.7202 12.5069 -6.92676
788 3 8.93351 10.7202 12.5069 -6.39789
1037 3 10.7202 8.93351 12.5069 -6.42132
1287 1 10.7202 10.7202 10.7202 -8.43528
3537 1 8.93351 8.93351 10.7202 -8.49468
537 1 12.5069 8.93351 10.7202 -8.58012
1787 2 12.5069 10.7202 12.5069 -6.86683
2038 3 14.2936 8.93351 12.5069 -6.36107
2288 1 14.2936 10.7202 10.7202 -8.54171
1538 3 16.0803 8.93351 10.7202 -6.52047
2145 1 17.867 8.93351 12.5069 -8.2048
2256 2 17.867 10.7202 10.7202 -6.94773
2788 2 16.0803 10.7202 12.5069 -6.96764
2538 2 1.7867 12.5069 10.7202 -6.96696
3037 2 0 12.5069 12.5069 -6.9892
3289 3 0 14.2936 10.7202 -6.42954
3790 2 1.7867 14.2936 12.5069 -7.03097
259 1 3.57341 14.2936 10.7202 -8.21939
22 3 3.57341 12.5069 12.5069 -6.57147
791 3 5.36011 14.2936 12.5069 -6.51279
1038 3 7.14681 12.5069 12.5069 -6.50664
1291 3 7.14681 14.2936 10.7202 -6.53343
3538 1 5.36011 12.5069 10.7202 -8.46741
538 2 8.93351 12.5069 10.7202 -6.91202
1791 2 8.93351 14.2936 12.5069 -6.94143
2039 3 10.7202 12.5069 12.5069 -6.4932
2289 3 10.7202 14.2936 10.7202 -6.38799
1539 3 12.5069 12.5069 10.7202 -6.3923
2789 1 12.5069 14.2936 12.5069 -8.68093
3039 3 14.2936 12.5069 12.5069 -6.39997
3290 3 14.2936 14.2936 10.7202 -6.42804
2539 1 16.0803 12.5069 10.7202 -8.32615
3163 1 17.867 12.5069 12.5069 -8.18793
3414 2 17.867 14.2936 10.7202 -7.05259
3791 3 16.0803 14.2936 12.5069 -6.45964
24 1 0 16.0803 12.5069 -8.18496
1251 1 0 17.867 10.7202 -8.0595
1845 2 1.7867 17.867 12.5069 -7.03236
3540 1 1.7867 16.0803 10.7202 -8.1382
540 2 5.36011 16.0803 10.7202 -6.99209
1040 1 3.57341 16.0803 12.5069 -8.24816
2041 2 7.14681 16.0803 12.5069 -7.01599
2345 2 3.57341 17.867 10.7202 -6.92227
2845 3 5.36011 17.867 12.5069 -6.34822
3346 2 7.14681 17.867 10.7202 -6.98398
331 3 10.7202 17.867 10.7202 -6.47384
1541 3 8.93351 16.0803 10.7202 -6.51315
3040 1 10.7202 16.0803 12.5069 -8.40188
3847 1 8.93351 17.867 12.5069 -8.28609
25 3 14.2936 16.0803 12.5069 -6.51571
832 1 12.5069 17.867 12.5069 -8.46329
1255 3 14.2936 17.867 10.7202 -6.49417
2541 3 12.5069 16.0803 10.7202 -6.47953
149 1 17.867 16.0803 12.5069 -8.40269
1454 2 17.867 17.867 10.7202 -7.00166
1848 2 16.0803 17.867 12.5069 -7.02308
3541 2 16.0803 16.0803 10.7202 -7.01485
260 1 0 0 14.2936 -8.20679
541 1 1.7867 1.7867 14.2936 -8.24776
792 3 1.7867 0 16.0803 -6.41012
1041 3 0 1.7867 16.0803 -6.42699
1298 2 0 0 17.867 -6.97897
1548 3 1.7867 1.7867 17.867 -6.4412
1292 2 3.57341 0 14.2936 -6.98634
1542 2 5.36011 1.7867 14.2936 -6.93577
1792 2 5.36011 0 16.0803 -6.99034
2042 3 3.57341 1.7867 16.0803 -6.38598
2298 1 3.57341 0 17.867 -8.32006
2291 1 7.14681 0 14.2936 -8.31528
2549 1 5.36011 1.7867 17.867 -8.31042
3042 2 7.14681 1.7867 16.0803 -7.07062
3298 2 7.14681 0 17.867 -6.98824
283 2 10.7202 0 17.867 -7.04883
26 2 10.7202 1.7867 16.0803 -6.97422
2542 1 8.93351 1.7867 14.2936 -8.29051
2791 1 8.93351 0 16.0803 -8.38315
3291 3 10.7202 0 14.2936 -6.31054
3549 2 8.93351 1.7867 17.867 -7.08342
261 1 14.2936 0 14.2936 -8.29439
502 1 12.5069 1.7867 17.867 -8.37652
1042 3 14.2936 1.7867 16.0803 -6.28332
1300 2 14.2936 0 17.867 -6.95253
3542 3 12.5069 1.7867 14.2936 -6.22446
3792 3 12.5069 0 16.0803 -6.34975
401 1 17.867 0 14.2936 -8.57425
542 2 16.0803 1.7867 14.2936 -6.99211
793 2 16.0803 0 16.0803 -7.04884
1151 2 17.867 1.7867 16.0803 -7.05484
1407 3 17.867 0 17.867 -6.64053
1550 2 16.0803 1.7867 17.867 -7.05769
1293 1 0 3.57341 14.2936 -8.43065
1543 3 1.7867 5.36011 14.2936 -6.4123
1793 2 1.7867 3.57341 16.0803 -6.95416
2043 3 0 5.36011 16.0803 -6.46831
2300 2 0 3.57341 17.867 -6.98511
2293 3 0 7.14681 14.2936 -6.41491
2551 3 1.7867 5.36011 17.867 -6.48025
2793 2 1.7867 7.14681 16.0803 -6.9436
3302 2 0 7.14681 17.867 -6.98352
264 2 7.14681 7.14681 14.2936 -6.89362
289 1 3.57341 7.14681 17.867 -8.20846
286 3 7.14681 3.57341 17.867 -6.57142
27 3 7.14681 5.36011 16.0803 -6.40544
1306 3 7.14681 7.14681 17.867 -6.42295
2292 1 3.57341 3.57341 14.2936 -8.45953
2543 1 5.36011 5.36011 14.2936 -8.29895
2792 3 5.36011 3.57341 16.0803 -6.43029
3043 1 3.57341 5.36011 16.0803 -8.24357
3300 2 3.57341 3.57341 17.867 -6.88653
3294 1 3.57341 7.14681 14.2936 -8.30408
3292 2 7.14681 3.57341 14.2936 -6.9018
3551 3 5.36011 5.36011 17.867 -6.35313
3795 1 5.36011 7.14681 16.0803 -8.30682
262 1 10.7202 3.57341 14.2936 -8.27548
504 2 8.93351 5.36011 17.867 -6.96871
796 1 8.93351 7.14681 16.0803 -8.69017
1043 2 10.7202 5.36011 16.0803 -6.89637
1301 3 10.7202 3.57341 17.867 -6.44116
1295 3 10.7202 7.14681 14.2936 -6.44695
2304 3 10.7202 7.14681 17.867 -6.36893
3543 1 8.93351 5.36011 14.2936 -8.40866
3793 2 8.93351 3.57341 16.0803 -7.01316
543 3 12.5069 5.36011 14.2936 -6.27835
794 1 12.5069 3.57341 16.0803 -8.15856
1294 1 14.2936 3.57341 14.2936 -8.28977
1552 1 12.5069 5.36011 17.867 -8.12723
1796 1 12.5069 7.14681 16.0803 -8.46331
2044 1 14.2936 5.36011 16.0803 -8.18111
2302 1 14.2936 3.57341 17.867 -8.14863
2295 1 14.2936 7.14681 14.2936 -8.42079
3306 3 14.2936 7.14681 17.867 -6.15008
1402 1 17.867 3.57341 14.2936 -8.45506
1544 3 16.0803 5.36011 14.2936 -6.12678
1794 1 16.0803 3.57341 16.0803 -8.33254
2152 3 17.867 5.36011 16.0803 -6.33897
2262 1 17.867 7.14681 14.2936 -8.63528
2410 2 17.867 3.57341 17.867 -7.02502
2553 3 16.0803 5.36011 17.867 -6.26508
2795 3 16.0803 7.14681 16.0803 -6.20704
3427 1 17.867 7.14681 17.867 -8.67817
287 3 0 10.7202 17.867 -6.49934
2544 1 1.7867 8.93351 14.2936 -8.43347
3044 2 0 8.93351 16.0803 -6.8713
3293 3 0 10.7202 14.2936 -6.4841
3553 1 1.7867 8.93351 17.867 -8.17321
3794 1 1.7867 10.7202 16.0803 -8.30613
263 3 3.57341 10.7202 14.2936 -6.49862
28 3 3.57341 8.93351 16.0803 -6.17685
506 1 5.36011 8.93351 17.867 -8.22562
795 3 5.36011 10.7202 16.0803 -6.4302
1044 2 7.14681 8.93351 16.0803 -6.95203
1304 1 3.57341 10.7202 17.867 -8.01443
1296 1 7.14681 10.7202 14.2936 -8.76402
2305 2 7.14681 10.7202 17.867 -7.05241
3544 3 5.36011 8.93351 14.2936 -6.3967
544 3 8.93351 8.93351 14.2936 -6.54351
1554 3 8.93351 8.93351 17.867 -6.65397
1795 3 8.93351 10.7202 16.0803 -6.65851
2045 3 10.7202 8.93351 16.0803 -6.49322
2294 3 10.7202 10.7202 14.2936 -6.62821
3303 3 10.7202 10.7202 17.867 -6.67269
291 1 14.2936 10.7202 17.867 -8.36233
1545 3 12.5069 8.93351 14.2936 -6.46299
2555 3 12.5069 8.93351 17.867 -6.33856
2794 2 12.5069 10.7202 16.0803 -6.89927
3045 1 14.2936 8.93351 16.0803 -8.40054
3295 3 14.2936 10.7202 14.2936 -6.4712
413 2 17.867 10.7202 17.867 -6.95291
2545 1 16.0803 8.93351 14.2936 -8.25719
3169 3 17.867 8.93351 16.0803 -6.34911
3419 1 17.867 10.7202 14.2936 -8.38235
3555 3 16.0803 8.93351 17.867 -6.28428
3796 3 16.0803 10.7202 16.0803 -6.25324
265 3 0 14.2936 14.2936 -6.55705
29 3 0 12.5069 16.0803 -6.67596
508 2 1.7867 12.5069 17.867 -7.06301
797 2 1.7867 14.2936 16.0803 -7.06399
1308 2 0 14.2936 17.867 -7.12163
3545 2 1.7867 12.5069 14.2936 -6.99876
545 2 5.36011 12.5069 14.2936 -6.96463
1045 1 3.57341 12.5069 16.0803 -8.22038
1297 2 3.57341 14.2936 14.2936 -6.97774
1556 2 5.36011 12.5069 17.867 -7.06163
1797 1 5.36011 14.2936 16.0803 -8.41959
2046 2 7.14681 12.5069 16.0803 -6.9959
2308 1 3.57341 14.2936 17.867 -8.19876
2296 3 7.14681 14.2936 14.2936 -6.59502
3308 3 7.14681 14.2936 17.867 -6.61996
293 1 10.7202 14.2936 17.867 -8.2734
1546 3 8.93351 12.5069 14.2936 -6.54719
2557 2 8.93351 12.5069 17.867 -6.99733
2796 1 8.93351 14.2936 16.0803 -8.59244
3046 3 10.7202 12.5069 16.0803 -6.52015
3296 3 10.7202 14.2936 14.2936 -6.41186
266 2 14.2936 14.2936 14.2936 -6.95469
30 2 14.2936 12.5069 16.0803 -6.9821
1310 3 14.2936 14.2936 17.867 -6.41831
2546 3 12.5069 12.5069 14.2936 -6.51707
3557 2 12.5069 12.5069 17.867 -6.9046
3797 1 12.5069 14.2936 16.0803 -8.53315
406 1 17.867 14.2936 14.2936 -8.29694
154 2 17.867 12.5069 16.0803 -6.96443
510 1 16.0803 12.5069 17.867 -8.30617
798 2 16.0803 14.2936 16.0803 -7.02619
1417 1 17.867 14.2936 17.867 -8.13582
3546 1 16.0803 12.5069 14.2936 -8.42002
546 1 1.7867 16.0803 14.2936 -8.27305
1046 2 0 16.0803 16.0803 -7.0221
1558 1 1.7867 16.0803 17.867 -8.39583
2353 3 0 17.867 14.2936 -6.20863
2853 2 1.7867 17.867 16.0803 -6.95945
3359 2 0 17.867 17.867 -7.03378
347 3 3.57341 17.867 17.867 -6.33035
340 1 7.14681 17.867 14.2936 -8.42336
1348 1 7.14681 17.867 17.867 -8.5983
1547 3 5.36011 16.0803 14.2936 -6.3435
2047 1 3.57341 16.0803 16.0803 -8.07708
2559 3 5.36011 16.0803 17.867 -6.35186
3047 2 7.14681 16.0803 16.0803 -6.94933
3354 1 3.57341 17.867 14.2936 -8.11359
3855 1 5.36011 17.867 16.0803 -8.25103
31 2 10.7202 16.0803 16.0803 -7.06537
840 3 8.93351 17.867 16.0803 -6.54339
1261 2 10.7202 17.867 14.2936 -7.06975
2361 1 10.7202 17.867 17.867 -8.45402
2547 2 8.93351 16.0803 14.2936 -7.00356
3559 2 8.93351 16.0803 17.867 -7.04947
512 2 12.5069 16.0803 17.867 -6.99965
1047 3 14.2936 16.0803 16.0803 -6.50433
1856 2 12.5069 17.867 16.0803 -6.97022
2355 2 14.2936 17.867 14.2936 -7.06148
3363 3 14.2936 17.867 17.867 -6.50744
3547 1 12.5069 16.0803 14.2936 -8.31791
547 2 16.0803 16.0803 14.2936 -7.05755
1156 2 17.867 16.0803 16.0803 -7.00709
1560 2 16.0803 16.0803 17.867 -6.98452
2463 3 17.867 17.867 14.2936 -6.38324
2855 1 16.0803 17.867 16.0803 -8.56643
3469 2 17.867 17.867 17.867 -6.98098
1798 2 1.7867 0 19.6537 -6.92639
2048 1 0 1.7867 19.6537 -8.28768
2297 1 0 0 21.4404 -8.42187
2548 2 1.7867 1.7867 21.4404 -7.00387
32 2 7.14681 1.7867 19.6537 -6.99829
284 3 7.14681 0 21.4404 -6.58492
2797 1 5.36011 0 19.6537 -8.3822
3048 1 3.57341 1.7867 19.6537 -8.1695
3297 3 3.57341 0 21.4404 -6.48707
3548 3 5.36011 1.7867 21.4404 -6.39895
501 2 8.93351 1.7867 21.4404 -7.12818
1048 2 10.7202 1.7867 19.6537 -7.01071
1299 2 10.7202 0 21.4404 -6.97049
3798 1 8.93351 0 19.6537 -8.51014
799 2 12.5069 0 19.6537 -6.98724
1549 3 12.5069 1.7867 21.4404 -6.41019
2049 1 14.2936 1.7867 19.6537 -8.22986
2299 1 14.2936 0 21.4404 -8.39301
1799 2 16.0803 0 19.6537 -7.00121
2157 3 17.867 1.7867 19.6537 -6.55606
2408 1 17.867 0 21.4404 -8.31312
2550 3 16.0803 1.7867 21.4404 -6.33182
288 1 0 7.14681 21.4404 -8.25043
2798 1 1.7867 3.57341 19.6537 -8.41203
3049 2 0 5.36011 19.6537 -6.97248
3299 3 0 3.57341 21.4404 -6.34663
3550 3 1.7867 5.36011 21.4404 -6.31723
3800 3 1.7867 7.14681 19.6537 -6.31461
503 2 5.36011 5.36011 21.4404 -7.06323
33 2 3.57341 5.36011 19.6537 -6.8889
285 1 3.57341 3.57341 21.4404 -8.13261
802 1 5.36011 7.14681 19.6537 -8.39336
1049 3 7.14681 5.36011 19.6537 -6.57819
1305 2 3.57341 7.14681 21.4404 -6.92524
1302 2 7.14681 3.57341 21.4404 -7.04365
2306 2 7.14681 7.14681 21.4404 -7.04905
3799 1 5.36011 3.57341 19.6537 -8.39583
800 3 8.93351 3.57341 19.6537 -6.65408
1551 3 8.93351 5.36011 21.4404 -6.52306
1802 2 8.93351 7.14681 19.6537 -6.96615
2050 1 10.7202 5.36011 19.6537 -8.4109
2301 1 10.7202 3.57341 21.4404 -8.48203
3304 3 10.7202 7.14681 21.4404 -6.3657
292 1 14.2936 7.14681 21.4404 -8.20972
1800 3 12.5069 3.57341 19.6537 -6.20487
2552 1 12.5069 5.36011 21.4404 -8.19596
2801 1 12.5069 7.14681 19.6537 -8.25146
3050 2 14.2936 5.36011 19.6537 -6.95196
3301 1 14.2936 3.57341 21.4404 -8.22431
414 1 17.867 7.14681 21.4404 -8.49222
2799 2 16.0803 3.57341 19.6537 -6.98255
3174 2 17.867 5.36011 19.6537 -7.07887
3425 3 17.867 3.57341 21.4404 -6.47468
3552 1 16.0803 5.36011 21.4404 -8.15127
3802 1 16.0803 7.14681 19.6537 -8.30956
505 1 1.7867 8.93351 21.4404 -8.17543
34 1 0 8.93351 19.6537 -8.19915
801 2 1.7867 10.7202 19.6537 -7.02935
1303 1 0 10.7202 21.4404 -8.26186
1050 1 3.57341 8.93351 19.6537 -8.15571
1553 2 5.36011 8.93351 21.4404 -6.98076
1801 2 5.36011 10.7202 19.6537 -7.04514
2051 2 7.14681 8.93351 19.6537 -7.05075
2303 3 3.57341 10.7202 21.4404 -6.39614
3305 3 7.14681 10.7202 21.4404 -6.55013
290 3 10.7202 10.7202 21.4404 -6.53947
2554 3 8.93351 8.93351 21.4404 -6.58867
2800 3 8.93351 10.7202 19.6537 -6.6668
3051 2 10.7202 8.93351 19.6537 -6.92371
35 1 14.2936 8.93351 19.6537 -8.25049
1307 1 14.2936 10.7202 21.4404 -8.4554
3554 2 12.5069 8.93351 21.4404 -6.91282
3801 3 12.5069 10.7202 19.6537 -6.47012
507 3 16.0803 8.93351 21.4404 -6.3508
159 3 17.867 8.93351 19.6537 -6.37015
803 2 16.0803 10.7202 19.6537 -6.88742
1414 3 17.867 10.7202 21.4404 -6.33477
1051 2 0 12.5069 19.6537 -7.13846
1555 2 1.7867 12.5069 21.4404 -6.97869
1803 3 1.7867 14.2936 19.6537 -6.58869
2307 2 0 14.2936 21.4404 -7.05808
294 3 7.14681 14.2936 21.4404 -6.59058
2052 1 3.57341 12.5069 19.6537 -8.40062
2556 3 5.36011 12.5069 21.4404 -6.55235
2802 2 5.36011 14.2936 19.6537 -6.98804
3052 3 7.14681 12.5069 19.6537 -6.64521
3307 2 3.57341 14.2936 21.4404 -7.02342
36 3 10.7202 12.5069 19.6537 -6.48076
1309 1 10.7202 14.2936 21.4404 -8.20403
3556 1 8.93351 12.5069 21.4404 -8.4922
3803 2 8.93351 14.2936 19.6537 -6.98571
509 3 12.5069 12.5069 21.4404 -6.41943
804 1 12.5069 14.2936 19.6537 -8.52328
1052 3 14.2936 12.5069 19.6537 -6.32872
2309 2 14.2936 14.2936 21.4404 -6.89757
1161 1 17.867 12.5069 19.6537 -8.02556
1557 1 16.0803 12.5069 21.4404 -8.30399
1804 1 16.0803 14.2936 19.6537 -8.31359
2418 3 17.867 14.2936 21.4404 -6.3221
346 3 0 17.867 21.4404 -6.42077
2053 3 0 16.0803 19.6537 -6.59689
2558 2 1.7867 16.0803 21.4404 -6.97203
3860 1 1.7867 17.867 19.6537 -8.369
37 3 7.14681 16.0803 19.6537 -6.6649
846 3 5.36011 17.867 19.6537 -6.56789
1347 3 3.57341 17.867 21.4404 -6.54889
2363 2 7.14681 17.867 21.4404 -7.04933
3053 3 3.57341 16.0803 19.6537 -6.54214
3558 3 5.36011 16.0803 21.4404 -6.72384
511 2 8.93351 16.0803 21.4404 -7.0695
1053 2 10.7202 16.0803 19.6537 -7.07401
1862 2 8.93351 17.867 19.6537 -7.02557
3361 1 10.7202 17.867 21.4404 -8.09868
350 1 14.2936 17.867 21.4404 -8.53305
1559 2 12.5069 16.0803 21.4404 -7.00144
2054 3 14.2936 16.0803 19.6537 -6.38126
2861 1 12.5069 17.867 19.6537 -8.30798
472 3 17.867 17.867 21.4404 -6.48199
2162 1 17.867 16.0803 19.6537 -8.41829
2560 3 16.0803 16.0803 21.4404 -6.44803
3862 3 16.0803 17.867 19.6537 -6.55932
47 3 0 1.7867 26.8005 -6.34789
2803 2 1.7867 0 23.2271 -7.00155
3054 3 0 1.7867 23.2271 -6.38894
3309 1 0 0 25.0138 -8.40911
3560 2 1.7867 1.7867 25.0138 -6.91767
3813 1 1.7867 0 26.8005 -8.26928
549 3 3.57341 1.7867 26.8005 -6.48618