ITEM: TIMESTEP
0
ITEM: NUMBER OF ATOMS
4000
ITEM: BOX BOUNDS pp pp pp
0.0000000000000000e+00 3.6167240000000000e+01
0.0000000000000000e+00 3.6167240000000000e+01
0.0000000000000000e+00 3.6167240000000000e+01
ITEM: ATOMS id type x y z c_peratom
267 1 0 0 0 -8.01777
516 3 1.80836 1.80836 0 -6.46779
767 2 1.80836 0 1.80836 -7.01561
1016 3 0 1.80836 1.80836 -6.39806
1267 3 0 0 3.61672 -6.48275
1268 3 3.61672 0 0 -6.44408
1270 1 0 3.61672 0 -8.19634
1517 1 1.80836 1.80836 3.61672 -8.22942
1768 3 1.80836 3.61672 1.80836 -6.45802
2017 3 3.61672 1.80836 1.80836 -6.59663
2266 2 3.61672 0 3.61672 -7.03918
2268 1 0 3.61672 3.61672 -8.20744
2269 2 3.61672 3.61672 0 -6.9775
3268 2 3.61672 3.61672 3.61672 -6.99478
1518 3 5.42509 1.80836 0 -6.57858
1767 1 5.42509 0 1.80836 -8.44171
2517 3 5.42509 1.80836 3.61672 -6.55647
2767 2 5.42509 3.61672 1.80836 -7.12349
270 2 7.23345 3.61672 3.61672 -7.02459
2267 2 7.23345 0 0 -6.89854
2518 3 9.04181 1.80836 0 -6.54886
2766 1 9.04181 0 1.80836 -8.22488
3017 3 7.23345 1.80836 1.80836 -6.57542
3266 3 7.23345 0 3.61672 -6.40388
3269 2 7.23345 3.61672 0 -7.08302
3517 1 9.04181 1.80836 3.61672 -8.24823
3768 2 9.04181 3.61672 1.80836 -7.01538
1 2 10.8502 1.80836 1.80836 -7.03319
268 2 10.8502 0 3.61672 -7.0031
271 1 10.8502 3.61672 0 -8.21489
517 3 12.6585 1.80836 3.61672 -6.33368
769 1 12.6585 3.61672 1.80836 -8.14104
1271 1 10.8502 3.61672 3.61672 -8.23995
3267 2 10.8502 0 0 -6.99164
3518 1 12.6585 1.80836 0 -8.08496
3767 1 12.6585 0 1.80836 -8.22732
269 2 14.4669 0 0 -6.93322
376 3 18.0836 0 0 -6.41697
518 3 16.2753 1.80836 0 -6.45079
768 1 16.2753 0 1.80836 -8.30501
1017 1 14.4669 1.80836 1.80836 -8.04509
1126 3 18.0836 1.80836 1.80836 -6.4232
1379 2 18.0836 3.61672 0 -6.95319
1376 3 18.0836 0 3.61672 -6.4171
1269 1 14.4669 0 3.61672 -8.01981
1272 3 14.4669 3.61672 0 -6.27888
1519 2 16.2753 1.80836 3.61672 -6.95128
1769 1 16.2753 3.61672 1.80836 -8.27247
2270 3 14.4669 3.61672 3.61672 -6.47902
2393 3 18.0836 3.61672 3.61672 -6.33063
1520 2 1.80836 5.42509 0 -6.97279
2018 3 0 5.42509 1.80836 -6.5151
2519 3 1.80836 5.42509 3.61672 -6.44313
3018 1 3.61672 5.42509 1.80836 -8.2947
2520 2 5.42509 5.42509 0 -7.16101
3519 2 5.42509 5.42509 3.61672 -7.12433
2 3 7.23345 5.42509 1.80836 -6.74303
519 1 9.04181 5.42509 3.61672 -8.15439
3520 3 9.04181 5.42509 0 -6.67262
520 3 12.6585 5.42509 0 -6.46621
1018 2 10.8502 5.42509 1.80836 -7.07888
1521 2 12.6585 5.42509 3.61672 -7.01762
1522 1 16.2753 5.42509 0 -8.12443
2002 1 18.0836 5.42509 1.80836 -7.86133
2019 2 14.4669 5.42509 1.80836 -7.05071
2521 2 16.2753 5.42509 3.61672 -7.04922
3 1 3.61672 9.04181 1.80836 -8.142
272 1 3.61672 7.23345 3.61672 -8.14107
2271 2 0 7.23345 0 -6.98191
2522 1 1.80836 9.04181 0 -8.21071
2768 3 1.80836 7.23345 1.80836 -6.45637
3019 3 0 9.04181 1.80836 -6.46296
3271 2 3.61672 7.23345 0 -7.05204
3270 3 0 7.23345 3.61672 -6.47797
3521 1 1.80836 9.04181 3.61672 -8.22321
521 3 5.42509 9.04181 3.61672 -6.49255
3522 2 5.42509 9.04181 0 -7.08388
3769 2 5.42509 7.23345 1.80836 -7.09475
273 3 7.23345 7.23345 0 -6.70951
522 2 9.04181 9.04181 0 -7.1115
770 2 9.04181 7.23345 1.80836 -7.12399
1019 1 7.23345 9.04181 1.80836 -8.25857
1273 2 7.23345 7.23345 3.61672 -7.01676
1523 2 9.04181 9.04181 3.61672 -7.15517
1274 2 10.8502 7.23345 0 -7.09147
1524 3 12.6585 9.04181 0 -6.49444
1770 2 12.6585 7.23345 1.80836 -7.13733
2020 2 10.8502 9.04181 1.80836 -7.08604
2272 1 10.8502 7.23345 3.61672 -8.23901
2523 2 12.6585 9.04181 3.61672 -7.17102
2273 2 14.4669 7.23345 0 -7.03686
2396 1 18.0836 7.23345 0 -8.17829
2524 2 16.2753 9.04181 0 -6.9985
2769 2 16.2753 7.23345 1.80836 -7.08003
3144 3 18.0836 9.04181 1.80836 -6.43487
3020 1 14.4669 9.04181 1.80836 -8.18325
3395 1 18.0836 7.23345 3.61672 -8.0168
3272 2 14.4669 7.23345 3.61672 -7.14498
3523 2 16.2753 9.04181 3.61672 -7.14028
4 2 0 12.6585 1.80836 -7.02578
274 1 0 10.8502 3.61672 -8.18996
275 1 3.61672 10.8502 0 -8.13322
523 3 1.80836 12.6585 3.61672 -6.31598
1020 3 3.61672 12.6585 1.80836 -6.30322
1275 3 3.61672 10.8502 3.61672 -6.4093
3273 3 0 10.8502 0 -6.38429
3524 1 1.80836 12.6585 0 -8.03808
3770 3 1.80836 10.8502 1.80836 -6.26211
524 3 5.42509 12.6585 0 -6.40329
771 3 5.42509 10.8502 1.80836 -6.51493
1525 2 5.42509 12.6585 3.61672 -7.05773
1276 2 7.23345 10.8502 0 -7.0389
1526 2 9.04181 12.6585 0 -7.07061
1771 1 9.04181 10.8502 1.80836 -8.11427
2021 3 7.23345 12.6585 1.80836 -6.50722
2274 2 7.23345 10.8502 3.61672 -7.09122
2525 3 9.04181 12.6585 3.61672 -6.55631
2275 1 10.8502 10.8502 0 -8.11517
2526 3 12.6585 12.6585 0 -6.23676
2770 1 12.6585 10.8502 1.80836 -8.00114
3021 1 10.8502 12.6585 1.80836 -8.03978
3274 2 10.8502 10.8502 3.61672 -7.12333
3525 2 12.6585 12.6585 3.61672 -7.08736
5 1 14.4669 12.6585 1.80836 -7.9588
129 2 18.0836 12.6585 1.80836 -7.08238
383 2 18.0836 10.8502 3.61672 -7.0849
276 2 14.4669 10.8502 3.61672 -7.08065
525 1 16.2753 12.6585 3.61672 -8.10793
3398 1 18.0836 10.8502 0 -8.22727
3275 1 14.4669 10.8502 0 -8.19383
3526 3 16.2753 12.6585 0 -6.3104
3771 2 16.2753 10.8502 1.80836 -7.07308
314 2 3.61672 18.0836 3.61672 -7.09
277 1 0 14.4669 0 -8.11949
526 1 1.80836 16.2753 0 -8.16222
772 1 1.80836 14.4669 1.80836 -7.95911
1021 3 0 16.2753 1.80836 -6.207
1278 1 3.61672 14.4669 0 -7.97336
1277 1 0 14.4669 3.61672 -8.03353
1527 1 1.80836 16.2753 3.61672 -7.95582
2022 2 3.61672 16.2753 1.80836 -7.14444
2328 2 0 18.0836 0 -6.89998
2276 1 3.61672 14.4669 3.61672 -8.07878
2828 2 1.80836 18.0836 1.80836 -7.04228
3329 2 3.61672 18.0836 0 -7.08021
3328 1 0 18.0836 3.61672 -8.16223
1528 2 5.42509 16.2753 0 -7.10248
1772 1 5.42509 14.4669 1.80836 -8.17806
2527 3 5.42509 16.2753 3.61672 -6.45929
3829 1 5.42509 18.0836 1.80836 -8.36879
315 2 7.23345 18.0836 0 -7.04698
814 1 9.04181 18.0836 1.80836 -8.09294
1330 3 7.23345 18.0836 3.61672 -6.39671
2277 1 7.23345 14.4669 0 -8.3433
2528 3 9.04181 16.2753 0 -6.41583
2771 1 9.04181 14.4669 1.80836 -8.04569
3022 2 7.23345 16.2753 1.80836 -7.01975
3276 2 7.23345 14.4669 3.61672 -6.95731
3527 1 9.04181 16.2753 3.61672 -8.12643
6 1 10.8502 16.2753 1.80836 -8.07324
278 1 10.8502 14.4669 3.61672 -8.23284
527 2 12.6585 16.2753 3.61672 -7.00703
1331 3 10.8502 18.0836 0 -6.34989
1830 1 12.6585 18.0836 1.80836 -8.20635
2329 1 10.8502 18.0836 3.61672 -7.93382
3277 2 10.8502 14.4669 0 -6.94165
3528 3 12.6585 16.2753 0 -6.45449
3772 2 12.6585 14.4669 1.80836 -6.94697
386 1 18.0836 14.4669 0 -8.14145
279 1 14.4669 14.4669 0 -8.1276
528 2 16.2753 16.2753 0 -7.11236
773 1 16.2753 14.4669 1.80836 -7.98933
1131 2 18.0836 16.2753 1.80836 -7.07977
1022 3 14.4669 16.2753 1.80836 -6.48523
1386 1 18.0836 14.4669 3.61672 -7.96842
1279 1 14.4669 14.4669 3.61672 -8.21023
1529 2 16.2753 16.2753 3.61672 -7.05227
2438 3 18.0836 18.0836 0 -6.51192
2330 2 14.4669 18.0836 0 -7.06415
2829 2 16.2753 18.0836 1.80836 -7.12142
3453 1 18.0836 18.0836 3.61672 -7.98403
3330 2 14.4669 18.0836 3.61672 -7.034
775 2 0 3.61672 7.23345 -7.07932
1280 3 3.61672 3.61672 7.23345 -6.47458
1773 3 1.80836 0 5.42509 -6.52959
2023 2 0 1.80836 5.42509 -7.08735
2278 1 0 0 7.23345 -8.14047
2529 2 1.80836 1.80836 7.23345 -7.08321
2774 1 1.80836 3.61672 5.42509 -8.18275
2773 2 3.61672 0 7.23345 -7.04503
3023 1 3.61672 1.80836 5.42509 -8.1906
2772 1 5.42509 0 5.42509 -8.41814
3024 3 5.42509 1.80836 7.23345 -6.36032
3775 2 5.42509 3.61672 5.42509 -6.98993
7 3 7.23345 1.80836 5.42509 -6.45289
776 3 9.04181 3.61672 5.42509 -6.34875
1775 1 7.23345 3.61672 7.23345 -8.11128
3278 3 7.23345 0 7.23345 -6.33608
3529 1 9.04181 1.80836 7.23345 -8.30649
3773 2 9.04181 0 5.42509 -6.91338
8 2 12.6585 1.80836 7.23345 -7.01733
774 1 12.6585 0 5.42509 -8.31007
1023 3 10.8502 1.80836 5.42509 -6.46691
1776 3 12.6585 3.61672 5.42509 -6.46738
2279 3 10.8502 3.61672 7.23345 -6.43973
3774 2 10.8502 0 7.23345 -7.10627
280 3 14.4669 0 7.23345 -6.43668
529 2 16.2753 1.80836 7.23345 -6.97926
884 2 18.0836 3.61672 7.23345 -7.00549
1774 3 16.2753 0 5.42509 -6.3618
2024 1 14.4669 1.80836 5.42509 -8.30537
2007 1 18.0836 1.80836 5.42509 -8.36646
2403 2 18.0836 0 7.23345 -7.09308
2776 3 14.4669 3.61672 7.23345 -6.44811
2775 2 16.2753 3.61672 5.42509 -6.97661
9 2 3.61672 5.42509 5.42509 -6.98742
1024 3 1.80836 5.42509 7.23345 -6.52726
3025 2 0 5.42509 5.42509 -7.01683
1530 2 5.42509 5.42509 7.23345 -7.02608
1025 1 7.23345 5.42509 5.42509 -8.11505
2025 3 9.04181 5.42509 7.23345 -6.44681
2026 3 10.8502 5.42509 5.42509 -6.42187
2530 1 12.6585 5.42509 7.23345 -8.2201
3150 3 18.0836 5.42509 5.42509 -6.40375
3027 3 16.2753 5.42509 7.23345 -6.39444
3026 3 14.4669 5.42509 5.42509 -6.56779
10 1 0 9.04181 5.42509 -8.11735
1026 3 3.61672 9.04181 5.42509 -6.43605
3279 3 0 7.23345 7.23345 -6.46024
3530 2 1.80836 9.04181 7.23345 -6.96061
3777 1 3.61672 7.23345 7.23345 -8.29031
3776 3 1.80836 7.23345 5.42509 -6.45955
11 1 5.42509 9.04181 7.23345 -8.21326
777 1 5.42509 7.23345 5.42509 -8.08065
281 2 7.23345 7.23345 7.23345 -7.00985
530 2 9.04181 9.04181 7.23345 -7.17815
1777 3 9.04181 7.23345 5.42509 -6.59666
2027 3 7.23345 9.04181 5.42509 -6.63783
778 2 10.8502 7.23345 7.23345 -7.05126
1027 3 12.6585 9.04181 7.23345 -6.64154
2777 1 12.6585 7.23345 5.42509 -8.17813
3028 2 10.8502 9.04181 5.42509 -7.18144
12 2 14.4669 9.04181 5.42509 -7.07972
135 1 18.0836 9.04181 5.42509 -8.19311
1281 2 14.4669 7.23345 7.23345 -7.0191
1531 2 16.2753 9.04181 7.23345 -7.05412
3404 3 18.0836 7.23345 7.23345 -6.34354
3778 1 16.2753 7.23345 5.42509 -8.28346
779 3 1.80836 10.8502 5.42509 -6.43197
1028 2 0 12.6585 5.42509 -6.93703
1778 2 0 10.8502 7.23345 -6.98757
2029 1 3.61672 12.6585 5.42509 -8.3615
2028 3 1.80836 12.6585 7.23345 -6.53061
2280 3 3.61672 10.8502 7.23345 -6.61149
1779 2 5.42509 10.8502 5.42509 -7.04072
2531 2 5.42509 12.6585 7.23345 -7.0271
2779 1 7.23345 10.8502 7.23345 -8.23738
2778 2 9.04181 10.8502 5.42509 -7.23869
3030 2 9.04181 12.6585 7.23345 -7.19791
3029 2 7.23345 12.6585 5.42509 -7.1406
13 2 10.8502 12.6585 5.42509 -7.157
3280 2 10.8502 10.8502 7.23345 -7.25508
3531 2 12.6585 12.6585 7.23345 -7.07698
3779 3 12.6585 10.8502 5.42509 -6.74442
14 2 16.2753 12.6585 7.23345 -6.97378
780 3 16.2753 10.8502 5.42509 -6.59422
1138 2 18.0836 12.6585 5.42509 -7.00029
1029 1 14.4669 12.6585 5.42509 -8.27658
1887 2 18.0836 10.8502 7.23345 -7.08286
3780 3 14.4669 10.8502 7.23345 -6.49174
326 2 0 18.0836 7.23345 -7.07871
282 2 0 14.4669 7.23345 -6.95293
531 1 1.80836 16.2753 7.23345 -8.13163
821 3 3.61672 18.0836 7.23345 -6.45639
781 3 3.61672 14.4669 7.23345 -6.41667
1780 1 1.80836 14.4669 5.42509 -8.00608
2030 1 0 16.2753 5.42509 -8.00456
3031 2 3.61672 16.2753 5.42509 -6.96685
3835 1 1.80836 18.0836 5.42509 -8.1122
820 1 5.42509 18.0836 5.42509 -8.2712
1030 1 5.42509 16.2753 7.23345 -8.16673
2780 3 5.42509 14.4669 5.42509 -6.49771
15 3 7.23345 16.2753 5.42509 -6.46845
1342 2 7.23345 18.0836 7.23345 -7.09267
1282 1 7.23345 14.4669 7.23345 -8.30316
1532 3 9.04181 16.2753 7.23345 -6.59886
1836 2 9.04181 18.0836 5.42509 -6.97372
3781 3 9.04181 14.4669 5.42509 -6.55735
782 3 12.6585 14.4669 5.42509 -6.52361
1031 3 10.8502 16.2753 5.42509 -6.41344
1837 3 10.8502 18.0836 7.23345 -6.44623
1781 2 10.8502 14.4669 7.23345 -7.10148
2031 1 12.6585 16.2753 7.23345 -8.18342
2835 1 12.6585 18.0836 5.42509 -8.0698
451 2 18.0836 18.0836 7.23345 -7.06577
391 3 18.0836 14.4669 7.23345 -6.42703
1782 3 16.2753 14.4669 5.42509 -6.45345
2032 3 14.4669 16.2753 5.42509 -6.47459
2014 1 18.0836 16.2753 5.42509 -8.11374
2341 1 14.4669 18.0836 7.23345 -8.18646
2281 2 14.4669 14.4669 7.23345 -7.00665
2532 3 16.2753 16.2753 7.23345 -6.49129
3836 2 16.2753 18.0836 5.42509 -7.08888
251 3 3.61672 0 10.8502 -6.43293
253 3 0 3.61672 10.8502 -6.4896
16 1 0 1.80836 12.6585 -8.32056
785 2 1.80836 3.61672 12.6585 -7.01169
1032 1 3.61672 1.80836 12.6585 -8.53261
1285 2 3.61672 3.61672 10.8502 -6.9891
1284 1 1.80836 3.61672 9.04181 -8.457
2781 1 1.80836 0 9.04181 -8.2602
3032 2 0 1.80836 9.04181 -7.06863
3281 3 0 0 10.8502 -6.49396
3533 2 3.61672 1.80836 9.04181 -6.93501
3532 2 1.80836 1.80836 10.8502 -6.99492
3782 3 1.80836 0 12.6585 -6.54495
532 3 5.42509 1.80836 10.8502 -6.41754
783 3 5.42509 0 12.6585 -6.45766
1785 3 5.42509 3.61672 12.6585 -6.45729
1784 1 5.42509 3.61672 9.04181 -8.20068
3282 1 5.42509 0 9.04181 -8.24023
17 1 7.23345 1.80836 9.04181 -8.15422
1283 3 7.23345 0 10.8502 -6.371
1533 2 9.04181 1.80836 10.8502 -7.04351
1783 2 9.04181 0 12.6585 -7.02783
2033 3 7.23345 1.80836 12.6585 -6.51656
2284 2 7.23345 3.61672 10.8502 -6.96014
2283 1 9.04181 3.61672 9.04181 -8.12546
2783 1 9.04181 3.61672 12.6585 -8.25343
3783 3 9.04181 0 9.04181 -6.33405
252 2 12.6585 0 9.04181 -7.05234
533 2 10.8502 1.80836 9.04181 -7.05198
2282 3 10.8502 0 10.8502 -6.54172
2533 2 12.6585 1.80836 10.8502 -7.17958
2784 2 12.6585 3.61672 9.04181 -7.04377
2782 1 12.6585 0 12.6585 -8.2102
3033 2 10.8502 1.80836 12.6585 -7.16886
3284 3 10.8502 3.61672 10.8502 -6.66281
3785 2 12.6585 3.61672 12.6585 -7.15036
254 2 14.4669 3.61672 10.8502 -7.15032
394 3 18.0836 3.61672 10.8502 -6.40521
141 2 18.0836 1.80836 12.6585 -7.0502
18 2 14.4669 1.80836 12.6585 -7.10728
786 1 16.2753 3.61672 12.6585 -8.06223
784 1 16.2753 0 9.04181 -8.05289
1033 1 14.4669 1.80836 9.04181 -8.14286
3157 3 18.0836 1.80836 9.04181 -6.56157
3406 2 18.0836 0 10.8502 -7.02365
3285 1 16.2753 3.61672 9.04181 -8.22578
3283 1 14.4669 0 10.8502 -8.0452
3534 1 16.2753 1.80836 10.8502 -8.00039
3784 1 16.2753 0 12.6585 -8.09761
534 3 1.80836 5.42509 10.8502 -6.47917
1034 2 0 5.42509 12.6585 -7.0197
1534 2 0 5.42509 9.04181 -7.07144
2035 3 3.61672 5.42509 12.6585 -6.45096
2034 3 3.61672 5.42509 9.04181 -6.449
1535 1 5.42509 5.42509 10.8502 -8.12809
2535 2 9.04181 5.42509 10.8502 -7.0041
2534 2 7.23345 5.42509 9.04181 -7.00128
3034 1 7.23345 5.42509 12.6585 -8.17012
19 2 10.8502 5.42509 12.6585 -7.02974
3035 1 10.8502 5.42509 9.04181 -8.28691
3535 2 12.6585 5.42509 10.8502 -7.1247
535 2 16.2753 5.42509 10.8502 -7.0521
1144 2 18.0836 5.42509 12.6585 -6.9972
1035 1 14.4669 5.42509 12.6585 -8.09018
1643 3 18.0836 5.42509 9.04181 -6.40848
3536 1 14.4669 5.42509 9.04181 -8.02072
20 3 0 9.04181 9.04181 -6.46207
536 2 3.61672 9.04181 9.04181 -7.11452
1286 1 0 7.23345 10.8502 -8.05824
1536 2 1.80836 9.04181 10.8502 -7.00371
1786 1 1.80836 7.23345 12.6585 -8.05547
2036 1 0 9.04181 12.6585 -8.01938
2285 1 3.61672 7.23345 10.8502 -8.31214
3036 3 3.61672 9.04181 12.6585 -6.40693
3786 2 1.80836 7.23345 9.04181 -6.97677
255 3 5.42509 7.23345 9.04181 -6.46286
2536 2 5.42509 9.04181 10.8502 -7.01248
2785 3 5.42509 7.23345 12.6585 -6.4357
21 1 7.23345 9.04181 12.6585 -8.05205
787 3 9.04181 7.23345 9.04181 -6.59956
1036 2 7.23345 9.04181 9.04181 -7.09948
3286 1 7.23345 7.23345 10.8502 -8.17162
3537 1 9.04181 9.04181 10.8502 -8.0957
3787 3 9.04181 7.23345 12.6585 -6.40975
256 3 10.8502 7.23345 10.8502 -6.50955
537 3 12.6585 9.04181 10.8502 -6.4345
788 2 12.6585 7.23345 12.6585 -7.02066
1037 1 10.8502 9.04181 12.6585 -8.10809
1287 2 12.6585 7.23345 9.04181 -7.02597
1537 2 10.8502 9.04181 9.04181 -7.1051
145 1 18.0836 9.04181 9.04181 -8.06015
1395 1 18.0836 7.23345 10.8502 -7.9367
1288 1 14.4669 7.23345 10.8502 -7.99826
1538 2 16.2753 9.04181 10.8502 -7.16031
1788 1 16.2753 7.23345 12.6585 -7.97239
1787 1 16.2753 7.23345 9.04181 -8.07957
2145 1 18.0836 9.04181 12.6585 -8.07913
2038 2 14.4669 9.04181 12.6585 -6.9963
2037 1 14.4669 9.04181 9.04181 -8.24246
22 1 3.61672 12.6585 12.6585 -8.17123
2287 1 0 10.8502 10.8502 -8.41319
2286 3 1.80836 10.8502 9.04181 -6.61363
2538 3 1.80836 12.6585 10.8502 -6.44143
2537 3 0 12.6585 9.04181 -6.51474
2786 3 1.80836 10.8502 12.6585 -6.40063
3038 3 3.61672 12.6585 9.04181 -6.57263
3037 3 0 12.6585 12.6585 -6.48075
3287 2 3.61672 10.8502 10.8502 -6.99866
2787 2 5.42509 10.8502 9.04181 -7.14133
3538 1 5.42509 12.6585 10.8502 -8.09803
3788 1 5.42509 10.8502 12.6585 -8.12582
257 2 7.23345 10.8502 10.8502 -7.16092
538 1 9.04181 12.6585 10.8502 -8.12531
789 1 9.04181 10.8502 12.6585 -7.91086
1038 1 7.23345 12.6585 12.6585 -7.9115
3288 2 9.04181 10.8502 9.04181 -7.21014
3539 2 7.23345 12.6585 9.04181 -7.17808
23 2 10.8502 12.6585 9.04181 -7.15201
1289 2 10.8502 10.8502 10.8502 -7.09116
1539 1 12.6585 12.6585 10.8502 -8.22347
1789 1 12.6585 10.8502 12.6585 -8.06891
2039 3 10.8502 12.6585 12.6585 -6.31793
3789 3 12.6585 10.8502 9.04181 -6.56531
258 1 16.2753 10.8502 9.04181 -8.01836
539 1 14.4669 12.6585 9.04181 -8.25
2256 1 18.0836 10.8502 10.8502 -7.83969
2288 3 14.4669 10.8502 10.8502 -6.27386
2662 3 18.0836 12.6585 9.04181 -6.33972
2539 1 16.2753 12.6585 10.8502 -7.99152
2788 1 16.2753 10.8502 12.6585 -8.02875
3162 1 18.0836 12.6585 12.6585 -7.89708
3039 1 14.4669 12.6585 12.6585 -8.13951
259 1 3.61672 14.4669 10.8502 -8.29477
24 1 0 16.2753 12.6585 -8.28795
829 2 1.80836 18.0836 9.04181 -6.94665
790 3 1.80836 14.4669 9.04181 -6.49043
1040 2 3.61672 16.2753 12.6585 -6.96741
1039 3 0 16.2753 9.04181 -6.61225
1251 2 0 18.0836 10.8502 -6.96224
1540 1 3.61672 16.2753 9.04181 -8.20877
1845 3 1.80836 18.0836 12.6585 -6.65113
2344 3 3.61672 18.0836 10.8502 -6.6287
3289 2 0 14.4669 10.8502 -6.87027
3540 3 1.80836 16.2753 10.8502 -6.52779
3790 3 1.80836 14.4669 12.6585 -6.44927
540 2 5.42509 16.2753 10.8502 -7.0353
791 3 5.42509 14.4669 12.6585 -6.43823
1252 2 5.42509 18.0836 9.04181 -7.01775
1290 2 5.42509 14.4669 9.04181 -7.09244
2844 3 5.42509 18.0836 12.6585 -6.67543
1291 2 7.23345 14.4669 10.8502 -7.08787
1541 1 9.04181 16.2753 10.8502 -8.00147
1846 2 9.04181 18.0836 9.04181 -7.11232
1791 1 9.04181 14.4669 12.6585 -8.00437
1790 2 9.04181 14.4669 9.04181 -7.13731
2041 2 7.23345 16.2753 12.6585 -7.08674
2040 2 7.23345 16.2753 9.04181 -7.0752
3344 1 7.23345 18.0836 10.8502 -8.15519
3845 1 9.04181 18.0836 12.6585 -8.00665
330 1 10.8502 18.0836 10.8502 -7.95343
830 1 12.6585 18.0836 12.6585 -8.09124
2345 3 12.6585 18.0836 9.04181 -6.47012
2290 3 10.8502 14.4669 10.8502 -6.32455
2289 2 12.6585 14.4669 9.04181 -7.05891
2541 1 12.6585 16.2753 10.8502 -8.26018
2540 1 10.8502 16.2753 9.04181 -8.13744
2789 3 12.6585 14.4669 12.6585 -6.42809
3040 3 10.8502 16.2753 12.6585 -6.30722
149 1 18.0836 16.2753 12.6585 -7.99271
25 3 14.4669 16.2753 12.6585 -6.47006
1149 1 18.0836 16.2753 9.04181 -8.28818
1253 2 14.4669 18.0836 10.8502 -7.05424
1454 3 18.0836 18.0836 10.8502 -6.41888
1847 2 16.2753 18.0836 12.6585 -6.91158
2845 2 16.2753 18.0836 9.04181 -7.04975
2790 3 16.2753 14.4669 9.04181 -6.41416
3041 2 14.4669 16.2753 9.04181 -7.00068
3414 1 18.0836 14.4669 10.8502 -8.03473
3290 3 14.4669 14.4669 10.8502 -6.39143
3541 3 16.2753 16.2753 10.8502 -6.50336
3791 2 16.2753 14.4669 12.6585 -7.02119
260 2 0 0 14.4669 -6.99716
541 3 1.80836 1.80836 14.4669 -6.66352
792 2 1.80836 0 16.2753 -6.98332
1041 2 0 1.80836 16.2753 -7.08366
1298 3 0 0 18.0836 -6.47361
1293 2 0 3.61672 14.4669 -7.16094
1292 3 3.61672 0 14.4669 -6.50997
1548 1 1.80836 1.80836 18.0836 -8.20297
1793 2 1.80836 3.61672 16.2753 -7.10105
2042 2 3.61672 1.80836 16.2753 -7.0791
2300 2 0 3.61672 18.0836 -7.11069
2298 3 3.61672 0 18.0836 -6.44906
2292 2 3.61672 3.61672 14.4669 -7.03537
3300 1 3.61672 3.61672 18.0836 -8.20397
1542 3 5.42509 1.80836 14.4669 -6.51643
1792 3 5.42509 0 16.2753 -6.50665
2549 2 5.42509 1.80836 18.0836 -7.07343
2792 2 5.42509 3.61672 16.2753 -7.03872
286 1 7.23345 3.61672 18.0836 -8.14338
2291 1 7.23345 0 14.4669 -8.48455
2542 2 9.04181 1.80836 14.4669 -7.12187
2791 2 9.04181 0 16.2753 -7.1149
3042 3 7.23345 1.80836 16.2753 -6.46086
3298 1 7.23345 0 18.0836 -8.21402
3292 1 7.23345 3.61672 14.4669 -8.29461
3549 2 9.04181 1.80836 18.0836 -7.06844
3793 1 9.04181 3.61672 16.2753 -8.21956
262 2 10.8502 3.61672 14.4669 -7.09414
284 3 10.8502 0 18.0836 -6.52612
26 2 10.8502 1.80836 16.2753 -7.10535
502 1 12.6585 1.80836 18.0836 -8.16009
794 1 12.6585 3.61672 16.2753 -8.1825
1302 3 10.8502 3.61672 18.0836 -6.37703
3291 2 10.8502 0 14.4669 -7.22521
3542 2 12.6585 1.80836 14.4669 -7.17619
3792 2 12.6585 0 16.2753 -7.01872
261 2 14.4669 0 14.4669 -7.04989
401 1 18.0836 0 14.4669 -7.97415
542 2 16.2753 1.80836 14.4669 -7.06244
793 1 16.2753 0 16.2753 -8.08919
1151 1 18.0836 1.80836 16.2753 -8.05069
1042 1 14.4669 1.80836 16.2753 -8.22009
1407 2 18.0836 0 18.0836 -6.96255
1402 1 18.0836 3.61672 14.4669 -7.91059
1300 3 14.4669 0 18.0836 -6.29644
1294 3 14.4669 3.61672 14.4669 -6.42185
1550 3 16.2753 1.80836 18.0836 -6.46273
1794 3 16.2753 3.61672 16.2753 -6.3564
2410 2 18.0836 3.61672 18.0836 -7.06807
2302 2 14.4669 3.61672 18.0836 -7.0139
1543 1 1.80836 5.42509 14.4669 -8.20435
2043 3 0 5.42509 16.2753 -6.5416
2551 1 1.80836 5.42509 18.0836 -8.19719
3043 2 3.61672 5.42509 16.2753 -7.08936
2543 3 5.42509 5.42509 14.4669 -6.53744
3551 2 5.42509 5.42509 18.0836 -7.07349
27 3 7.23345 5.42509 16.2753 -6.52679
504 3 9.04181 5.42509 18.0836 -6.39217
3543 3 9.04181 5.42509 14.4669 -6.46677
543 3 12.6585 5.42509 14.4669 -6.48389
1043 1 10.8502 5.42509 16.2753 -8.36392
1552 2 12.6585 5.42509 18.0836 -6.91892
1544 1 16.2753 5.42509 14.4669 -7.95449
2152 1 18.0836 5.42509 16.2753 -7.97004
2044 2 14.4669 5.42509 16.2753 -6.90344
2553 1 16.2753 5.42509 18.0836 -8.14924
288 2 3.61672 7.23345 18.0836 -7.06773
28 1 3.61672 9.04181 16.2753 -8.3845
2293 3 0 7.23345 14.4669 -6.36165
2544 1 1.80836 9.04181 14.4669 -8.18212
2793 1 1.80836 7.23345 16.2753 -8.11436
3044 2 0 9.04181 16.2753 -7.08863
3302 2 0 7.23345 18.0836 -7.07082
3293 3 3.61672 7.23345 14.4669 -6.42838
3553 2 1.80836 9.04181 18.0836 -7.08519
506 3 5.42509 9.04181 18.0836 -6.43656
3544 3 5.42509 9.04181 14.4669 -6.4327
3794 3 5.42509 7.23345 16.2753 -6.56229
263 2 7.23345 7.23345 14.4669 -6.91725
544 1 9.04181 9.04181 14.4669 -8.21584
795 2 9.04181 7.23345 16.2753 -6.96623
1044 3 7.23345 9.04181 16.2753 -6.51255
1304 3 7.23345 7.23345 18.0836 -6.47494
1554 1 9.04181 9.04181 18.0836 -8.32741
1295 3 10.8502 7.23345 14.4669 -6.46216
1545 1 12.6585 9.04181 14.4669 -8.10811
1795 3 12.6585 7.23345 16.2753 -6.53414
2045 2 10.8502 9.04181 16.2753 -6.95988
2304 3 10.8502 7.23345 18.0836 -6.60218
2555 2 12.6585 9.04181 18.0836 -7.04741
2262 3 18.0836 7.23345 14.4669 -6.27982
2294 1 14.4669 7.23345 14.4669 -7.99021
2545 2 16.2753 9.04181 14.4669 -7.03598
2794 1 16.2753 7.23345 16.2753 -7.90849
3169 1 18.0836 9.04181 16.2753 -8.26928
3045 2 14.4669 9.04181 16.2753 -7.02222
3427 2 18.0836 7.23345 18.0836 -7.16965
3304 3 14.4669 7.23345 18.0836 -6.51108
3555 1 16.2753 9.04181 18.0836 -8.13806
264 3 3.61672 10.8502 14.4669 -6.31259
290 2 0 10.8502 18.0836 -7.15839
29 2 0 12.6585 16.2753 -7.14904
508 2 1.80836 12.6585 18.0836 -7.0681
1045 1 3.61672 12.6585 16.2753 -8.22158
1306 3 3.61672 10.8502 18.0836 -6.5047
3294 2 0 10.8502 14.4669 -7.05714
3545 1 1.80836 12.6585 14.4669 -8.24537
3795 2 1.80836 10.8502 16.2753 -7.03046
545 3 5.42509 12.6585 14.4669 -6.32342
796 3 5.42509 10.8502 16.2753 -6.40405
1556 1 5.42509 12.6585 18.0836 -8.24091
1296 2 7.23345 10.8502 14.4669 -7.07182
1546 1 9.04181 12.6585 14.4669 -8.00841
1796 2 9.04181 10.8502 16.2753 -7.04141
2046 2 7.23345 12.6585 16.2753 -7.00637
2306 1 7.23345 10.8502 18.0836 -8.18645
2557 1 9.04181 12.6585 18.0836 -8.29629
2295 2 10.8502 10.8502 14.4669 -7.06387
2546 3 12.6585 12.6585 14.4669 -6.40392
2795 3 12.6585 10.8502 16.2753 -6.57451
3046 1 10.8502 12.6585 16.2753 -8.18998
3306 3 10.8502 10.8502 18.0836 -6.56182
3557 2 12.6585 12.6585 18.0836 -6.96889
415 2 18.0836 10.8502 18.0836 -7.02459
292 2 14.4669 10.8502 18.0836 -7.08779
154 1 18.0836 12.6585 16.2753 -8.09424
30 2 14.4669 12.6585 16.2753 -7.0074
510 1 16.2753 12.6585 18.0836 -8.05261
3419 3 18.0836 10.8502 14.4669 -6.33059
3295 1 14.4669 10.8502 14.4669 -8.13006
3546 2 16.2753 12.6585 14.4669 -6.97349
3796 3 16.2753 10.8502 16.2753 -6.42879
265 3 0 14.4669 14.4669 -6.41746
346 2 3.61672 18.0836 18.0836 -6.97557
546 3 1.80836 16.2753 14.4669 -6.5668
797 1 1.80836 14.4669 16.2753 -8.37602
1046 3 0 16.2753 16.2753 -6.52569
1308 2 0 14.4669 18.0836 -7.01889
1297 2 3.61672 14.4669 14.4669 -6.94598
1558 3 1.80836 16.2753 18.0836 -6.5377
2047 3 3.61672 16.2753 16.2753 -6.56652
2353 3 0 18.0836 14.4669 -6.54368
2308 3 3.61672 14.4669 18.0836 -6.45882
2853 2 1.80836 18.0836 16.2753 -6.97305
3359 1 0 18.0836 18.0836 -8.48987
3353 2 3.61672 18.0836 14.4669 -7.10032
1547 3 5.42509 16.2753 14.4669 -6.59253
1797 1 5.42509 14.4669 16.2753 -8.12504
2559 1 5.42509 16.2753 18.0836 -8.3104
3854 2 5.42509 18.0836 16.2753 -7.06042
339 2 7.23345 18.0836 14.4669 -6.98426
839 3 9.04181 18.0836 16.2753 -6.52816
1346 1 7.23345 18.0836 18.0836 -8.22645
2296 1 7.23345 14.4669 14.4669 -8.13764
2547 1 9.04181 16.2753 14.4669 -8.24204
2796 2 9.04181 14.4669 16.2753 -7.04713
3047 3 7.23345 16.2753 16.2753 -6.47327
3308 2 7.23345 14.4669 18.0836 -6.93276
3559 2 9.04181 16.2753 18.0836 -7.03945
294 3 10.8502 14.4669 18.0836 -6.49543
31 2 10.8502 16.2753 16.2753 -7.06104
512 1 12.6585 16.2753 18.0836 -8.187
1261 3 10.8502 18.0836 14.4669 -6.43315
1855 2 12.6585 18.0836 16.2753 -6.96205
2361 3 10.8502 18.0836 18.0836 -6.50715
3296 2 10.8502 14.4669 14.4669 -7.04274
3547 2 12.6585 16.2753 14.4669 -6.92877
3797 1 12.6585 14.4669 16.2753 -8.27643
266 3 14.4669 14.4669 14.4669 -6.43563
406 1 18.0836 14.4669 14.4669 -7.82669
547 1 16.2753 16.2753 14.4669 -8.16218
798 1 16.2753 14.4669 16.2753 -7.99528
1156 1 18.0836 16.2753 16.2753 -8.02407
1047 2 14.4669 16.2753 16.2753 -6.98147
1417 1 18.0836 14.4669 18.0836 -7.90323
1310 3 14.4669 14.4669 18.0836 -6.30415
1560 1 16.2753 16.2753 18.0836 -8.00251
2463 1 18.0836 18.0836 14.4669 -8.18222
2354 3 14.4669 18.0836 14.4669 -6.4195
2854 3 16.2753 18.0836 16.2753 -6.36939
3469 2 18.0836 18.0836 18.0836 -6.97022
3361 2 14.4669 18.0836 18.0836 -7.1209
285 2 3.61672 3.61672 21.7003 -7.06878
1798 1 1.80836 0 19.892 -8.12321
2048 2 0 1.80836 19.892 -6.99204
2297 1 0 0 21.7003 -8.21826
2548 2 1.80836 1.80836 21.7003 -7.02711
2798 3 1.80836 3.61672 19.892 -6.47314
3048 2 3.61672 1.80836 19.892 -7.0913
3299 1 0 3.61672 21.7003 -8.25824
3297 3 3.61672 0 21.7003 -6.32811
2797 1 5.42509 0 19.892 -8.23897
3548 3 5.42509 1.80836 21.7003 -6.66496
3799 2 5.42509 3.61672 19.892 -7.10455
501 3 9.04181 1.80836 21.7003 -6.56479
32 2 7.23345 1.80836 19.892 -7.07258
283 2 7.23345 0 21.7003 -7.0642
800 1 9.04181 3.61672 19.892 -8.1688
1301 2 7.23345 3.61672 21.7003 -7.0671
3798 2 9.04181 0 19.892 -7.06632
799 1 12.6585 0 19.892 -8.17955
1048 1 10.8502 1.80836 19.892 -8.0875
1299 2 10.8502 0 21.7003 -6.99661
1549 1 12.6585 1.80836 21.7003 -8.13895
1800 3 12.6585 3.61672 19.892 -6.36901
2301 1 10.8502 3.61672 21.7003 -8.17927
1799 1 16.2753 0 19.892 -8.43379
2157 3 18.0836 1.80836 19.892 -6.55221
2049 3 14.4669 1.80836 19.892 -6.41538
2407 1 18.0836 0 21.7003 -8.1917
2299 1 14.4669 0 21.7003 -8.22097
2550 2 16.2753 1.80836 21.7003 -6.93157
2799 2 16.2753 3.61672 19.892 -7.0681
3424 2 18.0836 3.61672 21.7003 -7.06417
3301 3 14.4669 3.61672 21.7003 -6.45674
33 2 3.61672 5.42509 19.892 -7.11459
3049 3 0 5.42509 19.892 -6.48897
3550 1 1.80836 5.42509 21.7003 -8.09105
503 1 5.42509 5.42509 21.7003 -8.06394
1049 1 7.23345 5.42509 19.892 -8.04049
1551 2 9.04181 5.42509 21.7003 -7.05006
2050 3 10.8502 5.42509 19.892 -6.49035
2552 3 12.6585 5.42509 21.7003 -6.47808
3174 2 18.0836 5.42509 19.892 -7.1721
3050 1 14.4669 5.42509 19.892 -8.41955
3552 3 16.2753 5.42509 21.7003 -6.57852
505 2 1.80836 9.04181 21.7003 -7.04737
34 3 0 9.04181 19.892 -6.47507
287 1 0 7.23345 21.7003 -8.06563
1050 2 3.61672 9.04181 19.892 -7.04955
1303 1 3.61672 7.23345 21.7003 -8.16703
3800 2 1.80836 7.23345 19.892 -7.05814
801 1 5.42509 7.23345 19.892 -8.08031
1553 2 5.42509 9.04181 21.7003 -7.00617
1801 2 9.04181 7.23345 19.892 -6.9664
2051 1 7.23345 9.04181 19.892 -8.17525
2303 1 7.23345 7.23345 21.7003 -8.13996
2554 3 9.04181 9.04181 21.7003 -6.47256
2800 3 12.6585 7.23345 19.892 -6.6031
3051 2 10.8502 9.04181 19.892 -7.0032
3303 1 10.8502 7.23345 21.7003 -8.48753
3554 2 12.6585 9.04181 21.7003 -7.00942
507 3 16.2753 9.04181 21.7003 -6.43843
159 1 18.0836 9.04181 19.892 -8.15482
35 3 14.4669 9.04181 19.892 -6.57654
412 2 18.0836 7.23345 21.7003 -7.12183
289 3 14.4669 7.23345 21.7003 -6.53468
3801 2 16.2753 7.23345 19.892 -6.95896
802 1 1.80836 10.8502 19.892 -8.45222
1051 3 0 12.6585 19.892 -6.51439
1305 2 0 10.8502 21.7003 -6.99336
1555 3 1.80836 12.6585 21.7003 -6.44551
2052 2 3.61672 12.6585 19.892 -6.97079
2305 3 3.61672 10.8502 21.7003 -6.64214
1802 3 5.42509 10.8502 19.892 -6.51364
2556 3 5.42509 12.6585 21.7003 -6.50022
2801 3 9.04181 10.8502 19.892 -6.48777
3052 3 7.23345 12.6585 19.892 -6.44121
3305 2 7.23345 10.8502 21.7003 -6.92162
3556 3 9.04181 12.6585 21.7003 -6.49034
509 3 12.6585 12.6585 21.7003 -6.53193
36 3 10.8502 12.6585 19.892 -6.53196
291 2 10.8502 10.8502 21.7003 -6.97778
3802 3 12.6585 10.8502 19.892 -6.72222
803 1 16.2753 10.8502 19.892 -8.03618
1161 1 18.0836 12.6585 19.892 -7.98432
1052 2 14.4669 12.6585 19.892 -7.03263
1414 1 18.0836 10.8502 21.7003 -8.04156
1307 3 14.4669 10.8502 21.7003 -6.577
1557 2 16.2753 12.6585 21.7003 -7.06318
345 1 0 18.0836 21.7003 -8.31321
1345 1 3.61672 18.0836 21.7003 -8.40239
1803 2 1.80836 14.4669 19.892 -6.92837
2053 1 0 16.2753 19.892 -8.14359
2307 1 0 14.4669 21.7003 -8.12847
2558 3 1.80836 16.2753 21.7003 -6.26282
3053 3 3.61672 16.2753 19.892 -6.42145
3307 1 3.61672 14.4669 21.7003 -8.31809
3860 3 1.80836 18.0836 19.892 -6.38136
845 3 5.42509 18.0836 19.892 -6.42814
2802 3 5.42509 14.4669 19.892 -6.37492
3558 1 5.42509 16.2753 21.7003 -8.15866
511 2 9.04181 16.2753 21.7003 -7.11618
37 3 7.23345 16.2753 19.892 -6.49939
293 1 7.23345 14.4669 21.7003 -8.35902
1861 2 9.04181 18.0836 19.892 -7.00607
2360 2 7.23345 18.0836 21.7003 -7.01391
3803 2 9.04181 14.4669 19.892 -6.99971
804 1 12.6585 14.4669 19.892 -8.18908
1053 3 10.8502 16.2753 19.892 -6.4883
1309 1 10.8502 14.4669 21.7003 -8.19201
1559 2 12.6585 16.2753 21.7003 -7.02087
2860 1 12.6585 18.0836 19.892 -8.07093
3360 1 10.8502 18.0836 21.7003 -8.25746
470 1 18.0836 18.0836 21.7003 -7.94674
347 3 14.4669 18.0836 21.7003 -6.277
1804 1 16.2753 14.4669 19.892 -8.03553
2162 2 18.0836 16.2753 19.892 -6.95924
2054 1 14.4669 16.2753 19.892 -7.99244
2417 3 18.0836 14.4669 21.7003 -6.49028