ITEM: TIMESTEP
0
ITEM: NUMBER OF ATOMS
4000
ITEM: BOX BOUNDS pp pp pp
0.0000000000000000e+00 3.6167240000000000e+01
0.0000000000000000e+00 3.6167240000000000e+01
0.0000000000000000e+00 3.6167240000000000e+01
ITEM: ATOMS id type x y z c_peratom
267 3 0 0 0 -6.42081
516 1 1.80836 1.80836 0 -8.10973
767 2 1.80836 0 1.80836 -7.04774
1016 2 0 1.80836 1.80836 -7.079
1267 3 0 0 3.61672 -6.51958
1268 2 3.61672 0 0 -7.03848
1270 2 0 3.61672 0 -7.04602
1517 2 1.80836 1.80836 3.61672 -7.07988
1768 1 1.80836 3.61672 1.80836 -8.22891
2017 3 3.61672 1.80836 1.80836 -6.3769
2266 1 3.61672 0 3.61672 -8.14602
2268 2 0 3.61672 3.61672 -7.09034
2269 2 3.61672 3.61672 0 -7.02124
3268 1 3.61672 3.61672 3.61672 -8.06776
1518 2 5.42509 1.80836 0 -7.05132
1767 1 5.42509 0 1.80836 -8.04574
2517 3 5.42509 1.80836 3.61672 -6.24433
2767 1 5.42509 3.61672 1.80836 -8.18873
270 1 7.23345 3.61672 3.61672 -8.13726
2267 1 7.23345 0 0 -8.03284
2518 3 9.04181 1.80836 0 -6.41999
2766 1 9.04181 0 1.80836 -8.2284
3017 2 7.23345 1.80836 1.80836 -7.01021
3266 1 7.23345 0 3.61672 -8.16751
3269 3 7.23345 3.61672 0 -6.43328
3517 3 9.04181 1.80836 3.61672 -6.51037
3768 2 9.04181 3.61672 1.80836 -7.06248
1 2 10.8502 1.80836 1.80836 -7.0625
268 2 10.8502 0 3.61672 -7.03985
271 2 10.8502 3.61672 0 -7.07518
517 2 12.6585 1.80836 3.61672 -7.14264
769 3 12.6585 3.61672 1.80836 -6.71477
1271 2 10.8502 3.61672 3.61672 -7.08178
3267 3 10.8502 0 0 -6.44683
3518 3 12.6585 1.80836 0 -6.66477
3767 1 12.6585 0 1.80836 -8.28805
269 3 14.4669 0 0 -6.60864
376 3 18.0836 0 0 -6.53213
518 2 16.2753 1.80836 0 -7.08355
768 3 16.2753 0 1.80836 -6.44248
1017 2 14.4669 1.80836 1.80836 -7.02416
1126 1 18.0836 1.80836 1.80836 -8.05853
1379 2 18.0836 3.61672 0 -7.072
1376 2 18.0836 0 3.61672 -7.02655
1269 2 14.4669 0 3.61672 -7.0985
1272 2 14.4669 3.61672 0 -7.11432
1519 1 16.2753 1.80836 3.61672 -8.04461
1769 1 16.2753 3.61672 1.80836 -8.11244
2270 2 14.4669 3.61672 3.61672 -7.06281
2393 1 18.0836 3.61672 3.61672 -7.99739
1520 3 1.80836 5.42509 0 -6.43012
2018 3 0 5.42509 1.80836 -6.48318
2519 2 1.80836 5.42509 3.61672 -7.00716
3018 2 3.61672 5.42509 1.80836 -7.07605
2520 3 5.42509 5.42509 0 -6.39305
3519 1 5.42509 5.42509 3.61672 -7.83105
2 1 7.23345 5.42509 1.80836 -7.97496
519 1 9.04181 5.42509 3.61672 -8.08357
3520 2 9.04181 5.42509 0 -7.06293
520 2 12.6585 5.42509 0 -7.03453
1018 1 10.8502 5.42509 1.80836 -8.18368
1521 2 12.6585 5.42509 3.61672 -7.10343
1522 2 16.2753 5.42509 0 -7.10524
2002 1 18.0836 5.42509 1.80836 -7.88842
2019 3 14.4669 5.42509 1.80836 -6.47487
2521 3 16.2753 5.42509 3.61672 -6.26706
3 2 3.61672 9.04181 1.80836 -6.9943
272 1 3.61672 7.23345 3.61672 -7.99649
2271 1 0 7.23345 0 -8.20542
2522 1 1.80836 9.04181 0 -8.17087
2768 3 1.80836 7.23345 1.80836 -6.36864
3019 1 0 9.04181 1.80836 -8.08658
3271 3 3.61672 7.23345 0 -6.48737
3270 1 0 7.23345 3.61672 -8.05109
3521 1 1.80836 9.04181 3.61672 -8.13217
521 1 5.42509 9.04181 3.61672 -8.05792
3522 3 5.42509 9.04181 0 -6.53021
3769 1 5.42509 7.23345 1.80836 -8.09988
273 1 7.23345 7.23345 0 -8.15879
522 3 9.04181 9.04181 0 -6.53686
770 2 9.04181 7.23345 1.80836 -7.04024
1019 3 7.23345 9.04181 1.80836 -6.31563
1273 1 7.23345 7.23345 3.61672 -7.96572
1523 1 9.04181 9.04181 3.61672 -8.12154
1274 3 10.8502 7.23345 0 -6.57995
1524 2 12.6585 9.04181 0 -7.02963
1770 1 12.6585 7.23345 1.80836 -8.18081
2020 3 10.8502 9.04181 1.80836 -6.58772
2272 2 10.8502 7.23345 3.61672 -7.03492
2523 3 12.6585 9.04181 3.61672 -6.5478
2273 1 14.4669 7.23345 0 -8.06738
2396 1 18.0836 7.23345 0 -8.11758
2524 1 16.2753 9.04181 0 -8.08637
2769 1 16.2753 7.23345 1.80836 -7.94602
3144 1 18.0836 9.04181 1.80836 -8.04507
3020 2 14.4669 9.04181 1.80836 -7.10568
3395 1 18.0836 7.23345 3.61672 -8.04269
3272 1 14.4669 7.23345 3.61672 -8.17552
3523 2 16.2753 9.04181 3.61672 -7.00781
4 2 0 12.6585 1.80836 -6.95972
274 3 0 10.8502 3.61672 -6.4884
275 3 3.61672 10.8502 0 -6.67682
523 1 1.80836 12.6585 3.61672 -8.50803
1020 3 3.61672 12.6585 1.80836 -6.51057
1275 3 3.61672 10.8502 3.61672 -6.39729
3273 1 0 10.8502 0 -8.14619
3524 2 1.80836 12.6585 0 -6.95343
3770 2 1.80836 10.8502 1.80836 -7.03759
524 2 5.42509 12.6585 0 -6.96783
771 2 5.42509 10.8502 1.80836 -6.9881
1525 1 5.42509 12.6585 3.61672 -8.28867
1276 1 7.23345 10.8502 0 -8.3134
1526 1 9.04181 12.6585 0 -8.31277
1771 2 9.04181 10.8502 1.80836 -6.95263
2021 3 7.23345 12.6585 1.80836 -6.43317
2274 1 7.23345 10.8502 3.61672 -8.16156
2525 3 9.04181 12.6585 3.61672 -6.53866
2275 2 10.8502 10.8502 0 -7.0241
2526 1 12.6585 12.6585 0 -8.20646
2770 2 12.6585 10.8502 1.80836 -7.06342
3021 2 10.8502 12.6585 1.80836 -7.13466
3274 3 10.8502 10.8502 3.61672 -6.52893
3525 3 12.6585 12.6585 3.61672 -6.65366
5 3 14.4669 12.6585 1.80836 -6.57568
129 1 18.0836 12.6585 1.80836 -8.18805
383 3 18.0836 10.8502 3.61672 -6.30006
276 3 14.4669 10.8502 3.61672 -6.51205
525 1 16.2753 12.6585 3.61672 -8.27739
3398 1 18.0836 10.8502 0 -7.9788
3275 2 14.4669 10.8502 0 -7.03427
3526 2 16.2753 12.6585 0 -6.95785
3771 3 16.2753 10.8502 1.80836 -6.3971
314 3 3.61672 18.0836 3.61672 -6.36347
277 1 0 14.4669 0 -8.23927
526 2 1.80836 16.2753 0 -6.89097
772 3 1.80836 14.4669 1.80836 -6.452
1021 1 0 16.2753 1.80836 -8.33944
1278 3 3.61672 14.4669 0 -6.44922
1277 2 0 14.4669 3.61672 -7.01432
1527 1 1.80836 16.2753 3.61672 -8.2146
2022 1 3.61672 16.2753 1.80836 -8.30012
2328 2 0 18.0836 0 -7.02078
2276 3 3.61672 14.4669 3.61672 -6.34275
2828 3 1.80836 18.0836 1.80836 -6.33234
3329 3 3.61672 18.0836 0 -6.28336
3328 3 0 18.0836 3.61672 -6.39111
1528 1 5.42509 16.2753 0 -8.12095
1772 3 5.42509 14.4669 1.80836 -6.35672
2527 1 5.42509 16.2753 3.61672 -8.11475
3829 3 5.42509 18.0836 1.80836 -6.40583
315 2 7.23345 18.0836 0 -6.98529
814 3 9.04181 18.0836 1.80836 -6.42441
1330 3 7.23345 18.0836 3.61672 -6.39008
2277 2 7.23345 14.4669 0 -7.00505
2528 3 9.04181 16.2753 0 -6.63948
2771 2 9.04181 14.4669 1.80836 -7.11259
3022 1 7.23345 16.2753 1.80836 -8.23595
3276 1 7.23345 14.4669 3.61672 -8.1872
3527 2 9.04181 16.2753 3.61672 -6.99193
6 2 10.8502 16.2753 1.80836 -7.10255
278 2 10.8502 14.4669 3.61672 -7.15038
527 2 12.6585 16.2753 3.61672 -7.04629
1331 1 10.8502 18.0836 0 -8.23351
1830 2 12.6585 18.0836 1.80836 -7.13061
2329 1 10.8502 18.0836 3.61672 -8.2467
3277 2 10.8502 14.4669 0 -7.0602
3528 2 12.6585 16.2753 0 -7.11817
3772 3 12.6585 14.4669 1.80836 -6.65367
386 3 18.0836 14.4669 0 -6.60262
279 2 14.4669 14.4669 0 -7.0757
528 2 16.2753 16.2753 0 -7.09883
773 2 16.2753 14.4669 1.80836 -7.05931
1131 1 18.0836 16.2753 1.80836 -8.38382
1022 1 14.4669 16.2753 1.80836 -8.24026
1386 2 18.0836 14.4669 3.61672 -7.05476
1279 3 14.4669 14.4669 3.61672 -6.50813
1529 2 16.2753 16.2753 3.61672 -6.99316
2438 3 18.0836 18.0836 0 -6.56828
2330 2 14.4669 18.0836 0 -7.13008
2829 2 16.2753 18.0836 1.80836 -7.0672
3453 2 18.0836 18.0836 3.61672 -6.96715
3330 1 14.4669 18.0836 3.61672 -8.0927
775 2 0 3.61672 7.23345 -7.08854
1280 1 3.61672 3.61672 7.23345 -8.07671
1773 2 1.80836 0 5.42509 -7.12944
2023 2 0 1.80836 5.42509 -7.08336
2278 1 0 0 7.23345 -7.99973
2529 1 1.80836 1.80836 7.23345 -8.06687
2774 3 1.80836 3.61672 5.42509 -6.42035
2773 1 3.61672 0 7.23345 -8.11686
3023 1 3.61672 1.80836 5.42509 -7.98491
2772 3 5.42509 0 5.42509 -6.31927
3024 1 5.42509 1.80836 7.23345 -8.09364
3775 1 5.42509 3.61672 5.42509 -8.00951
7 2 7.23345 1.80836 5.42509 -6.92721
776 3 9.04181 3.61672 5.42509 -6.46742
1775 2 7.23345 3.61672 7.23345 -6.94483
3278 3 7.23345 0 7.23345 -6.51652
3529 3 9.04181 1.80836 7.23345 -6.54722
3773 3 9.04181 0 5.42509 -6.52722
8 2 12.6585 1.80836 7.23345 -7.03221
774 2 12.6585 0 5.42509 -7.09267
1023 1 10.8502 1.80836 5.42509 -8.38075
1776 2 12.6585 3.61672 5.42509 -7.17644
2279 1 10.8502 3.61672 7.23345 -8.19818
3774 3 10.8502 0 7.23345 -6.54088
280 1 14.4669 0 7.23345 -7.95809
529 2 16.2753 1.80836 7.23345 -7.07874
884 2 18.0836 3.61672 7.23345 -7.07549
1774 1 16.2753 0 5.42509 -7.88319
2024 1 14.4669 1.80836 5.42509 -8.12633
2007 3 18.0836 1.80836 5.42509 -6.36282
2403 1 18.0836 0 7.23345 -8.15722
2776 2 14.4669 3.61672 7.23345 -7.10001
2775 3 16.2753 3.61672 5.42509 -6.43586
9 2 3.61672 5.42509 5.42509 -7.02462
1024 3 1.80836 5.42509 7.23345 -6.36395
3025 1 0 5.42509 5.42509 -8.13747
1530 3 5.42509 5.42509 7.23345 -6.39499
1025 3 7.23345 5.42509 5.42509 -6.35741
2025 3 9.04181 5.42509 7.23345 -6.60018
2026 2 10.8502 5.42509 5.42509 -7.04202
2530 1 12.6585 5.42509 7.23345 -7.99155
3150 1 18.0836 5.42509 5.42509 -8.08857
3027 2 16.2753 5.42509 7.23345 -7.09326
3026 1 14.4669 5.42509 5.42509 -8.15663
10 3 0 9.04181 5.42509 -6.30365
1026 1 3.61672 9.04181 5.42509 -7.97996
3279 1 0 7.23345 7.23345 -8.0476
3530 1 1.80836 9.04181 7.23345 -7.94188
3777 2 3.61672 7.23345 7.23345 -7.00499
3776 1 1.80836 7.23345 5.42509 -7.9424
11 2 5.42509 9.04181 7.23345 -6.96267
777 1 5.42509 7.23345 5.42509 -8.1582
281 3 7.23345 7.23345 7.23345 -6.48981
530 1 9.04181 9.04181 7.23345 -8.20593
1777 2 9.04181 7.23345 5.42509 -7.00234
2027 3 7.23345 9.04181 5.42509 -6.27262
778 1 10.8502 7.23345 7.23345 -8.1097
1027 1 12.6585 9.04181 7.23345 -8.16541
2777 2 12.6585 7.23345 5.42509 -7.09172
3028 1 10.8502 9.04181 5.42509 -8.01189
12 3 14.4669 9.04181 5.42509 -6.46903
135 1 18.0836 9.04181 5.42509 -7.96394
1281 2 14.4669 7.23345 7.23345 -7.08539
1531 1 16.2753 9.04181 7.23345 -8.1046
3404 1 18.0836 7.23345 7.23345 -8.0247
3778 2 16.2753 7.23345 5.42509 -7.05941
779 2 1.80836 10.8502 5.42509 -6.95596
1028 3 0 12.6585 5.42509 -6.61829
1778 3 0 10.8502 7.23345 -6.40218
2029 2 3.61672 12.6585 5.42509 -6.98669
2028 2 1.80836 12.6585 7.23345 -7.01897
2280 1 3.61672 10.8502 7.23345 -8.09588
1779 3 5.42509 10.8502 5.42509 -6.33092
2531 3 5.42509 12.6585 7.23345 -6.44119
2779 3 7.23345 10.8502 7.23345 -6.42484
2778 1 9.04181 10.8502 5.42509 -8.13381
3030 1 9.04181 12.6585 7.23345 -8.18124
3029 3 7.23345 12.6585 5.42509 -6.31039
13 3 10.8502 12.6585 5.42509 -6.50134
3280 1 10.8502 10.8502 7.23345 -7.97548
3531 1 12.6585 12.6585 7.23345 -8.05645
3779 2 12.6585 10.8502 5.42509 -6.96498
14 1 16.2753 12.6585 7.23345 -8.19173
780 1 16.2753 10.8502 5.42509 -8.10612
1138 2 18.0836 12.6585 5.42509 -6.90339
1029 1 14.4669 12.6585 5.42509 -8.103
1887 3 18.0836 10.8502 7.23345 -6.21439
3780 2 14.4669 10.8502 7.23345 -7.04731
326 1 0 18.0836 7.23345 -7.8986
282 2 0 14.4669 7.23345 -7.13172
531 1 1.80836 16.2753 7.23345 -8.13289
821 2 3.61672 18.0836 7.23345 -7.10184
781 3 3.61672 14.4669 7.23345 -6.4579
1780 2 1.80836 14.4669 5.42509 -7.05434
2030 2 0 16.2753 5.42509 -7.00998
3031 2 3.61672 16.2753 5.42509 -7.00114
3835 1 1.80836 18.0836 5.42509 -8.07285
820 1 5.42509 18.0836 5.42509 -8.13697
1030 1 5.42509 16.2753 7.23345 -8.03916
2780 1 5.42509 14.4669 5.42509 -8.2232
15 3 7.23345 16.2753 5.42509 -6.37447
1342 1 7.23345 18.0836 7.23345 -8.08084
1282 3 7.23345 14.4669 7.23345 -6.37494
1532 2 9.04181 16.2753 7.23345 -7.05903
1836 3 9.04181 18.0836 5.42509 -6.4378
3781 2 9.04181 14.4669 5.42509 -7.00067
782 2 12.6585 14.4669 5.42509 -7.0331
1031 3 10.8502 16.2753 5.42509 -6.58955
1837 1 10.8502 18.0836 7.23345 -8.24661
1781 2 10.8502 14.4669 7.23345 -7.04747
2031 3 12.6585 16.2753 7.23345 -6.36671
2835 3 12.6585 18.0836 5.42509 -6.36981
451 1 18.0836 18.0836 7.23345 -8.15452
391 3 18.0836 14.4669 7.23345 -6.33551
1782 3 16.2753 14.4669 5.42509 -6.37871
2032 3 14.4669 16.2753 5.42509 -6.42705
2014 3 18.0836 16.2753 5.42509 -6.48805
2341 2 14.4669 18.0836 7.23345 -6.91001
2281 1 14.4669 14.4669 7.23345 -8.14474
2532 1 16.2753 16.2753 7.23345 -8.13109
3836 1 16.2753 18.0836 5.42509 -8.16415
251 3 3.61672 0 10.8502 -6.61638
253 2 0 3.61672 10.8502 -7.07594
16 3 0 1.80836 12.6585 -6.60432
785 2 1.80836 3.61672 12.6585 -7.07936
1032 2 3.61672 1.80836 12.6585 -7.03847
1285 1 3.61672 3.61672 10.8502 -8.1762
1284 2 1.80836 3.61672 9.04181 -7.11172
2781 3 1.80836 0 9.04181 -6.46929
3032 2 0 1.80836 9.04181 -7.04929
3281 3 0 0 10.8502 -6.57001
3533 1 3.61672 1.80836 9.04181 -8.0344
3532 2 1.80836 1.80836 10.8502 -7.12341
3782 2 1.80836 0 12.6585 -7.13729
532 2 5.42509 1.80836 10.8502 -6.96796
783 3 5.42509 0 12.6585 -6.58648
1785 1 5.42509 3.61672 12.6585 -8.17478
1784 3 5.42509 3.61672 9.04181 -6.45698
3282 1 5.42509 0 9.04181 -8.282
17 3 7.23345 1.80836 9.04181 -6.58453
1283 2 7.23345 0 10.8502 -6.99093
1533 3 9.04181 1.80836 10.8502 -6.7174
1783 2 9.04181 0 12.6585 -7.06076
2033 3 7.23345 1.80836 12.6585 -6.58316
2284 2 7.23345 3.61672 10.8502 -6.99109
2283 3 9.04181 3.61672 9.04181 -6.60141
2783 2 9.04181 3.61672 12.6585 -7.0429
3783 2 9.04181 0 9.04181 -6.96865
252 1 12.6585 0 9.04181 -8.1914
533 1 10.8502 1.80836 9.04181 -8.32465
2282 3 10.8502 0 10.8502 -6.60822
2533 3 12.6585 1.80836 10.8502 -6.60743
2784 3 12.6585 3.61672 9.04181 -6.55461
2782 2 12.6585 0 12.6585 -6.97432
3033 2 10.8502 1.80836 12.6585 -7.12122
3284 2 10.8502 3.61672 10.8502 -7.09669
3785 2 12.6585 3.61672 12.6585 -7.05412
254 2 14.4669 3.61672 10.8502 -7.11336
394 2 18.0836 3.61672 10.8502 -7.07157
141 2 18.0836 1.80836 12.6585 -7.03144
18 1 14.4669 1.80836 12.6585 -8.40243
786 1 16.2753 3.61672 12.6585 -8.12627
784 3 16.2753 0 9.04181 -6.60543
1033 2 14.4669 1.80836 9.04181 -7.06044
3157 3 18.0836 1.80836 9.04181 -6.59077
3406 3 18.0836 0 10.8502 -6.57978
3285 2 16.2753 3.61672 9.04181 -7.20395
3283 3 14.4669 0 10.8502 -6.60766
3534 2 16.2753 1.80836 10.8502 -7.07809
3784 3 16.2753 0 12.6585 -6.55649
534 3 1.80836 5.42509 10.8502 -6.47633
1034 1 0 5.42509 12.6585 -8.33059
1534 2 0 5.42509 9.04181 -6.95937
2035 3 3.61672 5.42509 12.6585 -6.47707
2034 1 3.61672 5.42509 9.04181 -8.12652
1535 3 5.42509 5.42509 10.8502 -6.46762
2535 1 9.04181 5.42509 10.8502 -8.3576
2534 2 7.23345 5.42509 9.04181 -7.05687
3034 3 7.23345 5.42509 12.6585 -6.47579
19 2 10.8502 5.42509 12.6585 -7.07713
3035 2 10.8502 5.42509 9.04181 -7.04181
3535 2 12.6585 5.42509 10.8502 -7.10621
535 1 16.2753 5.42509 10.8502 -8.12166
1144 2 18.0836 5.42509 12.6585 -7.11002
1035 3 14.4669 5.42509 12.6585 -6.51536
1643 2 18.0836 5.42509 9.04181 -7.09034
3536 1 14.4669 5.42509 9.04181 -8.15999
20 1 0 9.04181 9.04181 -8.15593
536 1 3.61672 9.04181 9.04181 -8.06035
1286 2 0 7.23345 10.8502 -6.86451
1536 3 1.80836 9.04181 10.8502 -6.36783
1786 3 1.80836 7.23345 12.6585 -6.50022
2036 3 0 9.04181 12.6585 -6.43658
2285 3 3.61672 7.23345 10.8502 -6.42623
3036 2 3.61672 9.04181 12.6585 -7.02179
3786 1 1.80836 7.23345 9.04181 -8.12271
255 1 5.42509 7.23345 9.04181 -8.22333
2536 1 5.42509 9.04181 10.8502 -8.25173
2785 2 5.42509 7.23345 12.6585 -6.97632
21 2 7.23345 9.04181 12.6585 -7.0717
787 2 9.04181 7.23345 9.04181 -7.09037
1036 2 7.23345 9.04181 9.04181 -7.05953
3286 2 7.23345 7.23345 10.8502 -7.07824
3537 2 9.04181 9.04181 10.8502 -7.0565
3787 3 9.04181 7.23345 12.6585 -6.62743
256 2 10.8502 7.23345 10.8502 -7.11507
537 1 12.6585 9.04181 10.8502 -8.36278
788 2 12.6585 7.23345 12.6585 -7.04416
1037 3 10.8502 9.04181 12.6585 -6.6335
1287 2 12.6585 7.23345 9.04181 -7.13794
1537 3 10.8502 9.04181 9.04181 -6.45535
145 3 18.0836 9.04181 9.04181 -6.35427
1395 1 18.0836 7.23345 10.8502 -8.10945
1288 3 14.4669 7.23345 10.8502 -6.48385
1538 1 16.2753 9.04181 10.8502 -8.11416
1788 2 16.2753 7.23345 12.6585 -7.05526
1787 2 16.2753 7.23345 9.04181 -7.0833
2145 2 18.0836 9.04181 12.6585 -7.09017
2038 1 14.4669 9.04181 12.6585 -8.10563
2037 2 14.4669 9.04181 9.04181 -7.06057
22 2 3.61672 12.6585 12.6585 -7.07219
2287 2 0 10.8502 10.8502 -6.97119
2286 1 1.80836 10.8502 9.04181 -8.10112
2538 1 1.80836 12.6585 10.8502 -8.14663
2537 3 0 12.6585 9.04181 -6.59839
2786 1 1.80836 10.8502 12.6585 -8.28945
3038 1 3.61672 12.6585 9.04181 -8.19931
3037 3 0 12.6585 12.6585 -6.44675
3287 3 3.61672 10.8502 10.8502 -6.38786
2787 3 5.42509 10.8502 9.04181 -6.48235
3538 3 5.42509 12.6585 10.8502 -6.59587
3788 2 5.42509 10.8502 12.6585 -7.02909
257 2 7.23345 10.8502 10.8502 -7.0815
538 1 9.04181 12.6585 10.8502 -8.17255
789 1 9.04181 10.8502 12.6585 -8.36161
1038 3 7.23345 12.6585 12.6585 -6.62936
3288 3 9.04181 10.8502 9.04181 -6.44911
3539 2 7.23345 12.6585 9.04181 -6.98486
23 1 10.8502 12.6585 9.04181 -7.95056
1289 2 10.8502 10.8502 10.8502 -6.9825
1539 2 12.6585 12.6585 10.8502 -7.02288
1789 3 12.6585 10.8502 12.6585 -6.57141
2039 3 10.8502 12.6585 12.6585 -6.53863
3789 3 12.6585 10.8502 9.04181 -6.4147
258 1 16.2753 10.8502 9.04181 -8.18184
539 2 14.4669 12.6585 9.04181 -7.03011
2256 2 18.0836 10.8502 10.8502 -7.0279
2288 2 14.4669 10.8502 10.8502 -7.08333
2662 3 18.0836 12.6585 9.04181 -6.32774
2539 3 16.2753 12.6585 10.8502 -6.42812
2788 2 16.2753 10.8502 12.6585 -7.0709
3162 2 18.0836 12.6585 12.6585 -7.06624
3039 1 14.4669 12.6585 12.6585 -8.13256
259 3 3.61672 14.4669 10.8502 -6.46441
24 3 0 16.2753 12.6585 -6.27997
829 1 1.80836 18.0836 9.04181 -7.98109
790 2 1.80836 14.4669 9.04181 -6.89393
1040 3 3.61672 16.2753 12.6585 -6.32505
1039 1 0 16.2753 9.04181 -8.20242
1251 3 0 18.0836 10.8502 -6.23989
1540 2 3.61672 16.2753 9.04181 -7.0607
1845 1 1.80836 18.0836 12.6585 -8.2972
2344 1 3.61672 18.0836 10.8502 -7.97974
3289 3 0 14.4669 10.8502 -6.45252
3540 3 1.80836 16.2753 10.8502 -6.3306
3790 1 1.80836 14.4669 12.6585 -8.22597
540 2 5.42509 16.2753 10.8502 -7.05215
791 2 5.42509 14.4669 12.6585 -7.02111
1252 1 5.42509 18.0836 9.04181 -7.94552
1290 1 5.42509 14.4669 9.04181 -8.29181
2844 1 5.42509 18.0836 12.6585 -8.2018
1291 2 7.23345 14.4669 10.8502 -7.09661
1541 3 9.04181 16.2753 10.8502 -6.50669
1846 2 9.04181 18.0836 9.04181 -7.0579
1791 2 9.04181 14.4669 12.6585 -6.94348
1790 1 9.04181 14.4669 9.04181 -8.13806
2041 3 7.23345 16.2753 12.6585 -6.59076
2040 2 7.23345 16.2753 9.04181 -7.09599
3344 2 7.23345 18.0836 10.8502 -7.1509
3845 2 9.04181 18.0836 12.6585 -7.13838
330 1 10.8502 18.0836 10.8502 -7.98184
830 1 12.6585 18.0836 12.6585 -7.85575
2345 1 12.6585 18.0836 9.04181 -7.94983
2290 2 10.8502 14.4669 10.8502 -7.06152
2289 1 12.6585 14.4669 9.04181 -7.9404
2541 1 12.6585 16.2753 10.8502 -7.88283
2540 1 10.8502 16.2753 9.04181 -7.92753
2789 1 12.6585 14.4669 12.6585 -8.16961
3040 1 10.8502 16.2753 12.6585 -7.91974
149 3 18.0836 16.2753 12.6585 -6.42775
25 3 14.4669 16.2753 12.6585 -6.29486
1149 1 18.0836 16.2753 9.04181 -8.15391
1253 2 14.4669 18.0836 10.8502 -7.00991
1454 1 18.0836 18.0836 10.8502 -8.27793
1847 3 16.2753 18.0836 12.6585 -6.38782
2845 1 16.2753 18.0836 9.04181 -8.09679
2790 3 16.2753 14.4669 9.04181 -6.27807
3041 3 14.4669 16.2753 9.04181 -6.21546
3414 1 18.0836 14.4669 10.8502 -8.22987
3290 1 14.4669 14.4669 10.8502 -8.18662
3541 3 16.2753 16.2753 10.8502 -6.25282
3791 1 16.2753 14.4669 12.6585 -8.08929
260 1 0 0 14.4669 -8.32022
541 2 1.80836 1.80836 14.4669 -7.07259
792 2 1.80836 0 16.2753 -7.12109
1041 3 0 1.80836 16.2753 -6.59478
1298 2 0 0 18.0836 -7.19215
1293 3 0 3.61672 14.4669 -6.55516
1292 1 3.61672 0 14.4669 -8.11129
1548 3 1.80836 1.80836 18.0836 -6.59205
1793 2 1.80836 3.61672 16.2753 -7.08186
2042 1 3.61672 1.80836 16.2753 -8.10637
2300 3 0 3.61672 18.0836 -6.51164
2298 2 3.61672 0 18.0836 -7.10155
2292 3 3.61672 3.61672 14.4669 -6.5714
3300 1 3.61672 3.61672 18.0836 -7.96358
1542 1 5.42509 1.80836 14.4669 -7.99271
1792 2 5.42509 0 16.2753 -7.13014
2549 2 5.42509 1.80836 18.0836 -7.12471
2792 2 5.42509 3.61672 16.2753 -7.10111
286 1 7.23345 3.61672 18.0836 -7.9665
2291 2 7.23345 0 14.4669 -7.0036
2542 3 9.04181 1.80836 14.4669 -6.61825
2791 1 9.04181 0 16.2753 -8.14461
3042 1 7.23345 1.80836 16.2753 -8.00602
3298 2 7.23345 0 18.0836 -7.14458
3292 1 7.23345 3.61672 14.4669 -8.13772
3549 2 9.04181 1.80836 18.0836 -7.18064
3793 2 9.04181 3.61672 16.2753 -7.0187
262 3 10.8502 3.61672 14.4669 -6.55829
284 2 10.8502 0 18.0836 -7.15845
26 3 10.8502 1.80836 16.2753 -6.5102
502 3 12.6585 1.80836 18.0836 -6.55615
794 1 12.6585 3.61672 16.2753 -8.13499
1302 2 10.8502 3.61672 18.0836 -7.09367
3291 2 10.8502 0 14.4669 -7.0725
3542 3 12.6585 1.80836 14.4669 -6.50614
3792 1 12.6585 0 16.2753 -8.27954
261 3 14.4669 0 14.4669 -6.39226
401 2 18.0836 0 14.4669 -6.97198
542 2 16.2753 1.80836 14.4669 -7.00664
793 1 16.2753 0 16.2753 -8.01185
1151 1 18.0836 1.80836 16.2753 -8.16143
1042 1 14.4669 1.80836 16.2753 -8.1174
1407 1 18.0836 0 18.0836 -8.14815
1402 1 18.0836 3.61672 14.4669 -8.03698
1300 2 14.4669 0 18.0836 -7.04398
1294 3 14.4669 3.61672 14.4669 -6.42084
1550 2 16.2753 1.80836 18.0836 -7.0909
1794 2 16.2753 3.61672 16.2753 -6.98622
2410 3 18.0836 3.61672 18.0836 -6.39374
2302 1 14.4669 3.61672 18.0836 -7.99829
1543 2 1.80836 5.42509 14.4669 -7.09692
2043 2 0 5.42509 16.2753 -7.06267
2551 2 1.80836 5.42509 18.0836 -7.13513
3043 2 3.61672 5.42509 16.2753 -7.14214
2543 1 5.42509 5.42509 14.4669 -8.03877
3551 1 5.42509 5.42509 18.0836 -7.96555
27 2 7.23345 5.42509 16.2753 -7.05501
504 1 9.04181 5.42509 18.0836 -8.12715
3543 3 9.04181 5.42509 14.4669 -6.5636
543 1 12.6585 5.42509 14.4669 -8.1348
1043 1 10.8502 5.42509 16.2753 -8.10584
1552 1 12.6585 5.42509 18.0836 -8.13148
1544 2 16.2753 5.42509 14.4669 -7.02556
2152 1 18.0836 5.42509 16.2753 -8.13632
2044 2 14.4669 5.42509 16.2753 -7.04566
2553 1 16.2753 5.42509 18.0836 -7.94216
288 1 3.61672 7.23345 18.0836 -8.18953
28 2 3.61672 9.04181 16.2753 -7.0153
2293 1 0 7.23345 14.4669 -8.109
2544 2 1.80836 9.04181 14.4669 -7.06703
2793 2 1.80836 7.23345 16.2753 -7.07338
3044 1 0 9.04181 16.2753 -8.06603
3302 2 0 7.23345 18.0836 -7.00124
3293 1 3.61672 7.23345 14.4669 -8.27969
3553 3 1.80836 9.04181 18.0836 -6.42894
506 3 5.42509 9.04181 18.0836 -6.49788
3544 3 5.42509 9.04181 14.4669 -6.55348
3794 2 5.42509 7.23345 16.2753 -7.10561
263 1 7.23345 7.23345 14.4669 -8.33906
544 3 9.04181 9.04181 14.4669 -6.56503
795 2 9.04181 7.23345 16.2753 -7.04201
1044 2 7.23345 9.04181 16.2753 -6.9981
1304 2 7.23345 7.23345 18.0836 -7.11147
1554 2 9.04181 9.04181 18.0836 -7.04181
1295 3 10.8502 7.23345 14.4669 -6.507
1545 2 12.6585 9.04181 14.4669 -7.01116
1795 1 12.6585 7.23345 16.2753 -7.99341
2045 1 10.8502 9.04181 16.2753 -8.42757
2304 3 10.8502 7.23345 18.0836 -6.41774
2555 3 12.6585 9.04181 18.0836 -6.34021
2262 3 18.0836 7.23345 14.4669 -6.63062
2294 1 14.4669 7.23345 14.4669 -7.94655
2545 2 16.2753 9.04181 14.4669 -7.08401
2794 1 16.2753 7.23345 16.2753 -8.05307
3169 2 18.0836 9.04181 16.2753 -7.07095
3045 1 14.4669 9.04181 16.2753 -8.12494
3427 2 18.0836 7.23345 18.0836 -7.20654
3304 2 14.4669 7.23345 18.0836 -7.08545
3555 2 16.2753 9.04181 18.0836 -7.10718
264 1 3.61672 10.8502 14.4669 -8.13025
290 1 0 10.8502 18.0836 -8.1774
29 2 0 12.6585 16.2753 -7.07202
508 2 1.80836 12.6585 18.0836 -7.05722
1045 3 3.61672 12.6585 16.2753 -6.36815
1306 3 3.61672 10.8502 18.0836 -6.46845
3294 2 0 10.8502 14.4669 -6.97823
3545 2 1.80836 12.6585 14.4669 -7.0147
3795 1 1.80836 10.8502 16.2753 -8.19168
545 2 5.42509 12.6585 14.4669 -7.06056
796 1 5.42509 10.8502 16.2753 -8.3633
1556 3 5.42509 12.6585 18.0836 -6.4047
1296 3 7.23345 10.8502 14.4669 -6.56704
1546 3 9.04181 12.6585 14.4669 -6.4877
1796 3 9.04181 10.8502 16.2753 -6.5039
2046 3 7.23345 12.6585 16.2753 -6.49834
2306 1 7.23345 10.8502 18.0836 -8.22108
2557 2 9.04181 12.6585 18.0836 -6.91517
2295 2 10.8502 10.8502 14.4669 -6.95586
2546 3 12.6585 12.6585 14.4669 -6.47779
2795 3 12.6585 10.8502 16.2753 -6.44038
3046 1 10.8502 12.6585 16.2753 -8.23706
3306 3 10.8502 10.8502 18.0836 -6.35835
3557 1 12.6585 12.6585 18.0836 -8.28906
415 3 18.0836 10.8502 18.0836 -6.43923
292 2 14.4669 10.8502 18.0836 -6.9708
154 1 18.0836 12.6585 16.2753 -8.2722
30 3 14.4669 12.6585 16.2753 -6.4539
510 3 16.2753 12.6585 18.0836 -6.32661
3419 3 18.0836 10.8502 14.4669 -6.56894
3295 2 14.4669 10.8502 14.4669 -7.03115
3546 1 16.2753 12.6585 14.4669 -8.08998
3796 1 16.2753 10.8502 16.2753 -8.20121
265 1 0 14.4669 14.4669 -8.09009
346 3 3.61672 18.0836 18.0836 -6.36475
546 1 1.80836 16.2753 14.4669 -7.98669
797 1 1.80836 14.4669 16.2753 -8.09386
1046 2 0 16.2753 16.2753 -7.09692
1308 2 0 14.4669 18.0836 -7.03781
1297 1 3.61672 14.4669 14.4669 -8.16713
1558 2 1.80836 16.2753 18.0836 -6.98705
2047 1 3.61672 16.2753 16.2753 -7.97691
2353 3 0 18.0836 14.4669 -6.30453
2308 1 3.61672 14.4669 18.0836 -8.16067
2853 1 1.80836 18.0836 16.2753 -8.10123
3359 1 0 18.0836 18.0836 -8.01589
3353 2 3.61672 18.0836 14.4669 -6.96257
1547 3 5.42509 16.2753 14.4669 -6.44392
1797 2 5.42509 14.4669 16.2753 -6.90982
2559 3 5.42509 16.2753 18.0836 -6.48895
3854 1 5.42509 18.0836 16.2753 -8.08608
339 2 7.23345 18.0836 14.4669 -7.05212
839 3 9.04181 18.0836 16.2753 -6.42691
1346 2 7.23345 18.0836 18.0836 -7.0872
2296 3 7.23345 14.4669 14.4669 -6.52703
2547 1 9.04181 16.2753 14.4669 -8.04069
2796 1 9.04181 14.4669 16.2753 -8.13462
3047 1 7.23345 16.2753 16.2753 -8.17477
3308 2 7.23345 14.4669 18.0836 -6.96359
3559 2 9.04181 16.2753 18.0836 -6.99993
294 1 10.8502 14.4669 18.0836 -8.01642
31 1 10.8502 16.2753 16.2753 -7.96189
512 1 12.6585 16.2753 18.0836 -8.21501
1261 1 10.8502 18.0836 14.4669 -7.86536
1855 1 12.6585 18.0836 16.2753 -7.93534
2361 3 10.8502 18.0836 18.0836 -6.33181
3296 2 10.8502 14.4669 14.4669 -7.01703
3547 2 12.6585 16.2753 14.4669 -7.02366
3797 2 12.6585 14.4669 16.2753 -6.98199
266 3 14.4669 14.4669 14.4669 -6.41007
406 1 18.0836 14.4669 14.4669 -8.02486
547 2 16.2753 16.2753 14.4669 -6.91071
798 3 16.2753 14.4669 16.2753 -6.4246
1156 1 18.0836 16.2753 16.2753 -8.36858
1047 3 14.4669 16.2753 16.2753 -6.47111
1417 3 18.0836 14.4669 18.0836 -6.35007
1310 3 14.4669 14.4669 18.0836 -6.42235
1560 3 16.2753 16.2753 18.0836 -6.47202
2463 2 18.0836 18.0836 14.4669 -6.86496
2354 1 14.4669 18.0836 14.4669 -8.22207
2854 3 16.2753 18.0836 16.2753 -6.39816
3469 3 18.0836 18.0836 18.0836 -6.39744
3361 2 14.4669 18.0836 18.0836 -7.00826
285 3 3.61672 3.61672 21.7003 -6.61245
1798 2 1.80836 0 19.892 -7.13266
2048 2 0 1.80836 19.892 -7.0768
2297 2 0 0 21.7003 -7.01245
2548 2 1.80836 1.80836 21.7003 -7.01002
2798 1 1.80836 3.61672 19.892 -8.25172
3048 3 3.61672 1.80836 19.892 -6.52994
3299 1 0 3.61672 21.7003 -7.98628
3297 1 3.61672 0 21.7003 -8.23793
2797 3 5.42509 0 19.892 -6.53941
3548 2 5.42509 1.80836 21.7003 -7.00642
3799 1 5.42509 3.61672 19.892 -8.03502
501 2 9.04181 1.80836 21.7003 -7.04097
32 2 7.23345 1.80836 19.892 -7.11888
283 1 7.23345 0 21.7003 -8.27047
800 2 9.04181 3.61672 19.892 -7.15686
1301 1 7.23345 3.61672 21.7003 -8.04144
3798 2 9.04181 0 19.892 -7.161
799 3 12.6585 0 19.892 -6.53781
1048 2 10.8502 1.80836 19.892 -7.17853
1299 1 10.8502 0 21.7003 -8.19778
1549 1 12.6585 1.80836 21.7003 -8.14348
1800 2 12.6585 3.61672 19.892 -7.01029
2301 3 10.8502 3.61672 21.7003 -6.52698
1799 2 16.2753 0 19.892 -7.02051
2157 2 18.0836 1.80836 19.892 -6.96139
2049 2 14.4669 1.80836 19.892 -7.06544
2407 3 18.0836 0 21.7003 -6.40533
2299 2 14.4669 0 21.7003 -6.9764
2550 1 16.2753 1.80836 21.7003 -8.10944
2799 1 16.2753 3.61672 19.892 -8.08764
3424 1 18.0836 3.61672 21.7003 -8.02413
3301 3 14.4669 3.61672 21.7003 -6.41314
33 2 3.61672 5.42509 19.892 -7.13404
3049 3 0 5.42509 19.892 -6.36205
3550 2 1.80836 5.42509 21.7003 -7.09155
503 2 5.42509 5.42509 21.7003 -7.15507
1049 1 7.23345 5.42509 19.892 -7.92148
1551 1 9.04181 5.42509 21.7003 -8.16662
2050 3 10.8502 5.42509 19.892 -6.53442
2552 2 12.6585 5.42509 21.7003 -7.07313
3174 1 18.0836 5.42509 19.892 -8.01666
3050 3 14.4669 5.42509 19.892 -6.46261
3552 3 16.2753 5.42509 21.7003 -6.38098
505 2 1.80836 9.04181 21.7003 -7.02612
34 2 0 9.04181 19.892 -7.03206
287 1 0 7.23345 21.7003 -8.05304
1050 3 3.61672 9.04181 19.892 -6.46114
1303 2 3.61672 7.23345 21.7003 -7.12552
3800 1 1.80836 7.23345 19.892 -8.23579
801 2 5.42509 7.23345 19.892 -7.08956
1553 1 5.42509 9.04181 21.7003 -8.14321
1801 2 9.04181 7.23345 19.892 -7.03702
2051 1 7.23345 9.04181 19.892 -8.11563
2303 2 7.23345 7.23345 21.7003 -7.09877
2554 2 9.04181 9.04181 21.7003 -6.96293
2800 2 12.6585 7.23345 19.892 -7.03113
3051 1 10.8502 9.04181 19.892 -8.34756
3303 3 10.8502 7.23345 21.7003 -6.58006
3554 2 12.6585 9.04181 21.7003 -7.06728
507 2 16.2753 9.04181 21.7003 -7.08937
159 2 18.0836 9.04181 19.892 -7.01268
35 1 14.4669 9.04181 19.892 -8.18771
412 2 18.0836 7.23345 21.7003 -7.07714
289 2 14.4669 7.23345 21.7003 -7.10691
3801 1 16.2753 7.23345 19.892 -8.11727
802 3 1.80836 10.8502 19.892 -6.45558
1051 1 0 12.6585 19.892 -8.21379
1305 3 0 10.8502 21.7003 -6.53665
1555 2 1.80836 12.6585 21.7003 -6.94813
2052 1 3.61672 12.6585 19.892 -8.23374
2305 1 3.61672 10.8502 21.7003 -8.03441
1802 2 5.42509 10.8502 19.892 -6.88256
2556 2 5.42509 12.6585 21.7003 -6.92113
2801 1 9.04181 10.8502 19.892 -8.13097
3052 3 7.23345 12.6585 19.892 -6.46093
3305 3 7.23345 10.8502 21.7003 -6.30894
3556 1 9.04181 12.6585 21.7003 -8.31924
509 3 12.6585 12.6585 21.7003 -6.44558
36 3 10.8502 12.6585 19.892 -6.3801
291 2 10.8502 10.8502 21.7003 -6.99494
3802 3 12.6585 10.8502 19.892 -6.41407
803 1 16.2753 10.8502 19.892 -8.12581
1161 1 18.0836 12.6585 19.892 -8.29808
1052 1 14.4669 12.6585 19.892 -8.19562
1414 3 18.0836 10.8502 21.7003 -6.46613
1307 1 14.4669 10.8502 21.7003 -8.19305
1557 2 16.2753 12.6585 21.7003 -6.95379
345 2 0 18.0836 21.7003 -6.98471
1345 2 3.61672 18.0836 21.7003 -6.96079
1803 1 1.80836 14.4669 19.892 -8.04132
2053 2 0 16.2753 19.892 -7.02151
2307 3 0 14.4669 21.7003 -6.43679
2558 1 1.80836 16.2753 21.7003 -8.42869
3053 3 3.61672 16.2753 19.892 -6.44726
3307 3 3.61672 14.4669 21.7003 -6.40314
3860 3 1.80836 18.0836 19.892 -6.42087
845 2 5.42509 18.0836 19.892 -6.9631
2802 3 5.42509 14.4669 19.892 -6.48436
3558 1 5.42509 16.2753 21.7003 -8.5012
511 2 9.04181 16.2753 21.7003 -6.8824
37 3 7.23345 16.2753 19.892 -6.58595
293 3 7.23345 14.4669 21.7003 -6.37674
1861 3 9.04181 18.0836 19.892 -6.62334
2360 3 7.23345 18.0836 21.7003 -6.55671
3803 1 9.04181 14.4669 19.892 -8.31017
804 3 12.6585 14.4669 19.892 -6.31359
1053 3 10.8502 16.2753 19.892 -6.38623
1309 3 10.8502 14.4669 21.7003 -6.4003
1559 1 12.6585 16.2753 21.7003 -8.27991
2860 1 12.6585 18.0836 19.892 -8.06834
3360 2 10.8502 18.0836 21.7003 -7.01339
470 2 18.0836 18.0836 21.7003 -6.94571
347 3 14.4669 18.0836 21.7003 -6.41555
1804 3 16.2753 14.4669 19.892 -6.36573
2162 1 18.0836 16.2753 19.892 -8.48211
2054 2 14.4669 16.2753 19.892 -6.90536
2417 1 18.0836 14.4669 21.7003 -8.3926