ITEM: TIMESTEP
0
ITEM: NUMBER OF ATOMS
4000
ITEM: BOX BOUNDS pp pp pp
0.0000000000000000e+00 3.6167240000000000e+01
0.0000000000000000e+00 3.6167240000000000e+01
0.0000000000000000e+00 3.6167240000000000e+01
ITEM: ATOMS id type x y z c_peratom
267 2 0 0 0 -7.01989
516 2 1.80836 1.80836 0 -7.09038
767 2 1.80836 0 1.80836 -7.04404
1016 2 0 1.80836 1.80836 -7.08301
1267 3 0 0 3.61672 -6.47529
1268 1 3.61672 0 0 -8.33303
1270 2 0 3.61672 0 -7.11637
1517 3 1.80836 1.80836 3.61672 -6.55833
1768 2 1.80836 3.61672 1.80836 -6.99748
2017 3 3.61672 1.80836 1.80836 -6.62338
2266 3 3.61672 0 3.61672 -6.52832
2268 3 0 3.61672 3.61672 -6.59447
2269 3 3.61672 3.61672 0 -6.41688
3268 3 3.61672 3.61672 3.61672 -6.51637
1518 3 5.42509 1.80836 0 -6.39411
1767 3 5.42509 0 1.80836 -6.4809
2517 2 5.42509 1.80836 3.61672 -6.99469
2767 2 5.42509 3.61672 1.80836 -7.04024
270 2 7.23345 3.61672 3.61672 -7.14275
2267 1 7.23345 0 0 -8.18403
2518 1 9.04181 1.80836 0 -7.90222
2766 1 9.04181 0 1.80836 -7.91552
3017 1 7.23345 1.80836 1.80836 -8.09619
3266 2 7.23345 0 3.61672 -7.04349
3269 2 7.23345 3.61672 0 -6.96661
3517 1 9.04181 1.80836 3.61672 -7.95397
3768 1 9.04181 3.61672 1.80836 -8.0331
1 2 10.8502 1.80836 1.80836 -7.15575
268 2 10.8502 0 3.61672 -7.15113
271 1 10.8502 3.61672 0 -8.04747
517 3 12.6585 1.80836 3.61672 -6.66754
769 2 12.6585 3.61672 1.80836 -7.00853
1271 2 10.8502 3.61672 3.61672 -7.08334
3267 1 10.8502 0 0 -8.06243
3518 3 12.6585 1.80836 0 -6.45955
3767 2 12.6585 0 1.80836 -7.07699
269 1 14.4669 0 0 -8.26539
376 2 18.0836 0 0 -7.07836
518 3 16.2753 1.80836 0 -6.57847
768 2 16.2753 0 1.80836 -7.04113
1017 3 14.4669 1.80836 1.80836 -6.53097
1126 2 18.0836 1.80836 1.80836 -7.12812
1379 2 18.0836 3.61672 0 -7.03129
1376 1 18.0836 0 3.61672 -8.3249
1269 2 14.4669 0 3.61672 -7.09259
1272 2 14.4669 3.61672 0 -6.90308
1519 2 16.2753 1.80836 3.61672 -7.11215
1769 1 16.2753 3.61672 1.80836 -8.23441
2270 1 14.4669 3.61672 3.61672 -8.0475
2393 1 18.0836 3.61672 3.61672 -8.10121
1520 2 1.80836 5.42509 0 -6.95315
2018 3 0 5.42509 1.80836 -6.54452
2519 1 1.80836 5.42509 3.61672 -8.13808
3018 1 3.61672 5.42509 1.80836 -8.10573
2520 1 5.42509 5.42509 0 -8.12725
3519 2 5.42509 5.42509 3.61672 -7.10727
2 2 7.23345 5.42509 1.80836 -7.13197
519 2 9.04181 5.42509 3.61672 -7.06296
3520 1 9.04181 5.42509 0 -8.31771
520 1 12.6585 5.42509 0 -8.36378
1018 3 10.8502 5.42509 1.80836 -6.4002
1521 1 12.6585 5.42509 3.61672 -8.16771
1522 3 16.2753 5.42509 0 -6.54869
2002 2 18.0836 5.42509 1.80836 -6.96577
2019 2 14.4669 5.42509 1.80836 -7.0294
2521 1 16.2753 5.42509 3.61672 -8.24569
3 3 3.61672 9.04181 1.80836 -6.39975
272 1 3.61672 7.23345 3.61672 -7.98159
2271 3 0 7.23345 0 -6.53284
2522 2 1.80836 9.04181 0 -7.04038
2768 1 1.80836 7.23345 1.80836 -8.15178
3019 2 0 9.04181 1.80836 -7.04935
3271 3 3.61672 7.23345 0 -6.44755
3270 1 0 7.23345 3.61672 -8.06484
3521 1 1.80836 9.04181 3.61672 -8.02255
521 1 5.42509 9.04181 3.61672 -8.12068
3522 2 5.42509 9.04181 0 -7.01025
3769 2 5.42509 7.23345 1.80836 -7.0046
273 2 7.23345 7.23345 0 -7.05997
522 2 9.04181 9.04181 0 -7.02233
770 2 9.04181 7.23345 1.80836 -7.05234
1019 1 7.23345 9.04181 1.80836 -8.16241
1273 3 7.23345 7.23345 3.61672 -6.68555
1523 3 9.04181 9.04181 3.61672 -6.54531
1274 3 10.8502 7.23345 0 -6.54792
1524 2 12.6585 9.04181 0 -6.91871
1770 3 12.6585 7.23345 1.80836 -6.43569
2020 3 10.8502 9.04181 1.80836 -6.43795
2272 1 10.8502 7.23345 3.61672 -8.22957
2523 1 12.6585 9.04181 3.61672 -8.24913
2273 2 14.4669 7.23345 0 -7.00411
2396 3 18.0836 7.23345 0 -6.54986
2524 2 16.2753 9.04181 0 -6.98557
2769 3 16.2753 7.23345 1.80836 -6.62782
3144 2 18.0836 9.04181 1.80836 -7.04733
3020 3 14.4669 9.04181 1.80836 -6.54935
3395 3 18.0836 7.23345 3.61672 -6.54131
3272 3 14.4669 7.23345 3.61672 -6.42727
3523 3 16.2753 9.04181 3.61672 -6.58392
4 2 0 12.6585 1.80836 -7.09786
274 2 0 10.8502 3.61672 -7.05273
275 2 3.61672 10.8502 0 -7.06385
523 1 1.80836 12.6585 3.61672 -8.0555
1020 1 3.61672 12.6585 1.80836 -7.97483
1275 2 3.61672 10.8502 3.61672 -7.11187
3273 3 0 10.8502 0 -6.5929
3524 1 1.80836 12.6585 0 -8.23832
3770 1 1.80836 10.8502 1.80836 -8.14108
524 3 5.42509 12.6585 0 -6.41609
771 1 5.42509 10.8502 1.80836 -8.05129
1525 1 5.42509 12.6585 3.61672 -8.03873
1276 1 7.23345 10.8502 0 -8.16163
1526 1 9.04181 12.6585 0 -8.13625
1771 2 9.04181 10.8502 1.80836 -7.06708
2021 2 7.23345 12.6585 1.80836 -6.99622
2274 2 7.23345 10.8502 3.61672 -7.03051
2525 1 9.04181 12.6585 3.61672 -8.26274
2275 1 10.8502 10.8502 0 -8.17866
2526 2 12.6585 12.6585 0 -7.04308
2770 3 12.6585 10.8502 1.80836 -6.3358
3021 1 10.8502 12.6585 1.80836 -7.94801
3274 1 10.8502 10.8502 3.61672 -8.18233
3525 1 12.6585 12.6585 3.61672 -8.13863
5 1 14.4669 12.6585 1.80836 -8.15313
129 3 18.0836 12.6585 1.80836 -6.61243
383 3 18.0836 10.8502 3.61672 -6.59156
276 2 14.4669 10.8502 3.61672 -7.01515
525 2 16.2753 12.6585 3.61672 -7.04335
3398 3 18.0836 10.8502 0 -6.52843
3275 1 14.4669 10.8502 0 -8.19727
3526 1 16.2753 12.6585 0 -8.29678
3771 2 16.2753 10.8502 1.80836 -7.04637
314 1 3.61672 18.0836 3.61672 -8.17102
277 2 0 14.4669 0 -7.07836
526 3 1.80836 16.2753 0 -6.53373
772 2 1.80836 14.4669 1.80836 -7.06249
1021 2 0 16.2753 1.80836 -7.00723
1278 3 3.61672 14.4669 0 -6.35071
1277 1 0 14.4669 3.61672 -8.19034
1527 2 1.80836 16.2753 3.61672 -7.06408
2022 1 3.61672 16.2753 1.80836 -8.15939
2328 3 0 18.0836 0 -6.53095
2276 3 3.61672 14.4669 3.61672 -6.31135
2828 3 1.80836 18.0836 1.80836 -6.56443
3329 1 3.61672 18.0836 0 -8.23498
3328 2 0 18.0836 3.61672 -7.06466
1528 1 5.42509 16.2753 0 -8.15173
1772 1 5.42509 14.4669 1.80836 -8.07116
2527 2 5.42509 16.2753 3.61672 -6.96221
3829 3 5.42509 18.0836 1.80836 -6.45263
315 3 7.23345 18.0836 0 -6.56891
814 2 9.04181 18.0836 1.80836 -7.01718
1330 3 7.23345 18.0836 3.61672 -6.51947
2277 2 7.23345 14.4669 0 -6.99948
2528 1 9.04181 16.2753 0 -8.2472
2771 3 9.04181 14.4669 1.80836 -6.2869
3022 1 7.23345 16.2753 1.80836 -8.21538
3276 3 7.23345 14.4669 3.61672 -6.36826
3527 1 9.04181 16.2753 3.61672 -8.32789
6 2 10.8502 16.2753 1.80836 -6.99165
278 1 10.8502 14.4669 3.61672 -8.16451
527 3 12.6585 16.2753 3.61672 -6.55748
1331 2 10.8502 18.0836 0 -7.12259
1830 3 12.6585 18.0836 1.80836 -6.67637
2329 3 10.8502 18.0836 3.61672 -6.49976
3277 1 10.8502 14.4669 0 -8.0332
3528 3 12.6585 16.2753 0 -6.61175
3772 2 12.6585 14.4669 1.80836 -7.06527
386 2 18.0836 14.4669 0 -7.02702
279 3 14.4669 14.4669 0 -6.44964
528 3 16.2753 16.2753 0 -6.50172
773 2 16.2753 14.4669 1.80836 -6.99718
1131 2 18.0836 16.2753 1.80836 -7.03167
1022 3 14.4669 16.2753 1.80836 -6.59596
1386 2 18.0836 14.4669 3.61672 -7.06051
1279 2 14.4669 14.4669 3.61672 -7.03452
1529 1 16.2753 16.2753 3.61672 -8.15141
2438 3 18.0836 18.0836 0 -6.38068
2330 2 14.4669 18.0836 0 -6.98836
2829 1 16.2753 18.0836 1.80836 -8.19064
3453 2 18.0836 18.0836 3.61672 -7.08216
3330 2 14.4669 18.0836 3.61672 -6.9668
775 2 0 3.61672 7.23345 -7.06313
1280 1 3.61672 3.61672 7.23345 -8.12154
1773 2 1.80836 0 5.42509 -6.91212
2023 3 0 1.80836 5.42509 -6.47701
2278 2 0 0 7.23345 -7.04461
2529 1 1.80836 1.80836 7.23345 -7.99257
2774 1 1.80836 3.61672 5.42509 -8.21412
2773 2 3.61672 0 7.23345 -7.03513
3023 1 3.61672 1.80836 5.42509 -8.14403
2772 1 5.42509 0 5.42509 -8.30463
3024 3 5.42509 1.80836 7.23345 -6.35027
3775 3 5.42509 3.61672 5.42509 -6.53096
7 3 7.23345 1.80836 5.42509 -6.46939
776 1 9.04181 3.61672 5.42509 -8.15138
1775 1 7.23345 3.61672 7.23345 -8.21352
3278 2 7.23345 0 7.23345 -7.06422
3529 2 9.04181 1.80836 7.23345 -7.12034
3773 1 9.04181 0 5.42509 -8.11121
8 2 12.6585 1.80836 7.23345 -7.19138
774 2 12.6585 0 5.42509 -7.1143
1023 2 10.8502 1.80836 5.42509 -7.19876
1776 2 12.6585 3.61672 5.42509 -7.08481
2279 2 10.8502 3.61672 7.23345 -7.14091
3774 2 10.8502 0 7.23345 -7.26117
280 3 14.4669 0 7.23345 -6.64595
529 3 16.2753 1.80836 7.23345 -6.64462
884 2 18.0836 3.61672 7.23345 -7.02007
1774 2 16.2753 0 5.42509 -7.10197
2024 1 14.4669 1.80836 5.42509 -8.29995
2007 2 18.0836 1.80836 5.42509 -7.08149
2403 3 18.0836 0 7.23345 -6.63617
2776 3 14.4669 3.61672 7.23345 -6.53086
2775 2 16.2753 3.61672 5.42509 -7.04296
9 2 3.61672 5.42509 5.42509 -6.99645
1024 2 1.80836 5.42509 7.23345 -7.05362
3025 3 0 5.42509 5.42509 -6.48314
1530 3 5.42509 5.42509 7.23345 -6.6191
1025 2 7.23345 5.42509 5.42509 -7.08107
2025 3 9.04181 5.42509 7.23345 -6.61097
2026 2 10.8502 5.42509 5.42509 -7.12067
2530 1 12.6585 5.42509 7.23345 -8.17663
3150 3 18.0836 5.42509 5.42509 -6.48616
3027 1 16.2753 5.42509 7.23345 -8.389
3026 2 14.4669 5.42509 5.42509 -6.99935
10 1 0 9.04181 5.42509 -7.93196
1026 2 3.61672 9.04181 5.42509 -7.07592
3279 1 0 7.23345 7.23345 -8.12504
3530 2 1.80836 9.04181 7.23345 -7.07628
3777 3 3.61672 7.23345 7.23345 -6.71759
3776 3 1.80836 7.23345 5.42509 -6.39657
11 3 5.42509 9.04181 7.23345 -6.65191
777 2 5.42509 7.23345 5.42509 -7.1175
281 3 7.23345 7.23345 7.23345 -6.75804
530 2 9.04181 9.04181 7.23345 -7.10065
1777 3 9.04181 7.23345 5.42509 -6.68503
2027 2 7.23345 9.04181 5.42509 -7.06169
778 2 10.8502 7.23345 7.23345 -7.08976
1027 3 12.6585 9.04181 7.23345 -6.66001
2777 1 12.6585 7.23345 5.42509 -8.13451
3028 2 10.8502 9.04181 5.42509 -7.03235
12 3 14.4669 9.04181 5.42509 -6.40768
135 1 18.0836 9.04181 5.42509 -8.26882
1281 2 14.4669 7.23345 7.23345 -7.02869
1531 1 16.2753 9.04181 7.23345 -8.16426
3404 2 18.0836 7.23345 7.23345 -6.95167
3778 3 16.2753 7.23345 5.42509 -6.42134
779 2 1.80836 10.8502 5.42509 -7.08707
1028 3 0 12.6585 5.42509 -6.39895
1778 1 0 10.8502 7.23345 -8.05758
2029 1 3.61672 12.6585 5.42509 -7.92955
2028 2 1.80836 12.6585 7.23345 -7.04527
2280 1 3.61672 10.8502 7.23345 -8.22681
1779 2 5.42509 10.8502 5.42509 -7.06921
2531 2 5.42509 12.6585 7.23345 -6.96085
2779 1 7.23345 10.8502 7.23345 -8.39554
2778 3 9.04181 10.8502 5.42509 -6.47451
3030 2 9.04181 12.6585 7.23345 -6.98349
3029 3 7.23345 12.6585 5.42509 -6.44429
13 3 10.8502 12.6585 5.42509 -6.38065
3280 1 10.8502 10.8502 7.23345 -8.29533
3531 1 12.6585 12.6585 7.23345 -8.41525
3779 2 12.6585 10.8502 5.42509 -6.99218
14 2 16.2753 12.6585 7.23345 -6.91369
780 1 16.2753 10.8502 5.42509 -8.35525
1138 3 18.0836 12.6585 5.42509 -6.44759
1029 2 14.4669 12.6585 5.42509 -7.0798
1887 3 18.0836 10.8502 7.23345 -6.38231
3780 3 14.4669 10.8502 7.23345 -6.50334
326 2 0 18.0836 7.23345 -7.07406
282 2 0 14.4669 7.23345 -7.04935
531 2 1.80836 16.2753 7.23345 -6.99555
821 3 3.61672 18.0836 7.23345 -6.39332
781 1 3.61672 14.4669 7.23345 -8.25603
1780 2 1.80836 14.4669 5.42509 -7.06957
2030 1 0 16.2753 5.42509 -8.06412
3031 1 3.61672 16.2753 5.42509 -8.13628
3835 1 1.80836 18.0836 5.42509 -8.03955
820 2 5.42509 18.0836 5.42509 -6.98779
1030 3 5.42509 16.2753 7.23345 -6.37836
2780 1 5.42509 14.4669 5.42509 -8.07426
15 2 7.23345 16.2753 5.42509 -7.03315
1342 1 7.23345 18.0836 7.23345 -8.22738
1282 1 7.23345 14.4669 7.23345 -8.25207
1532 2 9.04181 16.2753 7.23345 -7.01462
1836 3 9.04181 18.0836 5.42509 -6.43439
3781 2 9.04181 14.4669 5.42509 -6.96958
782 3 12.6585 14.4669 5.42509 -6.52787
1031 3 10.8502 16.2753 5.42509 -6.52111
1837 2 10.8502 18.0836 7.23345 -7.01739
1781 3 10.8502 14.4669 7.23345 -6.617
2031 2 12.6585 16.2753 7.23345 -7.05158
2835 1 12.6585 18.0836 5.42509 -8.39947
451 3 18.0836 18.0836 7.23345 -6.4732
391 1 18.0836 14.4669 7.23345 -8.29999
1782 1 16.2753 14.4669 5.42509 -8.24387
2032 3 14.4669 16.2753 5.42509 -6.52042
2014 2 18.0836 16.2753 5.42509 -7.03379
2341 2 14.4669 18.0836 7.23345 -6.95699
2281 2 14.4669 14.4669 7.23345 -6.98531
2532 3 16.2753 16.2753 7.23345 -6.48723
3836 1 16.2753 18.0836 5.42509 -8.26495
251 3 3.61672 0 10.8502 -6.48766
253 2 0 3.61672 10.8502 -6.978
16 1 0 1.80836 12.6585 -8.18351
785 2 1.80836 3.61672 12.6585 -7.09477
1032 3 3.61672 1.80836 12.6585 -6.63169
1285 2 3.61672 3.61672 10.8502 -7.12659
1284 1 1.80836 3.61672 9.04181 -8.10262
2781 2 1.80836 0 9.04181 -6.98977
3032 1 0 1.80836 9.04181 -8.01965
3281 1 0 0 10.8502 -8.20194
3533 1 3.61672 1.80836 9.04181 -8.10504
3532 3 1.80836 1.80836 10.8502 -6.49522
3782 2 1.80836 0 12.6585 -7.02975
532 2 5.42509 1.80836 10.8502 -7.0668
783 1 5.42509 0 12.6585 -8.22511
1785 2 5.42509 3.61672 12.6585 -7.13381
1784 2 5.42509 3.61672 9.04181 -7.01301
3282 1 5.42509 0 9.04181 -8.25219
17 1 7.23345 1.80836 9.04181 -8.01299
1283 1 7.23345 0 10.8502 -7.95295
1533 1 9.04181 1.80836 10.8502 -7.85699
1783 2 9.04181 0 12.6585 -7.0943
2033 2 7.23345 1.80836 12.6585 -7.0624
2284 3 7.23345 3.61672 10.8502 -6.57073
2283 1 9.04181 3.61672 9.04181 -8.16718
2783 1 9.04181 3.61672 12.6585 -8.2338
3783 2 9.04181 0 9.04181 -7.13928
252 2 12.6585 0 9.04181 -7.13531
533 2 10.8502 1.80836 9.04181 -7.15346
2282 1 10.8502 0 10.8502 -8.02946
2533 3 12.6585 1.80836 10.8502 -6.48816
2784 1 12.6585 3.61672 9.04181 -8.13739
2782 1 12.6585 0 12.6585 -8.0218
3033 1 10.8502 1.80836 12.6585 -8.14083
3284 2 10.8502 3.61672 10.8502 -6.98511
3785 3 12.6585 3.61672 12.6585 -6.57766
254 1 14.4669 3.61672 10.8502 -8.22185
394 1 18.0836 3.61672 10.8502 -8.15766
141 2 18.0836 1.80836 12.6585 -7.17494
18 2 14.4669 1.80836 12.6585 -7.10577
786 2 16.2753 3.61672 12.6585 -7.11971
784 3 16.2753 0 9.04181 -6.69613
1033 2 14.4669 1.80836 9.04181 -7.05194
3157 2 18.0836 1.80836 9.04181 -7.07329
3406 2 18.0836 0 10.8502 -7.11218
3285 3 16.2753 3.61672 9.04181 -6.51626
3283 2 14.4669 0 10.8502 -6.99643
3534 2 16.2753 1.80836 10.8502 -7.13408
3784 3 16.2753 0 12.6585 -6.6528
534 3 1.80836 5.42509 10.8502 -6.53527
1034 3 0 5.42509 12.6585 -6.53527
1534 1 0 5.42509 9.04181 -8.12654
2035 2 3.61672 5.42509 12.6585 -7.12488
2034 2 3.61672 5.42509 9.04181 -7.06866
1535 2 5.42509 5.42509 10.8502 -7.18511
2535 2 9.04181 5.42509 10.8502 -7.01063
2534 3 7.23345 5.42509 9.04181 -6.52692
3034 2 7.23345 5.42509 12.6585 -7.09985
19 3 10.8502 5.42509 12.6585 -6.55902
3035 2 10.8502 5.42509 9.04181 -7.12418
3535 1 12.6585 5.42509 10.8502 -8.21033
535 1 16.2753 5.42509 10.8502 -8.21135
1144 2 18.0836 5.42509 12.6585 -7.11434
1035 3 14.4669 5.42509 12.6585 -6.49405
1643 1 18.0836 5.42509 9.04181 -8.10267
3536 3 14.4669 5.42509 9.04181 -6.38802
20 1 0 9.04181 9.04181 -7.99855
536 3 3.61672 9.04181 9.04181 -6.46491
1286 1 0 7.23345 10.8502 -8.21357
1536 1 1.80836 9.04181 10.8502 -8.12722
1786 3 1.80836 7.23345 12.6585 -6.49026
2036 3 0 9.04181 12.6585 -6.37831
2285 1 3.61672 7.23345 10.8502 -8.21931
3036 2 3.61672 9.04181 12.6585 -7.03621
3786 2 1.80836 7.23345 9.04181 -7.02753
255 2 5.42509 7.23345 9.04181 -7.0652
2536 2 5.42509 9.04181 10.8502 -7.00409
2785 1 5.42509 7.23345 12.6585 -8.02778
21 1 7.23345 9.04181 12.6585 -8.07435
787 3 9.04181 7.23345 9.04181 -6.61867
1036 2 7.23345 9.04181 9.04181 -7.0337
3286 1 7.23345 7.23345 10.8502 -8.11546
3537 1 9.04181 9.04181 10.8502 -8.16086
3787 2 9.04181 7.23345 12.6585 -7.03715
256 1 10.8502 7.23345 10.8502 -8.24819
537 3 12.6585 9.04181 10.8502 -6.74041
788 3 12.6585 7.23345 12.6585 -6.60654
1037 2 10.8502 9.04181 12.6585 -7.00819
1287 2 12.6585 7.23345 9.04181 -7.08728
1537 2 10.8502 9.04181 9.04181 -7.10253
145 1 18.0836 9.04181 9.04181 -8.13141
1395 2 18.0836 7.23345 10.8502 -7.00403
1288 2 14.4669 7.23345 10.8502 -6.96457
1538 3 16.2753 9.04181 10.8502 -6.6163
1788 3 16.2753 7.23345 12.6585 -6.58076
1787 3 16.2753 7.23345 9.04181 -6.46173
2145 3 18.0836 9.04181 12.6585 -6.67073
2038 3 14.4669 9.04181 12.6585 -6.68934
2037 2 14.4669 9.04181 9.04181 -7.09289
22 3 3.61672 12.6585 12.6585 -6.42475
2287 2 0 10.8502 10.8502 -6.91534
2286 1 1.80836 10.8502 9.04181 -8.00566
2538 2 1.80836 12.6585 10.8502 -6.96662
2537 2 0 12.6585 9.04181 -7.03906
2786 3 1.80836 10.8502 12.6585 -6.32866
3038 3 3.61672 12.6585 9.04181 -6.44716
3037 1 0 12.6585 12.6585 -8.18513
3287 1 3.61672 10.8502 10.8502 -8.21699
2787 3 5.42509 10.8502 9.04181 -6.46062
3538 1 5.42509 12.6585 10.8502 -8.37108
3788 2 5.42509 10.8502 12.6585 -7.02824
257 3 7.23345 10.8502 10.8502 -6.51272
538 1 9.04181 12.6585 10.8502 -8.24362
789 2 9.04181 10.8502 12.6585 -7.01437
1038 2 7.23345 12.6585 12.6585 -7.01542
3288 2 9.04181 10.8502 9.04181 -7.0982
3539 2 7.23345 12.6585 9.04181 -7.06944
23 2 10.8502 12.6585 9.04181 -7.0463
1289 3 10.8502 10.8502 10.8502 -6.68003
1539 2 12.6585 12.6585 10.8502 -7.08349
1789 2 12.6585 10.8502 12.6585 -7.07348
2039 3 10.8502 12.6585 12.6585 -6.46176
3789 2 12.6585 10.8502 9.04181 -7.08837
258 1 16.2753 10.8502 9.04181 -8.29781
539 3 14.4669 12.6585 9.04181 -6.61263
2256 2 18.0836 10.8502 10.8502 -7.01797
2288 2 14.4669 10.8502 10.8502 -7.09964
2662 3 18.0836 12.6585 9.04181 -6.45195
2539 2 16.2753 12.6585 10.8502 -7.00972
2788 1 16.2753 10.8502 12.6585 -8.44642
3162 2 18.0836 12.6585 12.6585 -7.05613
3039 2 14.4669 12.6585 12.6585 -7.06052
259 2 3.61672 14.4669 10.8502 -6.9373
24 1 0 16.2753 12.6585 -8.44017
829 3 1.80836 18.0836 9.04181 -6.40956
790 3 1.80836 14.4669 9.04181 -6.57682
1040 1 3.61672 16.2753 12.6585 -8.28465
1039 1 0 16.2753 9.04181 -8.26977
1251 2 0 18.0836 10.8502 -7.06407
1540 3 3.61672 16.2753 9.04181 -6.48829
1845 2 1.80836 18.0836 12.6585 -7.0374
2344 1 3.61672 18.0836 10.8502 -8.2186
3289 3 0 14.4669 10.8502 -6.47104
3540 3 1.80836 16.2753 10.8502 -6.49528
3790 2 1.80836 14.4669 12.6585 -6.98142
540 2 5.42509 16.2753 10.8502 -6.89656
791 3 5.42509 14.4669 12.6585 -6.3942
1252 3 5.42509 18.0836 9.04181 -6.3144
1290 3 5.42509 14.4669 9.04181 -6.42172
2844 2 5.42509 18.0836 12.6585 -6.99215
1291 1 7.23345 14.4669 10.8502 -8.15818
1541 2 9.04181 16.2753 10.8502 -6.99326
1846 1 9.04181 18.0836 9.04181 -8.14226
1791 1 9.04181 14.4669 12.6585 -8.22932
1790 1 9.04181 14.4669 9.04181 -8.17292
2041 3 7.23345 16.2753 12.6585 -6.38412
2040 3 7.23345 16.2753 9.04181 -6.33845
3344 1 7.23345 18.0836 10.8502 -8.28848
3845 2 9.04181 18.0836 12.6585 -6.94682
330 3 10.8502 18.0836 10.8502 -6.51087
830 1 12.6585 18.0836 12.6585 -8.27532
2345 2 12.6585 18.0836 9.04181 -7.04786
2290 3 10.8502 14.4669 10.8502 -6.53647
2289 3 12.6585 14.4669 9.04181 -6.65428
2541 2 12.6585 16.2753 10.8502 -6.99808
2540 2 10.8502 16.2753 9.04181 -7.12601
2789 1 12.6585 14.4669 12.6585 -8.22082
3040 2 10.8502 16.2753 12.6585 -7.0846
149 2 18.0836 16.2753 12.6585 -6.99855
25 1 14.4669 16.2753 12.6585 -8.22356
1149 3 18.0836 16.2753 9.04181 -6.44878
1253 3 14.4669 18.0836 10.8502 -6.55916
1454 3 18.0836 18.0836 10.8502 -6.60691
1847 2 16.2753 18.0836 12.6585 -7.00595
2845 3 16.2753 18.0836 9.04181 -6.54201
2790 3 16.2753 14.4669 9.04181 -6.56157
3041 1 14.4669 16.2753 9.04181 -8.48977
3414 3 18.0836 14.4669 10.8502 -6.50911
3290 3 14.4669 14.4669 10.8502 -6.54233
3541 3 16.2753 16.2753 10.8502 -6.51604
3791 1 16.2753 14.4669 12.6585 -8.2713
260 1 0 0 14.4669 -8.31318
541 3 1.80836 1.80836 14.4669 -6.53232
792 3 1.80836 0 16.2753 -6.55695
1041 3 0 1.80836 16.2753 -6.59144
1298 2 0 0 18.0836 -7.10599
1293 2 0 3.61672 14.4669 -6.94278
1292 2 3.61672 0 14.4669 -6.99602
1548 2 1.80836 1.80836 18.0836 -6.97179
1793 3 1.80836 3.61672 16.2753 -6.49794
2042 1 3.61672 1.80836 16.2753 -8.18998
2300 2 0 3.61672 18.0836 -7.01094
2298 1 3.61672 0 18.0836 -8.27821
2292 3 3.61672 3.61672 14.4669 -6.57953
3300 1 3.61672 3.61672 18.0836 -8.13886
1542 1 5.42509 1.80836 14.4669 -8.19263
1792 3 5.42509 0 16.2753 -6.53747
2549 2 5.42509 1.80836 18.0836 -7.05148
2792 2 5.42509 3.61672 16.2753 -7.05419
286 2 7.23345 3.61672 18.0836 -7.06303
2291 2 7.23345 0 14.4669 -7.07328
2542 3 9.04181 1.80836 14.4669 -6.62075
2791 3 9.04181 0 16.2753 -6.59843
3042 2 7.23345 1.80836 16.2753 -7.10086
3298 2 7.23345 0 18.0836 -6.96395
3292 2 7.23345 3.61672 14.4669 -7.11266
3549 2 9.04181 1.80836 18.0836 -7.08323
3793 1 9.04181 3.61672 16.2753 -8.19253
262 2 10.8502 3.61672 14.4669 -7.07256
284 1 10.8502 0 18.0836 -8.15426
26 2 10.8502 1.80836 16.2753 -7.03589
502 1 12.6585 1.80836 18.0836 -8.33647
794 3 12.6585 3.61672 16.2753 -6.55082
1302 3 10.8502 3.61672 18.0836 -6.49892
3291 2 10.8502 0 14.4669 -7.04728
3542 2 12.6585 1.80836 14.4669 -7.11422
3792 3 12.6585 0 16.2753 -6.47136
261 3 14.4669 0 14.4669 -6.52627
401 2 18.0836 0 14.4669 -7.09806
542 2 16.2753 1.80836 14.4669 -7.1247
793 1 16.2753 0 16.2753 -8.15856
1151 1 18.0836 1.80836 16.2753 -7.96262
1042 2 14.4669 1.80836 16.2753 -7.03856
1407 3 18.0836 0 18.0836 -6.36794
1402 1 18.0836 3.61672 14.4669 -7.98557
1300 1 14.4669 0 18.0836 -8.0986
1294 2 14.4669 3.61672 14.4669 -7.11603
1550 1 16.2753 1.80836 18.0836 -8.09722
1794 1 16.2753 3.61672 16.2753 -7.94469
2410 2 18.0836 3.61672 18.0836 -7.07688
2302 3 14.4669 3.61672 18.0836 -6.35169
1543 2 1.80836 5.42509 14.4669 -7.0091
2043 3 0 5.42509 16.2753 -6.49785
2551 1 1.80836 5.42509 18.0836 -8.28638
3043 1 3.61672 5.42509 16.2753 -8.30696
2543 3 5.42509 5.42509 14.4669 -6.51291
3551 3 5.42509 5.42509 18.0836 -6.28131
27 1 7.23345 5.42509 16.2753 -8.14695
504 2 9.04181 5.42509 18.0836 -7.02034
3543 2 9.04181 5.42509 14.4669 -7.10657
543 2 12.6585 5.42509 14.4669 -6.99424
1043 1 10.8502 5.42509 16.2753 -8.29375
1552 3 12.6585 5.42509 18.0836 -6.42262
1544 1 16.2753 5.42509 14.4669 -8.17708
2152 1 18.0836 5.42509 16.2753 -8.10667
2044 1 14.4669 5.42509 16.2753 -8.26493
2553 1 16.2753 5.42509 18.0836 -8.18405
288 1 3.61672 7.23345 18.0836 -8.1431
28 2 3.61672 9.04181 16.2753 -6.94286
2293 3 0 7.23345 14.4669 -6.49297
2544 1 1.80836 9.04181 14.4669 -8.37834
2793 3 1.80836 7.23345 16.2753 -6.37623
3044 1 0 9.04181 16.2753 -8.22899
3302 3 0 7.23345 18.0836 -6.50764
3293 2 3.61672 7.23345 14.4669 -6.98452
3553 1 1.80836 9.04181 18.0836 -8.27821
506 3 5.42509 9.04181 18.0836 -6.46068
3544 1 5.42509 9.04181 14.4669 -8.1657
3794 3 5.42509 7.23345 16.2753 -6.33298
263 1 7.23345 7.23345 14.4669 -8.03259
544 3 9.04181 9.04181 14.4669 -6.42942
795 1 9.04181 7.23345 16.2753 -8.15589
1044 2 7.23345 9.04181 16.2753 -6.91888
1304 1 7.23345 7.23345 18.0836 -8.22961
1554 2 9.04181 9.04181 18.0836 -7.01486
1295 3 10.8502 7.23345 14.4669 -6.6042
1545 2 12.6585 9.04181 14.4669 -7.03481
1795 2 12.6585 7.23345 16.2753 -6.92992
2045 3 10.8502 9.04181 16.2753 -6.52691
2304 3 10.8502 7.23345 18.0836 -6.49151
2555 1 12.6585 9.04181 18.0836 -8.35221
2262 2 18.0836 7.23345 14.4669 -7.06934
2294 3 14.4669 7.23345 14.4669 -6.57932
2545 3 16.2753 9.04181 14.4669 -6.70236
2794 2 16.2753 7.23345 16.2753 -6.97646
3169 3 18.0836 9.04181 16.2753 -6.70638
3045 3 14.4669 9.04181 16.2753 -6.66674
3427 2 18.0836 7.23345 18.0836 -6.97778
3304 3 14.4669 7.23345 18.0836 -6.37439
3555 3 16.2753 9.04181 18.0836 -6.56441
264 3 3.61672 10.8502 14.4669 -6.40092
290 3 0 10.8502 18.0836 -6.50484
29 1 0 12.6585 16.2753 -8.16986
508 2 1.80836 12.6585 18.0836 -6.99271
1045 2 3.61672 12.6585 16.2753 -6.92629
1306 1 3.61672 10.8502 18.0836 -8.26758
3294 1 0 10.8502 14.4669 -7.97691
3545 1 1.80836 12.6585 14.4669 -8.313
3795 2 1.80836 10.8502 16.2753 -7.07033
545 1 5.42509 12.6585 14.4669 -8.29621
796 3 5.42509 10.8502 16.2753 -6.43893
1556 3 5.42509 12.6585 18.0836 -6.49382
1296 1 7.23345 10.8502 14.4669 -8.22073
1546 3 9.04181 12.6585 14.4669 -6.47842
1796 3 9.04181 10.8502 16.2753 -6.5112
2046 3 7.23345 12.6585 16.2753 -6.43124
2306 3 7.23345 10.8502 18.0836 -6.65701
2557 1 9.04181 12.6585 18.0836 -8.3419
2295 1 10.8502 10.8502 14.4669 -8.47557
2546 3 12.6585 12.6585 14.4669 -6.54837
2795 3 12.6585 10.8502 16.2753 -6.56639
3046 2 10.8502 12.6585 16.2753 -7.01367
3306 3 10.8502 10.8502 18.0836 -6.507
3557 1 12.6585 12.6585 18.0836 -8.08879
415 3 18.0836 10.8502 18.0836 -6.58474
292 2 14.4669 10.8502 18.0836 -7.09064
154 1 18.0836 12.6585 16.2753 -8.30045
30 2 14.4669 12.6585 16.2753 -7.05243
510 2 16.2753 12.6585 18.0836 -7.02036
3419 2 18.0836 10.8502 14.4669 -7.07317
3295 2 14.4669 10.8502 14.4669 -7.08908
3546 3 16.2753 12.6585 14.4669 -6.59951
3796 2 16.2753 10.8502 16.2753 -7.0804
265 3 0 14.4669 14.4669 -6.29079
346 1 3.61672 18.0836 18.0836 -8.06652
546 3 1.80836 16.2753 14.4669 -6.32979
797 3 1.80836 14.4669 16.2753 -6.25621
1046 1 0 16.2753 16.2753 -8.24112
1308 1 0 14.4669 18.0836 -8.03925
1297 3 3.61672 14.4669 14.4669 -6.36347
1558 3 1.80836 16.2753 18.0836 -6.15387
2047 1 3.61672 16.2753 16.2753 -8.17414
2353 3 0 18.0836 14.4669 -6.40658
2308 1 3.61672 14.4669 18.0836 -8.13177
2853 2 1.80836 18.0836 16.2753 -7.00149
3359 1 0 18.0836 18.0836 -8.01273
3353 3 3.61672 18.0836 14.4669 -6.35997
1547 1 5.42509 16.2753 14.4669 -8.03146
1797 1 5.42509 14.4669 16.2753 -8.18977
2559 3 5.42509 16.2753 18.0836 -6.27945
3854 1 5.42509 18.0836 16.2753 -8.04978
339 1 7.23345 18.0836 14.4669 -8.16974
839 1 9.04181 18.0836 16.2753 -8.15531
1346 1 7.23345 18.0836 18.0836 -8.1126
2296 2 7.23345 14.4669 14.4669 -6.94004
2547 3 9.04181 16.2753 14.4669 -6.48322
2796 2 9.04181 14.4669 16.2753 -6.99373
3047 2 7.23345 16.2753 16.2753 -7.03115
3308 3 7.23345 14.4669 18.0836 -6.48363
3559 3 9.04181 16.2753 18.0836 -6.5166
294 2 10.8502 14.4669 18.0836 -7.06001
31 2 10.8502 16.2753 16.2753 -7.06758
512 3 12.6585 16.2753 18.0836 -6.51512
1261 2 10.8502 18.0836 14.4669 -7.0092
1855 2 12.6585 18.0836 16.2753 -7.0043
2361 1 10.8502 18.0836 18.0836 -8.18466
3296 1 10.8502 14.4669 14.4669 -8.14901
3547 1 12.6585 16.2753 14.4669 -7.94437
3797 1 12.6585 14.4669 16.2753 -8.10585
266 2 14.4669 14.4669 14.4669 -7.0024
406 1 18.0836 14.4669 14.4669 -8.17409
547 3 16.2753 16.2753 14.4669 -6.51703
798 3 16.2753 14.4669 16.2753 -6.5117
1156 2 18.0836 16.2753 16.2753 -6.97377
1047 1 14.4669 16.2753 16.2753 -8.37545
1417 3 18.0836 14.4669 18.0836 -6.42412
1310 3 14.4669 14.4669 18.0836 -6.38701
1560 3 16.2753 16.2753 18.0836 -6.48941
2463 2 18.0836 18.0836 14.4669 -7.02264
2354 3 14.4669 18.0836 14.4669 -6.39584
2854 3 16.2753 18.0836 16.2753 -6.5524
3469 2 18.0836 18.0836 18.0836 -7.10213
3361 2 14.4669 18.0836 18.0836 -7.05321
285 1 3.61672 3.61672 21.7003 -7.94593
1798 3 1.80836 0 19.892 -6.52068
2048 3 0 1.80836 19.892 -6.58522
2297 3 0 0 21.7003 -6.50391
2548 1 1.80836 1.80836 21.7003 -8.2871
2798 3 1.80836 3.61672 19.892 -6.39919
3048 1 3.61672 1.80836 19.892 -8.143
3299 2 0 3.61672 21.7003 -6.99095
3297 2 3.61672 0 21.7003 -6.95665
2797 3 5.42509 0 19.892 -6.31608
3548 2 5.42509 1.80836 21.7003 -7.01545
3799 3 5.42509 3.61672 19.892 -6.29367
501 3 9.04181 1.80836 21.7003 -6.32733
32 1 7.23345 1.80836 19.892 -8.28193
283 1 7.23345 0 21.7003 -8.02845
800 2 9.04181 3.61672 19.892 -7.06449
1301 1 7.23345 3.61672 21.7003 -8.15072
3798 3 9.04181 0 19.892 -6.33076
799 2 12.6585 0 19.892 -7.07273
1048 2 10.8502 1.80836 19.892 -6.98829
1299 1 10.8502 0 21.7003 -8.09541
1549 1 12.6585 1.80836 21.7003 -8.21994
1800 3 12.6585 3.61672 19.892 -6.4462
2301 1 10.8502 3.61672 21.7003 -8.24377
1799 2 16.2753 0 19.892 -6.98071
2157 1 18.0836 1.80836 19.892 -7.96522
2049 3 14.4669 1.80836 19.892 -6.3199
2407 1 18.0836 0 21.7003 -8.105
2299 1 14.4669 0 21.7003 -8.16322
2550 1 16.2753 1.80836 21.7003 -8.2576
2799 3 16.2753 3.61672 19.892 -6.40883
3424 2 18.0836 3.61672 21.7003 -6.97009
3301 2 14.4669 3.61672 21.7003 -6.94887
33 1 3.61672 5.42509 19.892 -7.9469
3049 2 0 5.42509 19.892 -6.98973
3550 1 1.80836 5.42509 21.7003 -8.20255
503 1 5.42509 5.42509 21.7003 -8.08206
1049 3 7.23345 5.42509 19.892 -6.37853
1551 1 9.04181 5.42509 21.7003 -8.27024
2050 1 10.8502 5.42509 19.892 -8.40774
2552 3 12.6585 5.42509 21.7003 -6.60549
3174 3 18.0836 5.42509 19.892 -6.41755
3050 3 14.4669 5.42509 19.892 -6.5265
3552 2 16.2753 5.42509 21.7003 -6.97959
505 2 1.80836 9.04181 21.7003 -7.09195
34 3 0 9.04181 19.892 -6.6447
287 3 0 7.23345 21.7003 -6.64835
1050 3 3.61672 9.04181 19.892 -6.48822
1303 2 3.61672 7.23345 21.7003 -7.0465
3800 3 1.80836 7.23345 19.892 -6.4289
801 1 5.42509 7.23345 19.892 -8.16242
1553 3 5.42509 9.04181 21.7003 -6.53739
1801 3 9.04181 7.23345 19.892 -6.53438
2051 2 7.23345 9.04181 19.892 -7.00018
2303 3 7.23345 7.23345 21.7003 -6.46127
2554 3 9.04181 9.04181 21.7003 -6.67198
2800 3 12.6585 7.23345 19.892 -6.48999
3051 2 10.8502 9.04181 19.892 -7.01516
3303 2 10.8502 7.23345 21.7003 -6.97011
3554 3 12.6585 9.04181 21.7003 -6.66153
507 1 16.2753 9.04181 21.7003 -8.21263
159 3 18.0836 9.04181 19.892 -6.39466
35 1 14.4669 9.04181 19.892 -8.1589
412 1 18.0836 7.23345 21.7003 -8.19116
289 2 14.4669 7.23345 21.7003 -6.9765
3801 1 16.2753 7.23345 19.892 -8.1908
802 3 1.80836 10.8502 19.892 -6.51199
1051 1 0 12.6585 19.892 -8.20845
1305 2 0 10.8502 21.7003 -7.08034
1555 2 1.80836 12.6585 21.7003 -7.04926
2052 1 3.61672 12.6585 19.892 -8.344
2305 3 3.61672 10.8502 21.7003 -6.65671
1802 2 5.42509 10.8502 19.892 -6.9905
2556 2 5.42509 12.6585 21.7003 -7.02497
2801 2 9.04181 10.8502 19.892 -7.11387
3052 2 7.23345 12.6585 19.892 -7.02347
3305 3 7.23345 10.8502 21.7003 -6.64296
3556 2 9.04181 12.6585 21.7003 -7.13106
509 3 12.6585 12.6585 21.7003 -6.55935
36 2 10.8502 12.6585 19.892 -7.07184
291 2 10.8502 10.8502 21.7003 -7.17628
3802 1 12.6585 10.8502 19.892 -8.1272
803 2 16.2753 10.8502 19.892 -6.96887
1161 3 18.0836 12.6585 19.892 -6.48621
1052 1 14.4669 12.6585 19.892 -8.0841
1414 1 18.0836 10.8502 21.7003 -8.28832
1307 3 14.4669 10.8502 21.7003 -6.48837
1557 2 16.2753 12.6585 21.7003 -6.99428
345 3 0 18.0836 21.7003 -6.36151
1345 3 3.61672 18.0836 21.7003 -6.36782
1803 2 1.80836 14.4669 19.892 -7.04331
2053 1 0 16.2753 19.892 -8.03773
2307 1 0 14.4669 21.7003 -8.07185
2558 1 1.80836 16.2753 21.7003 -8.22304
3053 1 3.61672 16.2753 19.892 -8.16162
3307 3 3.61672 14.4669 21.7003 -6.41998
3860 3 1.80836 18.0836 19.892 -6.30783
845 1 5.42509 18.0836 19.892 -8.11864
2802 3 5.42509 14.4669 19.892 -6.42042
3558 2 5.42509 16.2753 21.7003 -6.97951
511 2 9.04181 16.2753 21.7003 -7.16527
37 3 7.23345 16.2753 19.892 -6.44258
293 1 7.23345 14.4669 21.7003 -8.24692
1861 2 9.04181 18.0836 19.892 -7.0731
2360 2 7.23345 18.0836 21.7003 -7.12426
3803 1 9.04181 14.4669 19.892 -8.24167
804 1 12.6585 14.4669 19.892 -8.17973
1053 2 10.8502 16.2753 19.892 -7.14084
1309 2 10.8502 14.4669 21.7003 -7.14019
1559 2 12.6585 16.2753 21.7003 -7.0679
2860 2 12.6585 18.0836 19.892 -7.09235
3360 2 10.8502 18.0836 21.7003 -7.22855
470 3 18.0836 18.0836 21.7003 -6.59992
347 3 14.4669 18.0836 21.7003 -6.54201
1804 1 16.2753 14.4669 19.892 -8.17796
2162 1 18.0836 16.2753 19.892 -8.12904
2054 3 14.4669 16.2753 19.892 -6.52339
2417 1 18.0836 14.4669 21.7003 -8.10649