ITEM: TIMESTEP
0
ITEM: NUMBER OF ATOMS
4000
ITEM: BOX BOUNDS pp pp pp
0.0000000000000000e+00 3.5627870000000001e+01
0.0000000000000000e+00 3.5627870000000001e+01
0.0000000000000000e+00 3.5627870000000001e+01
ITEM: ATOMS id type x y z c_peratom
267 1 0 0 0 -8.41947
516 3 1.78139 1.78139 0 -6.31007
767 3 1.78139 0 1.78139 -6.48031
1016 2 0 1.78139 1.78139 -6.92703
1267 3 0 0 3.56279 -6.59232
1517 2 1.78139 1.78139 3.56279 -7.10266
1268 3 3.56279 0 0 -6.47334
1518 2 5.34418 1.78139 0 -6.9888
1767 3 5.34418 0 1.78139 -6.67643
2017 3 3.56279 1.78139 1.78139 -6.5747
2266 2 3.56279 0 3.56279 -7.05203
2267 2 7.12557 0 0 -7.01359
2517 3 5.34418 1.78139 3.56279 -6.52606
3017 3 7.12557 1.78139 1.78139 -6.51892
3266 3 7.12557 0 3.56279 -6.43247
2518 3 8.90697 1.78139 0 -6.47592
2766 1 8.90697 0 1.78139 -8.54575
3517 3 8.90697 1.78139 3.56279 -6.53248
1 2 10.6884 1.78139 1.78139 -6.94388
268 3 10.6884 0 3.56279 -6.40892
269 3 14.2511 0 0 -6.70844
517 3 12.4698 1.78139 3.56279 -6.51591
1017 2 14.2511 1.78139 1.78139 -7.03475
1269 1 14.2511 0 3.56279 -8.32179
3267 1 10.6884 0 0 -8.43934
3518 2 12.4698 1.78139 0 -6.98796
3767 3 12.4698 0 1.78139 -6.52493
376 3 17.8139 0 0 -6.31628
518 2 16.0325 1.78139 0 -7.04199
768 3 16.0325 0 1.78139 -6.48569
1126 1 17.8139 1.78139 1.78139 -8.5651
1376 2 17.8139 0 3.56279 -6.96134
1519 2 16.0325 1.78139 3.56279 -6.97629
1270 1 0 3.56279 0 -8.17058
1520 1 1.78139 5.34418 0 -8.10596
1768 1 1.78139 3.56279 1.78139 -8.44195
2018 1 0 5.34418 1.78139 -8.10947
2268 3 0 3.56279 3.56279 -6.58288
2271 1 0 7.12557 0 -8.29391
2519 2 1.78139 5.34418 3.56279 -7.00589
2768 2 1.78139 7.12557 1.78139 -6.98136
3270 2 0 7.12557 3.56279 -7.01773
2 3 7.12557 5.34418 1.78139 -6.29423
270 3 7.12557 3.56279 3.56279 -6.4569
272 2 3.56279 7.12557 3.56279 -7.05267
273 3 7.12557 7.12557 0 -6.14759
1273 3 7.12557 7.12557 3.56279 -6.38161
2269 2 3.56279 3.56279 0 -7.01616
2520 1 5.34418 5.34418 0 -8.29611
2767 1 5.34418 3.56279 1.78139 -8.56296
3018 2 3.56279 5.34418 1.78139 -6.98849
3271 2 3.56279 7.12557 0 -6.95489
3269 3 7.12557 3.56279 0 -6.41176
3268 2 3.56279 3.56279 3.56279 -7.01084
3519 1 5.34418 5.34418 3.56279 -8.43019
3769 1 5.34418 7.12557 1.78139 -8.31042
519 1 8.90697 5.34418 3.56279 -8.97867
770 3 8.90697 7.12557 1.78139 -6.28451
3520 2 8.90697 5.34418 0 -6.89122
3768 3 8.90697 3.56279 1.78139 -6.5922
271 2 10.6884 3.56279 0 -6.94726
520 1 12.4698 5.34418 0 -8.54015
769 3 12.4698 3.56279 1.78139 -6.58874
1018 3 10.6884 5.34418 1.78139 -6.47991
1271 3 10.6884 3.56279 3.56279 -6.65613
1274 1 10.6884 7.12557 0 -8.20756
1272 2 14.2511 3.56279 0 -7.04876
1521 2 12.4698 5.34418 3.56279 -6.95642
1770 3 12.4698 7.12557 1.78139 -6.39292
2019 1 14.2511 5.34418 1.78139 -8.6837
2270 3 14.2511 3.56279 3.56279 -6.51813
2272 3 10.6884 7.12557 3.56279 -6.49318
2273 3 14.2511 7.12557 0 -6.4884
3272 3 14.2511 7.12557 3.56279 -6.40458
1379 3 17.8139 3.56279 0 -6.4424
1522 3 16.0325 5.34418 0 -6.51905
1769 2 16.0325 3.56279 1.78139 -7.03463
2002 1 17.8139 5.34418 1.78139 -8.55161
2396 3 17.8139 7.12557 0 -6.54557
2393 2 17.8139 3.56279 3.56279 -7.04468
2521 2 16.0325 5.34418 3.56279 -6.9607
2769 2 16.0325 7.12557 1.78139 -6.94377
3395 2 17.8139 7.12557 3.56279 -6.92497
2522 3 1.78139 8.90697 0 -6.38951
3019 2 0 8.90697 1.78139 -6.94149
3521 1 1.78139 8.90697 3.56279 -8.23103
3 1 3.56279 8.90697 1.78139 -8.50663
521 3 5.34418 8.90697 3.56279 -6.39808
1019 1 7.12557 8.90697 1.78139 -8.37201
3522 3 5.34418 8.90697 0 -6.31479
522 1 8.90697 8.90697 0 -8.2258
1523 2 8.90697 8.90697 3.56279 -6.8652
1524 2 12.4698 8.90697 0 -6.95068
2020 1 10.6884 8.90697 1.78139 -8.62656
2523 3 12.4698 8.90697 3.56279 -6.41057
3020 2 14.2511 8.90697 1.78139 -6.90318
2524 3 16.0325 8.90697 0 -6.52331
3144 3 17.8139 8.90697 1.78139 -6.5603
3523 1 16.0325 8.90697 3.56279 -8.49446
4 2 0 12.4698 1.78139 -6.98383
274 1 0 10.6884 3.56279 -8.40687
277 3 0 14.2511 0 -6.30281
523 3 1.78139 12.4698 3.56279 -6.45854
772 1 1.78139 14.2511 1.78139 -8.63782
1277 2 0 14.2511 3.56279 -6.90379
3273 3 0 10.6884 0 -6.3658
3524 2 1.78139 12.4698 0 -6.98921
3770 2 1.78139 10.6884 1.78139 -6.98891
275 2 3.56279 10.6884 0 -6.9339
524 2 5.34418 12.4698 0 -6.93541
771 3 5.34418 10.6884 1.78139 -6.34902
1020 1 3.56279 12.4698 1.78139 -8.44896
1278 1 3.56279 14.2511 0 -8.32696
1276 1 7.12557 10.6884 0 -8.712
1275 2 3.56279 10.6884 3.56279 -6.96428
1525 2 5.34418 12.4698 3.56279 -6.9676
1772 2 5.34418 14.2511 1.78139 -6.94817
2021 3 7.12557 12.4698 1.78139 -6.42646
2277 2 7.12557 14.2511 0 -6.88908
2276 3 3.56279 14.2511 3.56279 -6.50727
2274 1 7.12557 10.6884 3.56279 -8.42562
3276 3 7.12557 14.2511 3.56279 -6.45976
1526 3 8.90697 12.4698 0 -6.39585
1771 3 8.90697 10.6884 1.78139 -6.29521
2525 1 8.90697 12.4698 3.56279 -8.33279
2771 1 8.90697 14.2511 1.78139 -8.58061
5 3 14.2511 12.4698 1.78139 -6.48421
276 1 14.2511 10.6884 3.56279 -8.63136
278 3 10.6884 14.2511 3.56279 -6.36826
279 2 14.2511 14.2511 0 -6.9605
1279 2 14.2511 14.2511 3.56279 -6.99769
2275 2 10.6884 10.6884 0 -6.91609
2526 1 12.4698 12.4698 0 -8.56191
2770 3 12.4698 10.6884 1.78139 -6.48206
3021 2 10.6884 12.4698 1.78139 -6.92139
3277 1 10.6884 14.2511 0 -8.30969
3275 3 14.2511 10.6884 0 -6.54726
3274 2 10.6884 10.6884 3.56279 -6.93233
3525 3 12.4698 12.4698 3.56279 -6.57108
3772 2 12.4698 14.2511 1.78139 -7.0146
129 3 17.8139 12.4698 1.78139 -6.43999
386 1 17.8139 14.2511 0 -8.11238
383 3 17.8139 10.6884 3.56279 -6.58466
525 3 16.0325 12.4698 3.56279 -6.5399
773 1 16.0325 14.2511 1.78139 -8.52379
1386 3 17.8139 14.2511 3.56279 -6.40506
3398 1 17.8139 10.6884 0 -8.40866
3526 2 16.0325 12.4698 0 -6.88566
3771 3 16.0325 10.6884 1.78139 -6.453
526 3 1.78139 16.0325 0 -6.40677
1021 3 0 16.0325 1.78139 -6.4814
1527 2 1.78139 16.0325 3.56279 -6.94897
2328 2 0 17.8139 0 -6.88719
2828 3 1.78139 17.8139 1.78139 -6.47386
3328 2 0 17.8139 3.56279 -7.02394
315 1 7.12557 17.8139 0 -8.31373
314 3 3.56279 17.8139 3.56279 -6.40995
1330 2 7.12557 17.8139 3.56279 -6.97467
1528 1 5.34418 16.0325 0 -8.23427
2022 3 3.56279 16.0325 1.78139 -6.37244
2527 2 5.34418 16.0325 3.56279 -6.93372
3022 3 7.12557 16.0325 1.78139 -6.41206
3329 1 3.56279 17.8139 0 -8.56885
3829 1 5.34418 17.8139 1.78139 -8.40425
814 2 8.90697 17.8139 1.78139 -6.92027
2528 2 8.90697 16.0325 0 -6.93076
3527 3 8.90697 16.0325 3.56279 -6.35693
6 2 10.6884 16.0325 1.78139 -6.99985
527 3 12.4698 16.0325 3.56279 -6.54586
1022 2 14.2511 16.0325 1.78139 -7.01829
1331 1 10.6884 17.8139 0 -8.39542
1830 3 12.4698 17.8139 1.78139 -6.58336
2330 2 14.2511 17.8139 0 -6.92387
2329 3 10.6884 17.8139 3.56279 -6.49686
3330 3 14.2511 17.8139 3.56279 -6.60187
3528 1 12.4698 16.0325 0 -8.32002
528 1 16.0325 16.0325 0 -8.21676
1131 1 17.8139 16.0325 1.78139 -8.31133
1529 3 16.0325 16.0325 3.56279 -6.50092
2438 1 17.8139 17.8139 0 -8.2902
2829 2 16.0325 17.8139 1.78139 -7.01543
3453 2 17.8139 17.8139 3.56279 -6.89057
1773 2 1.78139 0 5.34418 -7.10457
2023 2 0 1.78139 5.34418 -7.14196
2278 2 0 0 7.12557 -7.01011
2529 3 1.78139 1.78139 7.12557 -6.40041
7 2 7.12557 1.78139 5.34418 -6.99215
2773 1 3.56279 0 7.12557 -8.43565
2772 1 5.34418 0 5.34418 -8.50862
3024 2 5.34418 1.78139 7.12557 -7.03844
3023 3 3.56279 1.78139 5.34418 -6.53673
3278 3 7.12557 0 7.12557 -6.37449
3529 2 8.90697 1.78139 7.12557 -7.0594
3773 1 8.90697 0 5.34418 -8.70568
8 2 12.4698 1.78139 7.12557 -6.89182
280 3 14.2511 0 7.12557 -6.26942
774 1 12.4698 0 5.34418 -8.48305
1023 3 10.6884 1.78139 5.34418 -6.55495
2024 1 14.2511 1.78139 5.34418 -8.53222
3774 3 10.6884 0 7.12557 -6.27073
529 3 16.0325 1.78139 7.12557 -6.52486
1774 1 16.0325 0 5.34418 -8.36129
2007 3 17.8139 1.78139 5.34418 -6.55165
2403 2 17.8139 0 7.12557 -6.95304
775 3 0 3.56279 7.12557 -6.54148
1024 2 1.78139 5.34418 7.12557 -6.9676
2774 2 1.78139 3.56279 5.34418 -7.04384
3025 3 0 5.34418 5.34418 -6.68635
3279 2 0 7.12557 7.12557 -6.96963
3776 1 1.78139 7.12557 5.34418 -8.33596
9 1 3.56279 5.34418 5.34418 -8.17303
281 3 7.12557 7.12557 7.12557 -6.59291
777 2 5.34418 7.12557 5.34418 -6.99016
1025 3 7.12557 5.34418 5.34418 -6.49362
1280 1 3.56279 3.56279 7.12557 -8.30278
1530 1 5.34418 5.34418 7.12557 -8.49406
1775 2 7.12557 3.56279 7.12557 -7.14813
3777 2 3.56279 7.12557 7.12557 -7.03977
3775 3 5.34418 3.56279 5.34418 -6.51767
776 2 8.90697 3.56279 5.34418 -7.05845
1777 3 8.90697 7.12557 5.34418 -6.59203
2025 2 8.90697 5.34418 7.12557 -7.11355
778 2 10.6884 7.12557 7.12557 -7.05872
1281 1 14.2511 7.12557 7.12557 -8.26896
1776 2 12.4698 3.56279 5.34418 -6.99158
2026 2 10.6884 5.34418 5.34418 -7.07795
2279 3 10.6884 3.56279 7.12557 -6.70837
2530 2 12.4698 5.34418 7.12557 -7.05088
2777 2 12.4698 7.12557 5.34418 -7.02446
2776 3 14.2511 3.56279 7.12557 -6.55521
3026 1 14.2511 5.34418 5.34418 -8.63811
884 3 17.8139 3.56279 7.12557 -6.50465
2775 3 16.0325 3.56279 5.34418 -6.565
3150 3 17.8139 5.34418 5.34418 -6.46177
3027 2 16.0325 5.34418 7.12557 -6.9398
3404 1 17.8139 7.12557 7.12557 -8.47822
3778 3 16.0325 7.12557 5.34418 -6.28325
10 3 0 8.90697 5.34418 -6.51735
3530 1 1.78139 8.90697 7.12557 -8.34514
11 3 5.34418 8.90697 7.12557 -6.55577
1026 2 3.56279 8.90697 5.34418 -7.00102
2027 2 7.12557 8.90697 5.34418 -7.00174
530 3 8.90697 8.90697 7.12557 -6.50489
12 1 14.2511 8.90697 5.34418 -8.46008
1027 1 12.4698 8.90697 7.12557 -8.09094
3028 1 10.6884 8.90697 5.34418 -8.67744
135 1 17.8139 8.90697 5.34418 -8.54587
1531 3 16.0325 8.90697 7.12557 -6.34543
282 2 0 14.2511 7.12557 -7.00754
779 2 1.78139 10.6884 5.34418 -6.9382
1028 3 0 12.4698 5.34418 -6.52221
1780 1 1.78139 14.2511 5.34418 -8.79917
1778 2 0 10.6884 7.12557 -7.01872
2028 3 1.78139 12.4698 7.12557 -6.46236
781 1 3.56279 14.2511 7.12557 -8.43497
1282 3 7.12557 14.2511 7.12557 -6.27493
1779 1 5.34418 10.6884 5.34418 -8.74345
2029 3 3.56279 12.4698 5.34418 -6.43859
2280 3 3.56279 10.6884 7.12557 -6.35249
2531 3 5.34418 12.4698 7.12557 -6.29025
2780 2 5.34418 14.2511 5.34418 -6.86147
2779 2 7.12557 10.6884 7.12557 -6.92976
3029 3 7.12557 12.4698 5.34418 -6.44109
2778 2 8.90697 10.6884 5.34418 -6.99151
3030 2 8.90697 12.4698 7.12557 -6.86027
3781 1 8.90697 14.2511 5.34418 -8.56152
13 1 10.6884 12.4698 5.34418 -8.49671
782 3 12.4698 14.2511 5.34418 -6.43336
1029 2 14.2511 12.4698 5.34418 -6.91495
1781 3 10.6884 14.2511 7.12557 -6.13956
2281 2 14.2511 14.2511 7.12557 -6.92848
3280 3 10.6884 10.6884 7.12557 -6.19794
3531 1 12.4698 12.4698 7.12557 -8.46546
3780 3 14.2511 10.6884 7.12557 -6.26514
3779 2 12.4698 10.6884 5.34418 -6.93
14 1 16.0325 12.4698 7.12557 -8.65915
391 1 17.8139 14.2511 7.12557 -8.16499
780 3 16.0325 10.6884 5.34418 -6.31133
1138 2 17.8139 12.4698 5.34418 -6.94716
1887 3 17.8139 10.6884 7.12557 -6.46579
1782 3 16.0325 14.2511 5.34418 -6.50656
326 2 0 17.8139 7.12557 -7.04362
531 3 1.78139 16.0325 7.12557 -6.45509
2030 3 0 16.0325 5.34418 -6.66729
3835 3 1.78139 17.8139 5.34418 -6.57443
15 3 7.12557 16.0325 5.34418 -6.3751
821 3 3.56279 17.8139 7.12557 -6.27776
820 1 5.34418 17.8139 5.34418 -8.45483
1030 1 5.34418 16.0325 7.12557 -8.34931
1342 3 7.12557 17.8139 7.12557 -6.20258
3031 3 3.56279 16.0325 5.34418 -6.40412
1532 2 8.90697 16.0325 7.12557 -6.78904
1836 1 8.90697 17.8139 5.34418 -8.61776
1031 1 10.6884 16.0325 5.34418 -8.43449
1837 3 10.6884 17.8139 7.12557 -6.21858
2032 3 14.2511 16.0325 5.34418 -6.5683
2031 1 12.4698 16.0325 7.12557 -8.39482
2341 2 14.2511 17.8139 7.12557 -6.98277
2835 1 12.4698 17.8139 5.34418 -8.52631
451 1 17.8139 17.8139 7.12557 -8.38948
2014 1 17.8139 16.0325 5.34418 -8.40043
2532 2 16.0325 16.0325 7.12557 -6.977
3836 3 16.0325 17.8139 5.34418 -6.55067
16 2 0 1.78139 12.4698 -6.95231
2781 3 1.78139 0 8.90697 -6.34595
3032 1 0 1.78139 8.90697 -8.45706
3281 1 0 0 10.6884 -8.77434
3532 3 1.78139 1.78139 10.6884 -6.27309
3782 3 1.78139 0 12.4698 -6.40623
251 1 3.56279 0 10.6884 -8.46756
17 2 7.12557 1.78139 8.90697 -7.06871
532 2 5.34418 1.78139 10.6884 -6.97625
783 1 5.34418 0 12.4698 -8.35516
1032 3 3.56279 1.78139 12.4698 -6.27844
1283 3 7.12557 0 10.6884 -6.44254
2033 2 7.12557 1.78139 12.4698 -6.98133
3282 1 5.34418 0 8.90697 -8.38494
3533 1 3.56279 1.78139 8.90697 -8.14718
1533 3 8.90697 1.78139 10.6884 -6.50686
1783 2 8.90697 0 12.4698 -6.92872
3783 1 8.90697 0 8.90697 -8.6015
252 1 12.4698 0 8.90697 -8.26352
18 1 14.2511 1.78139 12.4698 -8.35417
533 3 10.6884 1.78139 8.90697 -6.36101
1033 2 14.2511 1.78139 8.90697 -6.98586
2282 1 10.6884 0 10.6884 -8.29874
2533 2 12.4698 1.78139 10.6884 -6.91157
2782 3 12.4698 0 12.4698 -6.28114
3033 3 10.6884 1.78139 12.4698 -6.30182
3283 1 14.2511 0 10.6884 -8.32882
141 1 17.8139 1.78139 12.4698 -8.32079
784 2 16.0325 0 8.90697 -6.97792
3157 3 17.8139 1.78139 8.90697 -6.51975
3406 2 17.8139 0 10.6884 -7.00954
3534 2 16.0325 1.78139 10.6884 -7.01257
3784 2 16.0325 0 12.4698 -7.08784
253 2 0 3.56279 10.6884 -6.94415
534 1 1.78139 5.34418 10.6884 -8.26323
785 2 1.78139 3.56279 12.4698 -6.9072
1034 2 0 5.34418 12.4698 -6.96179
1286 3 0 7.12557 10.6884 -6.24494
1284 1 1.78139 3.56279 8.90697 -8.25673
1534 3 0 5.34418 8.90697 -6.25957
1786 1 1.78139 7.12557 12.4698 -8.69219
3786 1 1.78139 7.12557 8.90697 -8.53256
255 2 5.34418 7.12557 8.90697 -6.92425
1285 1 3.56279 3.56279 10.6884 -8.33123
1535 1 5.34418 5.34418 10.6884 -8.40012
1785 3 5.34418 3.56279 12.4698 -6.29637
1784 2 5.34418 3.56279 8.90697 -7.05719
2035 3 3.56279 5.34418 12.4698 -6.27237
2034 2 3.56279 5.34418 8.90697 -7.04459
2285 2 3.56279 7.12557 10.6884 -6.92004
2284 3 7.12557 3.56279 10.6884 -6.60046
2534 2 7.12557 5.34418 8.90697 -7.03538
2785 1 5.34418 7.12557 12.4698 -8.36057
3034 1 7.12557 5.34418 12.4698 -8.58724
3286 3 7.12557 7.12557 10.6884 -6.3268
787 1 8.90697 7.12557 8.90697 -8.65344
2283 2 8.90697 3.56279 8.90697 -7.0809
2535 3 8.90697 5.34418 10.6884 -6.51083
2783 2 8.90697 3.56279 12.4698 -6.88692
3787 2 8.90697 7.12557 12.4698 -6.8554
254 2 14.2511 3.56279 10.6884 -7.00359
256 2 10.6884 7.12557 10.6884 -6.98297
19 3 10.6884 5.34418 12.4698 -6.2715
788 3 12.4698 7.12557 12.4698 -6.27297
1035 1 14.2511 5.34418 12.4698 -8.53971
1288 3 14.2511 7.12557 10.6884 -6.4171
1287 2 12.4698 7.12557 8.90697 -6.99636
2784 1 12.4698 3.56279 8.90697 -8.55618
3035 2 10.6884 5.34418 8.90697 -7.05265
3284 1 10.6884 3.56279 10.6884 -8.49546
3536 3 14.2511 5.34418 8.90697 -6.54046
3535 1 12.4698 5.34418 10.6884 -8.40711
3785 1 12.4698 3.56279 12.4698 -8.01941
394 1 17.8139 3.56279 10.6884 -8.35012
535 2 16.0325 5.34418 10.6884 -7.01391
786 3 16.0325 3.56279 12.4698 -6.44137
1144 2 17.8139 5.34418 12.4698 -7.01206
1395 3 17.8139 7.12557 10.6884 -6.67768
1643 2 17.8139 5.34418 8.90697 -6.97858
1788 3 16.0325 7.12557 12.4698 -6.54025
1787 2 16.0325 7.12557 8.90697 -7.02548
3285 3 16.0325 3.56279 8.90697 -6.63257
20 2 0 8.90697 8.90697 -6.94682
1536 3 1.78139 8.90697 10.6884 -6.39828
2036 2 0 8.90697 12.4698 -6.96298
21 1 7.12557 8.90697 12.4698 -8.56783
536 3 3.56279 8.90697 8.90697 -6.26405
1036 3 7.12557 8.90697 8.90697 -6.44594
2536 1 5.34418 8.90697 10.6884 -8.26126
3036 2 3.56279 8.90697 12.4698 -6.9033
3537 2 8.90697 8.90697 10.6884 -6.90505
537 1 12.4698 8.90697 10.6884 -8.30644
1037 1 10.6884 8.90697 12.4698 -8.37378
1537 1 10.6884 8.90697 8.90697 -8.23813
2038 2 14.2511 8.90697 12.4698 -6.97389
2037 1 14.2511 8.90697 8.90697 -8.29886
145 3 17.8139 8.90697 8.90697 -6.55584
1538 2 16.0325 8.90697 10.6884 -6.98012
2145 1 17.8139 8.90697 12.4698 -8.3809
790 2 1.78139 14.2511 8.90697 -6.96887
2287 3 0 10.6884 10.6884 -6.4497
2286 1 1.78139 10.6884 8.90697 -8.66524
2538 2 1.78139 12.4698 10.6884 -7.00745
2537 3 0 12.4698 8.90697 -6.59584
2786 2 1.78139 10.6884 12.4698 -6.92491
3037 1 0 12.4698 12.4698 -8.16389
3289 2 0 14.2511 10.6884 -7.02506
3790 1 1.78139 14.2511 12.4698 -8.23471
257 3 7.12557 10.6884 10.6884 -6.16931
259 2 3.56279 14.2511 10.6884 -6.92048
22 1 3.56279 12.4698 12.4698 -8.33482
791 3 5.34418 14.2511 12.4698 -6.32498
1038 1 7.12557 12.4698 12.4698 -8.45941
1291 2 7.12557 14.2511 10.6884 -6.8893
1290 1 5.34418 14.2511 8.90697 -8.35305
2787 1 5.34418 10.6884 8.90697 -8.57203
3038 3 3.56279 12.4698 8.90697 -6.26691
3287 1 3.56279 10.6884 10.6884 -8.22677
3539 1 7.12557 12.4698 8.90697 -8.43545
3538 3 5.34418 12.4698 10.6884 -6.16644
3788 1 5.34418 10.6884 12.4698 -8.34538
538 1 8.90697 12.4698 10.6884 -8.3964
789 2 8.90697 10.6884 12.4698 -6.88743
1791 3 8.90697 14.2511 12.4698 -6.28523
1790 3 8.90697 14.2511 8.90697 -6.20288
3288 3 8.90697 10.6884 8.90697 -6.30362
23 1 10.6884 12.4698 8.90697 -8.32578
539 3 14.2511 12.4698 8.90697 -6.34679
1289 1 10.6884 10.6884 10.6884 -8.08721
1539 1 12.4698 12.4698 10.6884 -8.35474
1789 2 12.4698 10.6884 12.4698 -6.95876
2039 3 10.6884 12.4698 12.4698 -6.22199
2290 2 10.6884 14.2511 10.6884 -6.85968
2289 2 12.4698 14.2511 8.90697 -6.92619
2288 2 14.2511 10.6884 10.6884 -6.95136
2789 3 12.4698 14.2511 12.4698 -6.37915
3039 3 14.2511 12.4698 12.4698 -6.35672
3290 1 14.2511 14.2511 10.6884 -8.68069
3789 1 12.4698 10.6884 8.90697 -8.11256
258 2 16.0325 10.6884 8.90697 -6.90371
2256 1 17.8139 10.6884 10.6884 -8.40398
2662 3 17.8139 12.4698 8.90697 -6.35147
2539 3 16.0325 12.4698 10.6884 -6.40597
2790 2 16.0325 14.2511 8.90697 -6.96151
2788 1 16.0325 10.6884 12.4698 -8.29254
3162 1 17.8139 12.4698 12.4698 -8.16543
3414 2 17.8139 14.2511 10.6884 -6.99908
3791 3 16.0325 14.2511 12.4698 -6.41294
24 3 0 16.0325 12.4698 -6.44435
829 1 1.78139 17.8139 8.90697 -8.31977
1039 2 0 16.0325 8.90697 -7.04277
1251 2 0 17.8139 10.6884 -7.07658
1845 2 1.78139 17.8139 12.4698 -6.99466
3540 2 1.78139 16.0325 10.6884 -7.05631
540 3 5.34418 16.0325 10.6884 -6.26859
1040 1 3.56279 16.0325 12.4698 -8.38379
1252 3 5.34418 17.8139 8.90697 -6.31828
1540 1 3.56279 16.0325 8.90697 -8.36596
2041 3 7.12557 16.0325 12.4698 -6.35069
2040 1 7.12557 16.0325 8.90697 -8.54455
2344 2 3.56279 17.8139 10.6884 -7.01655
2844 1 5.34418 17.8139 12.4698 -8.26324
3344 3 7.12557 17.8139 10.6884 -6.28463
1541 1 8.90697 16.0325 10.6884 -8.53845
1846 3 8.90697 17.8139 8.90697 -6.229
3845 3 8.90697 17.8139 12.4698 -6.2761
330 1 10.6884 17.8139 10.6884 -8.3047
25 2 14.2511 16.0325 12.4698 -6.97095
830 3 12.4698 17.8139 12.4698 -6.46245
1253 2 14.2511 17.8139 10.6884 -6.89096
2345 1 12.4698 17.8139 8.90697 -8.17396
2541 3 12.4698 16.0325 10.6884 -6.42303
2540 1 10.6884 16.0325 8.90697 -8.43738
3041 3 14.2511 16.0325 8.90697 -6.41742
3040 2 10.6884 16.0325 12.4698 -6.92483
149 2 17.8139 16.0325 12.4698 -7.06234
1149 2 17.8139 16.0325 8.90697 -7.08464
1454 2 17.8139 17.8139 10.6884 -7.00632
1847 1 16.0325 17.8139 12.4698 -8.29289
2845 2 16.0325 17.8139 8.90697 -6.96637
3541 1 16.0325 16.0325 10.6884 -8.39139
260 2 0 0 14.2511 -6.87139
541 3 1.78139 1.78139 14.2511 -6.43666
792 1 1.78139 0 16.0325 -8.59388
1041 3 0 1.78139 16.0325 -6.41696
1298 2 0 0 17.8139 -6.97732
1548 2 1.78139 1.78139 17.8139 -7.00449
1292 1 3.56279 0 14.2511 -8.54022
1542 1 5.34418 1.78139 14.2511 -8.44429
1792 1 5.34418 0 16.0325 -8.20229
2042 3 3.56279 1.78139 16.0325 -6.40664
2298 1 3.56279 0 17.8139 -8.47047
2291 2 7.12557 0 14.2511 -6.98381
2549 2 5.34418 1.78139 17.8139 -6.99784
3042 1 7.12557 1.78139 16.0325 -8.37551
3298 2 7.12557 0 17.8139 -7.03708
2542 3 8.90697 1.78139 14.2511 -6.42091
2791 1 8.90697 0 16.0325 -8.48504
3549 2 8.90697 1.78139 17.8139 -6.97422
261 2 14.2511 0 14.2511 -7.08103
284 3 10.6884 0 17.8139 -6.44661
26 2 10.6884 1.78139 16.0325 -6.9464
502 2 12.4698 1.78139 17.8139 -6.99959
1042 2 14.2511 1.78139 16.0325 -7.00406
1300 3 14.2511 0 17.8139 -6.45672
3291 3 10.6884 0 14.2511 -6.45015
3542 1 12.4698 1.78139 14.2511 -8.50693
3792 2 12.4698 0 16.0325 -7.06412
401 2 17.8139 0 14.2511 -7.05762
542 2 16.0325 1.78139 14.2511 -6.97335
793 2 16.0325 0 16.0325 -7.02329
1151 1 17.8139 1.78139 16.0325 -8.33128
1407 2 17.8139 0 17.8139 -6.87764
1550 1 16.0325 1.78139 17.8139 -8.27175
1293 1 0 3.56279 14.2511 -8.49311
1543 3 1.78139 5.34418 14.2511 -6.51902
1793 2 1.78139 3.56279 16.0325 -6.97406
2043 1 0 5.34418 16.0325 -8.60266
2300 3 0 3.56279 17.8139 -6.47326
2293 2 0 7.12557 14.2511 -6.97254
2551 3 1.78139 5.34418 17.8139 -6.52666
2793 3 1.78139 7.12557 16.0325 -6.57349
3302 1 0 7.12557 17.8139 -8.60063
263 3 7.12557 7.12557 14.2511 -6.15297
288 3 3.56279 7.12557 17.8139 -6.45131
286 3 7.12557 3.56279 17.8139 -6.3277
27 1 7.12557 5.34418 16.0325 -8.27419
1304 1 7.12557 7.12557 17.8139 -8.1207
2292 3 3.56279 3.56279 14.2511 -6.47122
2543 1 5.34418 5.34418 14.2511 -8.42909
2792 3 5.34418 3.56279 16.0325 -6.31649
3043 2 3.56279 5.34418 16.0325 -6.91818
3300 2 3.56279 3.56279 17.8139 -7.05156
3293 3 3.56279 7.12557 14.2511 -6.3737
3292 3 7.12557 3.56279 14.2511 -6.23085
3551 1 5.34418 5.34418 17.8139 -8.47443
3794 1 5.34418 7.12557 16.0325 -8.39589
504 2 8.90697 5.34418 17.8139 -6.93493
795 1 8.90697 7.12557 16.0325 -8.40092
3543 3 8.90697 5.34418 14.2511 -6.22395
3793 1 8.90697 3.56279 16.0325 -8.44006
262 1 10.6884 3.56279 14.2511 -8.36341
543 1 12.4698 5.34418 14.2511 -8.31511
794 3 12.4698 3.56279 16.0325 -6.5142
1043 3 10.6884 5.34418 16.0325 -6.28
1302 3 10.6884 3.56279 17.8139 -6.44546
1295 1 10.6884 7.12557 14.2511 -8.35996
1294 3 14.2511 3.56279 14.2511 -6.42917
1552 3 12.4698 5.34418 17.8139 -6.55048
1795 1 12.4698 7.12557 16.0325 -8.57734
2044 2 14.2511 5.34418 16.0325 -7.01662
2304 2 10.6884 7.12557 17.8139 -6.92727
2302 2 14.2511 3.56279 17.8139 -7.07611
2294 3 14.2511 7.12557 14.2511 -6.52196
3304 3 14.2511 7.12557 17.8139 -6.67775
1402 3 17.8139 3.56279 14.2511 -6.42531
1544 2 16.0325 5.34418 14.2511 -7.03655
1794 3 16.0325 3.56279 16.0325 -6.54836
2152 2 17.8139 5.34418 16.0325 -7.00607
2262 3 17.8139 7.12557 14.2511 -6.48227
2410 1 17.8139 3.56279 17.8139 -8.25399
2553 2 16.0325 5.34418 17.8139 -7.04679
2794 2 16.0325 7.12557 16.0325 -6.98723
3427 1 17.8139 7.12557 17.8139 -8.32798
2544 3 1.78139 8.90697 14.2511 -6.61833
3044 2 0 8.90697 16.0325 -6.96327
3553 2 1.78139 8.90697 17.8139 -6.90909
28 2 3.56279 8.90697 16.0325 -6.96691
506 2 5.34418 8.90697 17.8139 -6.93914
1044 2 7.12557 8.90697 16.0325 -6.91982
3544 3 5.34418 8.90697 14.2511 -6.23923
544 3 8.90697 8.90697 14.2511 -6.35808
1554 1 8.90697 8.90697 17.8139 -8.35632
1545 2 12.4698 8.90697 14.2511 -6.92381
2045 3 10.6884 8.90697 16.0325 -6.34166
2555 2 12.4698 8.90697 17.8139 -6.91737
3045 3 14.2511 8.90697 16.0325 -6.54875
2545 3 16.0325 8.90697 14.2511 -6.41377
3169 1 17.8139 8.90697 16.0325 -8.48687
3555 3 16.0325 8.90697 17.8139 -6.42857
265 1 0 14.2511 14.2511 -8.2248
290 1 0 10.6884 17.8139 -8.73256
29 3 0 12.4698 16.0325 -6.24922
508 3 1.78139 12.4698 17.8139 -6.32216
797 3 1.78139 14.2511 16.0325 -6.25851
1308 1 0 14.2511 17.8139 -8.56392
3294 2 0 10.6884 14.2511 -6.98994
3545 1 1.78139 12.4698 14.2511 -8.48777
3795 3 1.78139 10.6884 16.0325 -6.46538
264 3 3.56279 10.6884 14.2511 -6.41233
545 2 5.34418 12.4698 14.2511 -6.8407
796 1 5.34418 10.6884 16.0325 -8.68497
1045 3 3.56279 12.4698 16.0325 -6.42952
1306 1 3.56279 10.6884 17.8139 -8.48553
1297 3 3.56279 14.2511 14.2511 -6.2561
1296 3 7.12557 10.6884 14.2511 -6.33663
1556 3 5.34418 12.4698 17.8139 -6.40101
1797 2 5.34418 14.2511 16.0325 -6.88284
2046 3 7.12557 12.4698 16.0325 -6.4867
2308 3 3.56279 14.2511 17.8139 -6.4522
2306 2 7.12557 10.6884 17.8139 -6.92547
2296 3 7.12557 14.2511 14.2511 -6.40503
3308 1 7.12557 14.2511 17.8139 -8.73282
1546 1 8.90697 12.4698 14.2511 -8.72018
1796 3 8.90697 10.6884 16.0325 -6.41625
2557 2 8.90697 12.4698 17.8139 -6.91444
2796 3 8.90697 14.2511 16.0325 -6.47196
266 2 14.2511 14.2511 14.2511 -6.93718
294 2 10.6884 14.2511 17.8139 -7.01364
292 1 14.2511 10.6884 17.8139 -8.73041
30 2 14.2511 12.4698 16.0325 -6.91796
1310 3 14.2511 14.2511 17.8139 -6.51408
2295 3 10.6884 10.6884 14.2511 -6.43707
2546 1 12.4698 12.4698 14.2511 -8.71427
2795 3 12.4698 10.6884 16.0325 -6.46455
3046 3 10.6884 12.4698 16.0325 -6.3889
3306 1 10.6884 10.6884 17.8139 -8.61816
3296 1 10.6884 14.2511 14.2511 -8.66332
3295 2 14.2511 10.6884 14.2511 -6.96505
3557 3 12.4698 12.4698 17.8139 -6.50763
3797 3 12.4698 14.2511 16.0325 -6.50431
415 3 17.8139 10.6884 17.8139 -6.35688
406 2 17.8139 14.2511 14.2511 -6.99409
154 1 17.8139 12.4698 16.0325 -8.49835
510 3 16.0325 12.4698 17.8139 -6.39936
798 2 16.0325 14.2511 16.0325 -6.93465
1417 2 17.8139 14.2511 17.8139 -6.85905
3419 1 17.8139 10.6884 14.2511 -8.05116
3546 1 16.0325 12.4698 14.2511 -8.29473
3796 3 16.0325 10.6884 16.0325 -6.33138
546 2 1.78139 16.0325 14.2511 -6.93346
1046 1 0 16.0325 16.0325 -8.19426
1558 3 1.78139 16.0325 17.8139 -6.25652
2353 1 0 17.8139 14.2511 -8.36503
2853 2 1.78139 17.8139 16.0325 -6.97738
3359 1 0 17.8139 17.8139 -8.28151
346 1 3.56279 17.8139 17.8139 -8.39716
339 1 7.12557 17.8139 14.2511 -8.21679
1346 2 7.12557 17.8139 17.8139 -7.04297
1547 1 5.34418 16.0325 14.2511 -8.42725
2047 1 3.56279 16.0325 16.0325 -8.58564
2559 3 5.34418 16.0325 17.8139 -6.39541
3047 3 7.12557 16.0325 16.0325 -6.42342
3353 3 3.56279 17.8139 14.2511 -6.33564
3854 2 5.34418 17.8139 16.0325 -6.95238
839 1 8.90697 17.8139 16.0325 -8.30143
2547 2 8.90697 16.0325 14.2511 -6.8874
3559 2 8.90697 16.0325 17.8139 -7.06902
31 2 10.6884 16.0325 16.0325 -6.98937
512 3 12.4698 16.0325 17.8139 -6.45436
1047 1 14.2511 16.0325 16.0325 -8.47368
1261 2 10.6884 17.8139 14.2511 -6.96148
1855 1 12.4698 17.8139 16.0325 -8.28532
2361 1 10.6884 17.8139 17.8139 -8.45333
2354 1 14.2511 17.8139 14.2511 -8.41378
3361 1 14.2511 17.8139 17.8139 -8.47762
3547 3 12.4698 16.0325 14.2511 -6.43489
547 2 16.0325 16.0325 14.2511 -7.0904
1156 1 17.8139 16.0325 16.0325 -8.32227
1560 3 16.0325 16.0325 17.8139 -6.23392
2463 1 17.8139 17.8139 14.2511 -8.31517
2854 1 16.0325 17.8139 16.0325 -8.03749
3469 1 17.8139 17.8139 17.8139 -8.37359
1798 3 1.78139 0 19.5953 -6.43373
2048 1 0 1.78139 19.5953 -8.55666
2297 1 0 0 21.3767 -8.25174
2548 1 1.78139 1.78139 21.3767 -8.53981
32 2 7.12557 1.78139 19.5953 -7.07389
283 2 7.12557 0 21.3767 -7.02496
2797 3 5.34418 0 19.5953 -6.51497
3048 2 3.56279 1.78139 19.5953 -7.02816
3297 2 3.56279 0 21.3767 -7.00966
3548 2 5.34418 1.78139 21.3767 -7.02263
501 3 8.90697 1.78139 21.3767 -6.48209
3798 3 8.90697 0 19.5953 -6.5064
799 1 12.4698 0 19.5953 -8.32503
1048 1 10.6884 1.78139 19.5953 -8.6032
1299 2 10.6884 0 21.3767 -6.96336
1549 2 12.4698 1.78139 21.3767 -7.02237
2049 1 14.2511 1.78139 19.5953 -8.1916
2299 1 14.2511 0 21.3767 -8.30992
1799 1 16.0325 0 19.5953 -8.64316
2157 3 17.8139 1.78139 19.5953 -6.41664
2407 3 17.8139 0 21.3767 -6.29793
2550 3 16.0325 1.78139 21.3767 -6.3517
287 3 0 7.12557 21.3767 -6.50293
2798 3 1.78139 3.56279 19.5953 -6.48637
3049 2 0 5.34418 19.5953 -6.90345
3299 3 0 3.56279 21.3767 -6.36422
3550 1 1.78139 5.34418 21.3767 -8.68008
3800 1 1.78139 7.12557 19.5953 -8.42403
503 1 5.34418 5.34418 21.3767 -8.74209
33 2 3.56279 5.34418 19.5953 -6.87115
285 3 3.56279 3.56279 21.3767 -6.38032
801 3 5.34418 7.12557 19.5953 -6.45276
1049 1 7.12557 5.34418 19.5953 -8.34958
1303 3 3.56279 7.12557 21.3767 -6.2794
1301 2 7.12557 3.56279 21.3767 -7.0065
2303 2 7.12557 7.12557 21.3767 -7.01809
3799 3 5.34418 3.56279 19.5953 -6.54007
800 3 8.90697 3.56279 19.5953 -6.48798
1551 1 8.90697 5.34418 21.3767 -8.65309
1801 2 8.90697 7.12557 19.5953 -7.025
289 1 14.2511 7.12557 21.3767 -8.75524
1800 1 12.4698 3.56279 19.5953 -8.45413
2050 3 10.6884 5.34418 19.5953 -6.58358
2301 3 10.6884 3.56279 21.3767 -6.40742
2552 2 12.4698 5.34418 21.3767 -6.95309
2800 3 12.4698 7.12557 19.5953 -6.61622
3050 2 14.2511 5.34418 19.5953 -7.04499
3303 2 10.6884 7.12557 21.3767 -6.99739
3301 2 14.2511 3.56279 21.3767 -6.9844
412 1 17.8139 7.12557 21.3767 -8.55861
2799 2 16.0325 3.56279 19.5953 -7.00144
3174 1 17.8139 5.34418 19.5953 -8.32775
3424 2 17.8139 3.56279 21.3767 -6.93994
3552 2 16.0325 5.34418 21.3767 -7.00529
3801 3 16.0325 7.12557 19.5953 -6.46227
505 1 1.78139 8.90697 21.3767 -8.40899
34 3 0 8.90697 19.5953 -6.38317
1050 3 3.56279 8.90697 19.5953 -6.37127
1553 3 5.34418 8.90697 21.3767 -6.54995
2051 2 7.12557 8.90697 19.5953 -6.99027
2554 2 8.90697 8.90697 21.3767 -7.03691
35 2 14.2511 8.90697 19.5953 -6.91536
3051 1 10.6884 8.90697 19.5953 -8.37167
3554 3 12.4698 8.90697 21.3767 -6.42679
507 3 16.0325 8.90697 21.3767 -6.41526
159 2 17.8139 8.90697 19.5953 -6.88152
802 1 1.78139 10.6884 19.5953 -8.29457
1051 2 0 12.4698 19.5953 -6.93302
1305 2 0 10.6884 21.3767 -6.90391
1555 3 1.78139 12.4698 21.3767 -6.27298
1803 3 1.78139 14.2511 19.5953 -6.4167
2307 2 0 14.2511 21.3767 -7.03581
293 2 7.12557 14.2511 21.3767 -7.02769
1802 3 5.34418 10.6884 19.5953 -6.47426
2052 1 3.56279 12.4698 19.5953 -8.70977
2305 3 3.56279 10.6884 21.3767 -6.29305
2556 2 5.34418 12.4698 21.3767 -6.96403
2802 3 5.34418 14.2511 19.5953 -6.45465
3052 3 7.12557 12.4698 19.5953 -6.57061
3307 3 3.56279 14.2511 21.3767 -6.27082
3305 1 7.12557 10.6884 21.3767 -8.76917
2801 3 8.90697 10.6884 19.5953 -6.51064
3556 2 8.90697 12.4698 21.3767 -6.99582
3803 2 8.90697 14.2511 19.5953 -7.06985
509 3 12.4698 12.4698 21.3767 -6.44117
36 3 10.6884 12.4698 19.5953 -6.5007
291 2 10.6884 10.6884 21.3767 -6.95397
804 3 12.4698 14.2511 19.5953 -6.64131
1052 2 14.2511 12.4698 19.5953 -6.87508
1309 1 10.6884 14.2511 21.3767 -8.67549
1307 2 14.2511 10.6884 21.3767 -6.88523
2309 3 14.2511 14.2511 21.3767 -6.4403
3802 1 12.4698 10.6884 19.5953 -8.3814
803 3 16.0325 10.6884 19.5953 -6.56263
1161 1 17.8139 12.4698 19.5953 -8.50568
1414 2 17.8139 10.6884 21.3767 -6.97273
1557 2 16.0325 12.4698 21.3767 -6.9404
1804 1 16.0325 14.2511 19.5953 -8.73731
2417 3 17.8139 14.2511 21.3767 -6.40669
345 1 0 17.8139 21.3767 -8.28602
2053 2 0 16.0325 19.5953 -6.94396
2558 1 1.78139 16.0325 21.3767 -8.16687
3860 1 1.78139 17.8139 19.5953 -8.04524
37 1 7.12557 16.0325 19.5953 -8.549
845 3 5.34418 17.8139 19.5953 -6.4163
1345 1 3.56279 17.8139 21.3767 -8.22631
2360 2 7.12557 17.8139 21.3767 -7.05019
3053 2 3.56279 16.0325 19.5953 -6.87861
3558 2 5.34418 16.0325 21.3767 -6.97078
511 2 8.90697 16.0325 21.3767 -7.11145
1861 2 8.90697 17.8139 19.5953 -7.11233
347 3 14.2511 17.8139 21.3767 -6.41058
1053 2 10.6884 16.0325 19.5953 -7.08102
1559 2 12.4698 16.0325 21.3767 -6.96912
2054 3 14.2511 16.0325 19.5953 -6.48692
2860 3 12.4698 17.8139 19.5953 -6.5215