ITEM: TIMESTEP
0
ITEM: NUMBER OF ATOMS
4000
ITEM: BOX BOUNDS pp pp pp
0.0000000000000000e+00 3.5627870000000001e+01
0.0000000000000000e+00 3.5627870000000001e+01
0.0000000000000000e+00 3.5627870000000001e+01
ITEM: ATOMS id type x y z c_peratom
267 3 0 0 0 -6.35421
516 2 1.78139 1.78139 0 -6.97124
767 2 1.78139 0 1.78139 -6.99864
1016 3 0 1.78139 1.78139 -6.35571
1267 2 0 0 3.56279 -6.8859
1517 3 1.78139 1.78139 3.56279 -6.30342
1268 1 3.56279 0 0 -8.24888
1518 2 5.34418 1.78139 0 -6.99501
1767 3 5.34418 0 1.78139 -6.3551
2017 2 3.56279 1.78139 1.78139 -6.95171
2266 1 3.56279 0 3.56279 -8.39078
2267 2 7.12557 0 0 -6.96704
2517 2 5.34418 1.78139 3.56279 -6.93204
3017 1 7.12557 1.78139 1.78139 -8.67242
3266 3 7.12557 0 3.56279 -6.46378
2518 3 8.90697 1.78139 0 -6.42954
2766 3 8.90697 0 1.78139 -6.54287
3517 2 8.90697 1.78139 3.56279 -6.99878
1 2 10.6884 1.78139 1.78139 -6.93491
268 1 10.6884 0 3.56279 -8.51095
269 2 14.2511 0 0 -6.88705
517 3 12.4698 1.78139 3.56279 -6.36364
1017 2 14.2511 1.78139 1.78139 -6.98273
1269 3 14.2511 0 3.56279 -6.3429
3267 2 10.6884 0 0 -6.9565
3518 1 12.4698 1.78139 0 -8.50938
3767 3 12.4698 0 1.78139 -6.38623
376 3 17.8139 0 0 -6.52429
518 1 16.0325 1.78139 0 -8.59154
768 3 16.0325 0 1.78139 -6.41457
1126 2 17.8139 1.78139 1.78139 -7.01742
1376 2 17.8139 0 3.56279 -7.00903
1519 2 16.0325 1.78139 3.56279 -6.99469
1270 2 0 3.56279 0 -6.95121
1520 3 1.78139 5.34418 0 -6.4558
1768 1 1.78139 3.56279 1.78139 -8.44401
2018 3 0 5.34418 1.78139 -6.447
2268 1 0 3.56279 3.56279 -8.38809
2271 1 0 7.12557 0 -8.4995
2519 2 1.78139 5.34418 3.56279 -7.06557
2768 2 1.78139 7.12557 1.78139 -7.0764
3270 2 0 7.12557 3.56279 -7.07122
2 3 7.12557 5.34418 1.78139 -6.54843
270 3 7.12557 3.56279 3.56279 -6.46317
272 2 3.56279 7.12557 3.56279 -7.20858
273 3 7.12557 7.12557 0 -6.55104
1273 2 7.12557 7.12557 3.56279 -7.08641
2269 1 3.56279 3.56279 0 -8.50238
2520 2 5.34418 5.34418 0 -7.04059
2767 2 5.34418 3.56279 1.78139 -7.03743
3018 2 3.56279 5.34418 1.78139 -7.14025
3271 3 3.56279 7.12557 0 -6.75536
3269 1 7.12557 3.56279 0 -8.59765
3268 1 3.56279 3.56279 3.56279 -8.47382
3519 2 5.34418 5.34418 3.56279 -7.12159
3769 2 5.34418 7.12557 1.78139 -7.16875
519 1 8.90697 5.34418 3.56279 -8.15582
770 1 8.90697 7.12557 1.78139 -8.32545
3520 2 8.90697 5.34418 0 -6.92793
3768 2 8.90697 3.56279 1.78139 -6.93603
271 3 10.6884 3.56279 0 -6.44466
520 2 12.4698 5.34418 0 -7.04353
769 1 12.4698 3.56279 1.78139 -8.40376
1018 1 10.6884 5.34418 1.78139 -8.2319
1271 1 10.6884 3.56279 3.56279 -8.12738
1274 2 10.6884 7.12557 0 -7.02093
1272 2 14.2511 3.56279 0 -7.0055
1521 3 12.4698 5.34418 3.56279 -6.14346
1770 1 12.4698 7.12557 1.78139 -8.43234
2019 2 14.2511 5.34418 1.78139 -6.93836
2270 3 14.2511 3.56279 3.56279 -6.47403
2272 3 10.6884 7.12557 3.56279 -6.2445
2273 3 14.2511 7.12557 0 -6.47563
3272 1 14.2511 7.12557 3.56279 -8.29124
1379 2 17.8139 3.56279 0 -7.02569
1522 3 16.0325 5.34418 0 -6.62337
1769 3 16.0325 3.56279 1.78139 -6.70179
2002 2 17.8139 5.34418 1.78139 -6.99271
2396 3 17.8139 7.12557 0 -6.4513
2393 3 17.8139 3.56279 3.56279 -6.52812
2521 3 16.0325 5.34418 3.56279 -6.49733
2769 2 16.0325 7.12557 1.78139 -6.95114
3395 3 17.8139 7.12557 3.56279 -6.51179
2522 3 1.78139 8.90697 0 -6.43739
3019 1 0 8.90697 1.78139 -8.357
3521 2 1.78139 8.90697 3.56279 -7.10679
3 2 3.56279 8.90697 1.78139 -7.07417
521 2 5.34418 8.90697 3.56279 -7.14536
1019 3 7.12557 8.90697 1.78139 -6.4569
3522 3 5.34418 8.90697 0 -6.60005
522 1 8.90697 8.90697 0 -8.46008
1523 1 8.90697 8.90697 3.56279 -8.33115
1524 2 12.4698 8.90697 0 -7.03011
2020 2 10.6884 8.90697 1.78139 -7.00403
2523 3 12.4698 8.90697 3.56279 -6.53425
3020 1 14.2511 8.90697 1.78139 -8.38274
2524 1 16.0325 8.90697 0 -8.19353
3144 1 17.8139 8.90697 1.78139 -8.60469
3523 2 16.0325 8.90697 3.56279 -6.98948
4 1 0 12.4698 1.78139 -8.21106
274 2 0 10.6884 3.56279 -7.10032
277 1 0 14.2511 0 -8.18199
523 2 1.78139 12.4698 3.56279 -6.94791
772 1 1.78139 14.2511 1.78139 -8.40782
1277 3 0 14.2511 3.56279 -6.30477
3273 2 0 10.6884 0 -6.87428
3524 1 1.78139 12.4698 0 -8.24377
3770 2 1.78139 10.6884 1.78139 -6.98883
275 1 3.56279 10.6884 0 -8.47615
524 2 5.34418 12.4698 0 -6.97572
771 1 5.34418 10.6884 1.78139 -8.47233
1020 1 3.56279 12.4698 1.78139 -8.28462
1278 3 3.56279 14.2511 0 -6.49043
1276 2 7.12557 10.6884 0 -6.90808
1275 3 3.56279 10.6884 3.56279 -6.59552
1525 1 5.34418 12.4698 3.56279 -8.37033
1772 2 5.34418 14.2511 1.78139 -6.99136
2021 3 7.12557 12.4698 1.78139 -6.49203
2277 2 7.12557 14.2511 0 -7.0332
2276 3 3.56279 14.2511 3.56279 -6.4744
2274 2 7.12557 10.6884 3.56279 -6.98051
3276 2 7.12557 14.2511 3.56279 -6.98846
1526 1 8.90697 12.4698 0 -8.3864
1771 3 8.90697 10.6884 1.78139 -6.53234
2525 3 8.90697 12.4698 3.56279 -6.57711
2771 3 8.90697 14.2511 1.78139 -6.51032
5 2 14.2511 12.4698 1.78139 -6.92642
276 3 14.2511 10.6884 3.56279 -6.66678
278 1 10.6884 14.2511 3.56279 -8.6104
279 3 14.2511 14.2511 0 -6.50986
1279 1 14.2511 14.2511 3.56279 -8.50105
2275 2 10.6884 10.6884 0 -7.06026
2526 3 12.4698 12.4698 0 -6.524
2770 2 12.4698 10.6884 1.78139 -7.08177
3021 2 10.6884 12.4698 1.78139 -6.99405
3277 1 10.6884 14.2511 0 -8.66653
3275 1 14.2511 10.6884 0 -8.3817
3274 2 10.6884 10.6884 3.56279 -7.03352
3525 2 12.4698 12.4698 3.56279 -7.01312
3772 3 12.4698 14.2511 1.78139 -6.43192
129 1 17.8139 12.4698 1.78139 -8.47715
386 3 17.8139 14.2511 0 -6.36271
383 2 17.8139 10.6884 3.56279 -6.98966
525 2 16.0325 12.4698 3.56279 -7.04549
773 1 16.0325 14.2511 1.78139 -8.37762
1386 2 17.8139 14.2511 3.56279 -6.95087
3398 1 17.8139 10.6884 0 -8.28387
3526 3 16.0325 12.4698 0 -6.32615
3771 3 16.0325 10.6884 1.78139 -6.335
526 2 1.78139 16.0325 0 -6.96866
1021 2 0 16.0325 1.78139 -6.97463
1527 3 1.78139 16.0325 3.56279 -6.55313
2328 1 0 17.8139 0 -8.37527
2828 3 1.78139 17.8139 1.78139 -6.45112
3328 2 0 17.8139 3.56279 -6.89797
315 1 7.12557 17.8139 0 -8.4758
314 3 3.56279 17.8139 3.56279 -6.59271
1330 3 7.12557 17.8139 3.56279 -6.41982
1528 3 5.34418 16.0325 0 -6.56779
2022 2 3.56279 16.0325 1.78139 -6.99625
2527 3 5.34418 16.0325 3.56279 -6.56102
3022 3 7.12557 16.0325 1.78139 -6.54961
3329 1 3.56279 17.8139 0 -8.55866
3829 2 5.34418 17.8139 1.78139 -7.0104
814 1 8.90697 17.8139 1.78139 -8.61202
2528 2 8.90697 16.0325 0 -6.87518
3527 3 8.90697 16.0325 3.56279 -6.40584
6 3 10.6884 16.0325 1.78139 -6.3895
527 1 12.4698 16.0325 3.56279 -8.52011
1022 2 14.2511 16.0325 1.78139 -6.93704
1331 3 10.6884 17.8139 0 -6.41859
1830 2 12.4698 17.8139 1.78139 -6.9186
2330 3 14.2511 17.8139 0 -6.36654
2329 3 10.6884 17.8139 3.56279 -6.3326
3330 2 14.2511 17.8139 3.56279 -7.00603
3528 3 12.4698 16.0325 0 -6.47108
528 1 16.0325 16.0325 0 -8.47024
1131 2 17.8139 16.0325 1.78139 -6.98002
1529 3 16.0325 16.0325 3.56279 -6.42428
2438 2 17.8139 17.8139 0 -7.00674
2829 2 16.0325 17.8139 1.78139 -6.98278
3453 1 17.8139 17.8139 3.56279 -8.23322
1773 3 1.78139 0 5.34418 -6.24139
2023 3 0 1.78139 5.34418 -6.2852
2278 1 0 0 7.12557 -8.5719
2529 2 1.78139 1.78139 7.12557 -6.88585
7 1 7.12557 1.78139 5.34418 -8.51712
2773 1 3.56279 0 7.12557 -8.48638
2772 1 5.34418 0 5.34418 -8.27378
3024 1 5.34418 1.78139 7.12557 -8.44109
3023 3 3.56279 1.78139 5.34418 -6.26697
3278 2 7.12557 0 7.12557 -7.0173
3529 2 8.90697 1.78139 7.12557 -7.05664
3773 2 8.90697 0 5.34418 -6.9912
8 2 12.4698 1.78139 7.12557 -7.02339
280 1 14.2511 0 7.12557 -8.3698
774 1 12.4698 0 5.34418 -8.34947
1023 2 10.6884 1.78139 5.34418 -6.98617
2024 2 14.2511 1.78139 5.34418 -6.96303
3774 2 10.6884 0 7.12557 -6.94304
529 2 16.0325 1.78139 7.12557 -7.00975
1774 1 16.0325 0 5.34418 -8.12692
2007 1 17.8139 1.78139 5.34418 -8.42552
2403 1 17.8139 0 7.12557 -8.16166
775 1 0 3.56279 7.12557 -8.57724
1024 2 1.78139 5.34418 7.12557 -6.95264
2774 1 1.78139 3.56279 5.34418 -8.38288
3025 3 0 5.34418 5.34418 -6.42728
3279 2 0 7.12557 7.12557 -6.93937
3776 1 1.78139 7.12557 5.34418 -8.53891
9 2 3.56279 5.34418 5.34418 -7.09024
281 1 7.12557 7.12557 7.12557 -8.31785
777 2 5.34418 7.12557 5.34418 -7.12833
1025 1 7.12557 5.34418 5.34418 -8.42581
1280 2 3.56279 3.56279 7.12557 -6.99674
1530 2 5.34418 5.34418 7.12557 -6.97609
1775 3 7.12557 3.56279 7.12557 -6.45231
3777 3 3.56279 7.12557 7.12557 -6.57091
3775 3 5.34418 3.56279 5.34418 -6.48092
776 2 8.90697 3.56279 5.34418 -6.96425
1777 1 8.90697 7.12557 5.34418 -8.21695
2025 3 8.90697 5.34418 7.12557 -6.14321
778 2 10.6884 7.12557 7.12557 -6.92976
1281 2 14.2511 7.12557 7.12557 -6.9922
1776 1 12.4698 3.56279 5.34418 -8.29026
2026 1 10.6884 5.34418 5.34418 -8.31748
2279 1 10.6884 3.56279 7.12557 -8.17469
2530 2 12.4698 5.34418 7.12557 -6.96283
2777 3 12.4698 7.12557 5.34418 -6.38866
2776 2 14.2511 3.56279 7.12557 -7.03001
3026 1 14.2511 5.34418 5.34418 -8.41723
884 1 17.8139 3.56279 7.12557 -8.27249
2775 3 16.0325 3.56279 5.34418 -6.43801
3150 2 17.8139 5.34418 5.34418 -6.88327
3027 1 16.0325 5.34418 7.12557 -8.16934
3404 1 17.8139 7.12557 7.12557 -8.21795
3778 1 16.0325 7.12557 5.34418 -8.36282
10 2 0 8.90697 5.34418 -7.01751
3530 1 1.78139 8.90697 7.12557 -8.6388
11 2 5.34418 8.90697 7.12557 -7.0647
1026 3 3.56279 8.90697 5.34418 -6.68959
2027 2 7.12557 8.90697 5.34418 -7.05894
530 3 8.90697 8.90697 7.12557 -6.27114
12 2 14.2511 8.90697 5.34418 -6.9891
1027 1 12.4698 8.90697 7.12557 -8.5366
3028 2 10.6884 8.90697 5.34418 -6.93871
135 3 17.8139 8.90697 5.34418 -6.40619
1531 3 16.0325 8.90697 7.12557 -6.43246
282 3 0 14.2511 7.12557 -6.58454
779 3 1.78139 10.6884 5.34418 -6.55716
1028 1 0 12.4698 5.34418 -8.50226
1780 2 1.78139 14.2511 5.34418 -6.97948
1778 1 0 10.6884 7.12557 -8.33948
2028 3 1.78139 12.4698 7.12557 -6.6205
781 2 3.56279 14.2511 7.12557 -7.02777
1282 3 7.12557 14.2511 7.12557 -6.53724
1779 2 5.34418 10.6884 5.34418 -7.06626
2029 2 3.56279 12.4698 5.34418 -7.05403
2280 2 3.56279 10.6884 7.12557 -7.05639
2531 3 5.34418 12.4698 7.12557 -6.56516
2780 1 5.34418 14.2511 5.34418 -8.5927
2779 1 7.12557 10.6884 7.12557 -8.46577
3029 2 7.12557 12.4698 5.34418 -6.97343
2778 1 8.90697 10.6884 5.34418 -8.34285
3030 3 8.90697 12.4698 7.12557 -6.53956
3781 2 8.90697 14.2511 5.34418 -6.92418
13 1 10.6884 12.4698 5.34418 -8.33396
782 2 12.4698 14.2511 5.34418 -6.9365
1029 3 14.2511 12.4698 5.34418 -6.46679
1781 2 10.6884 14.2511 7.12557 -6.9416
2281 1 14.2511 14.2511 7.12557 -8.38877
3280 2 10.6884 10.6884 7.12557 -6.96846
3531 1 12.4698 12.4698 7.12557 -8.39333
3780 2 14.2511 10.6884 7.12557 -6.96858
3779 3 12.4698 10.6884 5.34418 -6.55074
14 1 16.0325 12.4698 7.12557 -8.46557
391 1 17.8139 14.2511 7.12557 -8.48568
780 2 16.0325 10.6884 5.34418 -7.01668
1138 3 17.8139 12.4698 5.34418 -6.45649
1887 3 17.8139 10.6884 7.12557 -6.33211
1782 2 16.0325 14.2511 5.34418 -6.92226
326 1 0 17.8139 7.12557 -8.0882
531 3 1.78139 16.0325 7.12557 -6.4813
2030 1 0 16.0325 5.34418 -8.58942
3835 2 1.78139 17.8139 5.34418 -6.91639
15 1 7.12557 16.0325 5.34418 -8.65293
821 3 3.56279 17.8139 7.12557 -6.39933
820 3 5.34418 17.8139 5.34418 -6.42652
1030 3 5.34418 16.0325 7.12557 -6.42672
1342 3 7.12557 17.8139 7.12557 -6.35054
3031 2 3.56279 16.0325 5.34418 -6.97012
1532 2 8.90697 16.0325 7.12557 -6.98944
1836 1 8.90697 17.8139 5.34418 -8.60503
1031 3 10.6884 16.0325 5.34418 -6.42967
1837 3 10.6884 17.8139 7.12557 -6.47502
2032 3 14.2511 16.0325 5.34418 -6.36637
2031 1 12.4698 16.0325 7.12557 -8.50311
2341 2 14.2511 17.8139 7.12557 -6.94531
2835 2 12.4698 17.8139 5.34418 -6.93903
451 1 17.8139 17.8139 7.12557 -8.50879
2014 2 17.8139 16.0325 5.34418 -6.98828
2532 3 16.0325 16.0325 7.12557 -6.32834
3836 1 16.0325 17.8139 5.34418 -8.48021
16 1 0 1.78139 12.4698 -8.61475
2781 3 1.78139 0 8.90697 -6.53664
3032 3 0 1.78139 8.90697 -6.49849
3281 2 0 0 10.6884 -7.00372
3532 2 1.78139 1.78139 10.6884 -7.05499
3782 2 1.78139 0 12.4698 -7.04407
251 2 3.56279 0 10.6884 -7.11859
17 2 7.12557 1.78139 8.90697 -7.01988
532 2 5.34418 1.78139 10.6884 -7.08933
783 2 5.34418 0 12.4698 -6.99882
1032 3 3.56279 1.78139 12.4698 -6.70435
1283 1 7.12557 0 10.6884 -8.15531
2033 1 7.12557 1.78139 12.4698 -8.33741
3282 2 5.34418 0 8.90697 -7.05213
3533 2 3.56279 1.78139 8.90697 -7.12702
1533 1 8.90697 1.78139 10.6884 -8.15674
1783 2 8.90697 0 12.4698 -7.05756
3783 2 8.90697 0 8.90697 -7.0729
252 3 12.4698 0 8.90697 -6.24729
18 1 14.2511 1.78139 12.4698 -8.18899
533 1 10.6884 1.78139 8.90697 -8.16373
1033 3 14.2511 1.78139 8.90697 -6.31768
2282 1 10.6884 0 10.6884 -8.08476
2533 1 12.4698 1.78139 10.6884 -8.30167
2782 1 12.4698 0 12.4698 -8.03404
3033 2 10.6884 1.78139 12.4698 -6.90197
3283 1 14.2511 0 10.6884 -8.134
141 3 17.8139 1.78139 12.4698 -6.2425
784 1 16.0325 0 8.90697 -8.1079
3157 2 17.8139 1.78139 8.90697 -6.97494
3406 1 17.8139 0 10.6884 -8.17757
3534 1 16.0325 1.78139 10.6884 -8.37807
3784 1 16.0325 0 12.4698 -8.29
253 3 0 3.56279 10.6884 -6.45884
534 1 1.78139 5.34418 10.6884 -8.80595
785 3 1.78139 3.56279 12.4698 -6.5782
1034 3 0 5.34418 12.4698 -6.50111
1286 3 0 7.12557 10.6884 -6.57456
1284 3 1.78139 3.56279 8.90697 -6.54065
1534 3 0 5.34418 8.90697 -6.48986
1786 2 1.78139 7.12557 12.4698 -6.94455
3786 3 1.78139 7.12557 8.90697 -6.47268
255 3 5.34418 7.12557 8.90697 -6.43462
1285 2 3.56279 3.56279 10.6884 -7.07492
1535 3 5.34418 5.34418 10.6884 -6.55046
1785 3 5.34418 3.56279 12.4698 -6.5538
1784 2 5.34418 3.56279 8.90697 -7.0881
2035 2 3.56279 5.34418 12.4698 -6.94279
2034 1 3.56279 5.34418 8.90697 -8.65896
2285 3 3.56279 7.12557 10.6884 -6.60618
2284 2 7.12557 3.56279 10.6884 -6.97858
2534 3 7.12557 5.34418 8.90697 -6.42073
2785 2 5.34418 7.12557 12.4698 -6.93898
3034 3 7.12557 5.34418 12.4698 -6.44268
3286 1 7.12557 7.12557 10.6884 -8.40277
787 1 8.90697 7.12557 8.90697 -8.26061
2283 1 8.90697 3.56279 8.90697 -8.3948
2535 3 8.90697 5.34418 10.6884 -6.27605
2783 3 8.90697 3.56279 12.4698 -6.41271
3787 1 8.90697 7.12557 12.4698 -8.44695
254 3 14.2511 3.56279 10.6884 -6.14674
256 3 10.6884 7.12557 10.6884 -6.24395
19 3 10.6884 5.34418 12.4698 -6.33174
788 3 12.4698 7.12557 12.4698 -6.25707
1035 1 14.2511 5.34418 12.4698 -8.33368
1288 3 14.2511 7.12557 10.6884 -6.31797
1287 3 12.4698 7.12557 8.90697 -6.25807
2784 2 12.4698 3.56279 8.90697 -7.00346
3035 1 10.6884 5.34418 8.90697 -8.27923
3284 2 10.6884 3.56279 10.6884 -6.93769
3536 1 14.2511 5.34418 8.90697 -8.37241
3535 1 12.4698 5.34418 10.6884 -8.54134
3785 3 12.4698 3.56279 12.4698 -6.16809
394 3 17.8139 3.56279 10.6884 -6.27941
535 1 16.0325 5.34418 10.6884 -8.47362
786 2 16.0325 3.56279 12.4698 -6.89678
1144 1 17.8139 5.34418 12.4698 -8.44829
1395 3 17.8139 7.12557 10.6884 -6.44791
1643 3 17.8139 5.34418 8.90697 -6.30189
1788 2 16.0325 7.12557 12.4698 -6.99301
1787 2 16.0325 7.12557 8.90697 -6.92583
3285 2 16.0325 3.56279 8.90697 -6.94141
20 3 0 8.90697 8.90697 -6.43889
1536 2 1.78139 8.90697 10.6884 -6.99975
2036 3 0 8.90697 12.4698 -6.47573
21 1 7.12557 8.90697 12.4698 -8.19162
536 3 3.56279 8.90697 8.90697 -6.63984
1036 1 7.12557 8.90697 8.90697 -8.18624
2536 2 5.34418 8.90697 10.6884 -7.03192
3036 3 3.56279 8.90697 12.4698 -6.52936
3537 2 8.90697 8.90697 10.6884 -6.99302
537 1 12.4698 8.90697 10.6884 -8.59336
1037 3 10.6884 8.90697 12.4698 -6.34749
1537 1 10.6884 8.90697 8.90697 -8.2778
2038 2 14.2511 8.90697 12.4698 -6.94371
2037 2 14.2511 8.90697 8.90697 -6.96757
145 1 17.8139 8.90697 8.90697 -8.3677
1538 3 16.0325 8.90697 10.6884 -6.47843
2145 2 17.8139 8.90697 12.4698 -6.92826
790 2 1.78139 14.2511 8.90697 -7.03869
2287 1 0 10.6884 10.6884 -8.51021
2286 3 1.78139 10.6884 8.90697 -6.50551
2538 2 1.78139 12.4698 10.6884 -7.00792
2537 2 0 12.4698 8.90697 -6.97752
2786 2 1.78139 10.6884 12.4698 -6.98117
3037 1 0 12.4698 12.4698 -8.25738
3289 1 0 14.2511 10.6884 -8.48052
3790 2 1.78139 14.2511 12.4698 -6.99799
257 1 7.12557 10.6884 10.6884 -8.30104
259 1 3.56279 14.2511 10.6884 -8.26859
22 1 3.56279 12.4698 12.4698 -8.16237
791 3 5.34418 14.2511 12.4698 -6.32205
1038 2 7.12557 12.4698 12.4698 -6.98912
1291 2 7.12557 14.2511 10.6884 -7.04333
1290 1 5.34418 14.2511 8.90697 -8.51979
2787 2 5.34418 10.6884 8.90697 -7.05713
3038 3 3.56279 12.4698 8.90697 -6.58791
3287 2 3.56279 10.6884 10.6884 -7.02214
3539 2 7.12557 12.4698 8.90697 -7.03355
3538 1 5.34418 12.4698 10.6884 -8.27656
3788 2 5.34418 10.6884 12.4698 -7.00578
538 2 8.90697 12.4698 10.6884 -6.99777
789 3 8.90697 10.6884 12.4698 -6.3835
1791 2 8.90697 14.2511 12.4698 -7.07166
1790 3 8.90697 14.2511 8.90697 -6.64427
3288 2 8.90697 10.6884 8.90697 -6.97972
23 3 10.6884 12.4698 8.90697 -6.42503
539 3 14.2511 12.4698 8.90697 -6.26188
1289 1 10.6884 10.6884 10.6884 -8.40362
1539 3 12.4698 12.4698 10.6884 -6.38677
1789 2 12.4698 10.6884 12.4698 -6.88512
2039 1 10.6884 12.4698 12.4698 -8.39464
2290 1 10.6884 14.2511 10.6884 -8.59177
2289 1 12.4698 14.2511 8.90697 -8.26221
2288 3 14.2511 10.6884 10.6884 -6.48145
2789 2 12.4698 14.2511 12.4698 -6.99106
3039 2 14.2511 12.4698 12.4698 -6.98601
3290 1 14.2511 14.2511 10.6884 -8.39531
3789 2 12.4698 10.6884 8.90697 -6.96252
258 1 16.0325 10.6884 8.90697 -8.51877
2256 1 17.8139 10.6884 10.6884 -8.27634
2662 3 17.8139 12.4698 8.90697 -6.25578
2539 2 16.0325 12.4698 10.6884 -6.89967
2790 3 16.0325 14.2511 8.90697 -6.16095
2788 1 16.0325 10.6884 12.4698 -8.5396
3162 2 17.8139 12.4698 12.4698 -7.01223
3414 1 17.8139 14.2511 10.6884 -8.3435
3791 2 16.0325 14.2511 12.4698 -7.01663
24 3 0 16.0325 12.4698 -6.39858
829 1 1.78139 17.8139 8.90697 -8.44078
1039 3 0 16.0325 8.90697 -6.37869
1251 1 0 17.8139 10.6884 -8.34931
1845 3 1.78139 17.8139 12.4698 -6.58859
3540 2 1.78139 16.0325 10.6884 -6.98502
540 2 5.34418 16.0325 10.6884 -6.98317
1040 1 3.56279 16.0325 12.4698 -8.36591
1252 1 5.34418 17.8139 8.90697 -8.5794
1540 2 3.56279 16.0325 8.90697 -6.95915
2041 2 7.12557 16.0325 12.4698 -7.04114
2040 2 7.12557 16.0325 8.90697 -7.01856
2344 3 3.56279 17.8139 10.6884 -6.47787
2844 2 5.34418 17.8139 12.4698 -7.02018
3344 1 7.12557 17.8139 10.6884 -8.5353
1541 3 8.90697 16.0325 10.6884 -6.52633
1846 2 8.90697 17.8139 8.90697 -6.93488
3845 3 8.90697 17.8139 12.4698 -6.56683
330 1 10.6884 17.8139 10.6884 -8.62239
25 2 14.2511 16.0325 12.4698 -6.94139
830 1 12.4698 17.8139 12.4698 -8.55709
1253 3 14.2511 17.8139 10.6884 -6.43915
2345 2 12.4698 17.8139 8.90697 -6.92582
2541 3 12.4698 16.0325 10.6884 -6.31433
2540 3 10.6884 16.0325 8.90697 -6.44015
3041 1 14.2511 16.0325 8.90697 -8.30314
3040 2 10.6884 16.0325 12.4698 -7.00102
149 1 17.8139 16.0325 12.4698 -8.13763
1149 2 17.8139 16.0325 8.90697 -6.93973
1454 1 17.8139 17.8139 10.6884 -8.23371
1847 2 16.0325 17.8139 12.4698 -6.9302
2845 3 16.0325 17.8139 8.90697 -6.41469
3541 1 16.0325 16.0325 10.6884 -8.21997
260 3 0 0 14.2511 -6.56626
541 3 1.78139 1.78139 14.2511 -6.5822
792 2 1.78139 0 16.0325 -6.90122
1041 3 0 1.78139 16.0325 -6.38
1298 1 0 0 17.8139 -8.3875
1548 3 1.78139 1.78139 17.8139 -6.45307
1292 2 3.56279 0 14.2511 -7.00962
1542 1 5.34418 1.78139 14.2511 -8.62283
1792 3 5.34418 0 16.0325 -6.23406
2042 3 3.56279 1.78139 16.0325 -6.46975
2298 3 3.56279 0 17.8139 -6.4989
2291 3 7.12557 0 14.2511 -6.24118
2549 1 5.34418 1.78139 17.8139 -8.55081
3042 1 7.12557 1.78139 16.0325 -8.35955
3298 2 7.12557 0 17.8139 -7.01671
2542 1 8.90697 1.78139 14.2511 -8.49569
2791 3 8.90697 0 16.0325 -6.49778
3549 2 8.90697 1.78139 17.8139 -6.96912
261 2 14.2511 0 14.2511 -6.90418
284 2 10.6884 0 17.8139 -7.052
26 3 10.6884 1.78139 16.0325 -6.50434
502 3 12.4698 1.78139 17.8139 -6.41143
1042 1 14.2511 1.78139 16.0325 -8.5403
1300 2 14.2511 0 17.8139 -7.00847
3291 1 10.6884 0 14.2511 -8.32462
3542 3 12.4698 1.78139 14.2511 -6.25306
3792 2 12.4698 0 16.0325 -6.96066
401 3 17.8139 0 14.2511 -6.252
542 3 16.0325 1.78139 14.2511 -6.35161
793 3 16.0325 0 16.0325 -6.45256
1151 3 17.8139 1.78139 16.0325 -6.36675
1407 1 17.8139 0 17.8139 -8.33796
1550 2 16.0325 1.78139 17.8139 -6.91314
1293 2 0 3.56279 14.2511 -6.92406
1543 3 1.78139 5.34418 14.2511 -6.5179
1793 1 1.78139 3.56279 16.0325 -8.77663
2043 2 0 5.34418 16.0325 -6.95782
2300 2 0 3.56279 17.8139 -6.98636
2293 3 0 7.12557 14.2511 -6.46098
2551 1 1.78139 5.34418 17.8139 -8.17348
2793 1 1.78139 7.12557 16.0325 -8.38611
3302 2 0 7.12557 17.8139 -7.05474
263 1 7.12557 7.12557 14.2511 -8.5068
288 2 3.56279 7.12557 17.8139 -7.04129
286 1 7.12557 3.56279 17.8139 -8.48643
27 3 7.12557 5.34418 16.0325 -6.44635
1304 1 7.12557 7.12557 17.8139 -8.5988
2292 3 3.56279 3.56279 14.2511 -6.53331
2543 3 5.34418 5.34418 14.2511 -6.51056
2792 2 5.34418 3.56279 16.0325 -6.90204
3043 3 3.56279 5.34418 16.0325 -6.41425
3300 3 3.56279 3.56279 17.8139 -6.37297
3293 1 3.56279 7.12557 14.2511 -8.55205
3292 3 7.12557 3.56279 14.2511 -6.43598
3551 2 5.34418 5.34418 17.8139 -6.99248
3794 3 5.34418 7.12557 16.0325 -6.40443
504 2 8.90697 5.34418 17.8139 -7.01668
795 2 8.90697 7.12557 16.0325 -6.92642
3543 3 8.90697 5.34418 14.2511 -6.45955
3793 3 8.90697 3.56279 16.0325 -6.45209
262 3 10.6884 3.56279 14.2511 -6.37404
543 1 12.4698 5.34418 14.2511 -8.29505
794 1 12.4698 3.56279 16.0325 -8.33648
1043 2 10.6884 5.34418 16.0325 -6.95988
1302 2 10.6884 3.56279 17.8139 -6.99766
1295 1 10.6884 7.12557 14.2511 -8.36229
1294 1 14.2511 3.56279 14.2511 -8.0947
1552 1 12.4698 5.34418 17.8139 -8.33009
1795 2 12.4698 7.12557 16.0325 -6.87801
2044 1 14.2511 5.34418 16.0325 -8.11191
2304 3 10.6884 7.12557 17.8139 -6.34328
2302 3 14.2511 3.56279 17.8139 -6.26174
2294 3 14.2511 7.12557 14.2511 -6.37725
3304 1 14.2511 7.12557 17.8139 -7.98427
1402 3 17.8139 3.56279 14.2511 -6.40218
1544 1 16.0325 5.34418 14.2511 -8.23896
1794 3 16.0325 3.56279 16.0325 -6.23412
2152 2 17.8139 5.34418 16.0325 -6.94014
2262 1 17.8139 7.12557 14.2511 -8.47164
2410 1 17.8139 3.56279 17.8139 -8.45221
2553 1 16.0325 5.34418 17.8139 -8.18256
2794 2 16.0325 7.12557 16.0325 -6.95233
3427 2 17.8139 7.12557 17.8139 -6.9203
2544 3 1.78139 8.90697 14.2511 -6.53238
3044 2 0 8.90697 16.0325 -6.97733
3553 1 1.78139 8.90697 17.8139 -8.27537
28 2 3.56279 8.90697 16.0325 -6.93074
506 3 5.34418 8.90697 17.8139 -6.52297
1044 2 7.12557 8.90697 16.0325 -6.916
3544 1 5.34418 8.90697 14.2511 -8.31646
544 2 8.90697 8.90697 14.2511 -6.93635
1554 3 8.90697 8.90697 17.8139 -6.3931
1545 3 12.4698 8.90697 14.2511 -6.44244
2045 1 10.6884 8.90697 16.0325 -8.43777
2555 1 12.4698 8.90697 17.8139 -8.01475
3045 3 14.2511 8.90697 16.0325 -6.24004
2545 3 16.0325 8.90697 14.2511 -6.49693
3169 2 17.8139 8.90697 16.0325 -7.00117
3555 1 16.0325 8.90697 17.8139 -8.13506
265 1 0 14.2511 14.2511 -8.57579
290 2 0 10.6884 17.8139 -6.98133
29 2 0 12.4698 16.0325 -6.94289
508 3 1.78139 12.4698 17.8139 -6.62476
797 2 1.78139 14.2511 16.0325 -6.94667
1308 3 0 14.2511 17.8139 -6.36112
3294 2 0 10.6884 14.2511 -6.95088
3545 3 1.78139 12.4698 14.2511 -6.28837
3795 3 1.78139 10.6884 16.0325 -6.48262
264 1 3.56279 10.6884 14.2511 -8.39724
545 1 5.34418 12.4698 14.2511 -8.32604
796 3 5.34418 10.6884 16.0325 -6.34263
1045 1 3.56279 12.4698 16.0325 -8.32711
1306 2 3.56279 10.6884 17.8139 -6.96987
1297 1 3.56279 14.2511 14.2511 -8.18897
1296 3 7.12557 10.6884 14.2511 -6.48454
1556 1 5.34418 12.4698 17.8139 -8.27531
1797 1 5.34418 14.2511 16.0325 -8.15511
2046 2 7.12557 12.4698 16.0325 -6.98815
2308 2 3.56279 14.2511 17.8139 -6.89377
2306 3 7.12557 10.6884 17.8139 -6.51945
2296 3 7.12557 14.2511 14.2511 -6.45063
3308 1 7.12557 14.2511 17.8139 -8.28138
1546 3 8.90697 12.4698 14.2511 -6.64404
1796 3 8.90697 10.6884 16.0325 -6.57913
2557 2 8.90697 12.4698 17.8139 -7.03175
2796 2 8.90697 14.2511 16.0325 -6.99204
266 3 14.2511 14.2511 14.2511 -6.43923
294 3 10.6884 14.2511 17.8139 -6.4132
292 1 14.2511 10.6884 17.8139 -7.9966
30 3 14.2511 12.4698 16.0325 -6.11378
1310 3 14.2511 14.2511 17.8139 -6.30798
2295 3 10.6884 10.6884 14.2511 -6.4058
2546 1 12.4698 12.4698 14.2511 -8.40455
2795 1 12.4698 10.6884 16.0325 -8.36674
3046 3 10.6884 12.4698 16.0325 -6.45948
3306 2 10.6884 10.6884 17.8139 -7.02024
3296 2 10.6884 14.2511 14.2511 -7.01126
3295 3 14.2511 10.6884 14.2511 -6.31746
3557 1 12.4698 12.4698 17.8139 -8.47947
3797 1 12.4698 14.2511 16.0325 -8.37445
415 1 17.8139 10.6884 17.8139 -8.24952
406 1 17.8139 14.2511 14.2511 -8.19493
154 2 17.8139 12.4698 16.0325 -6.97955
510 1 16.0325 12.4698 17.8139 -8.42807
798 2 16.0325 14.2511 16.0325 -6.92722
1417 3 17.8139 14.2511 17.8139 -6.4589
3419 2 17.8139 10.6884 14.2511 -6.97394
3546 1 16.0325 12.4698 14.2511 -8.34786
3796 1 16.0325 10.6884 16.0325 -8.33764
546 2 1.78139 16.0325 14.2511 -6.95485
1046 1 0 16.0325 16.0325 -8.4465
1558 1 1.78139 16.0325 17.8139 -8.24001
2353 2 0 17.8139 14.2511 -6.94885
2853 3 1.78139 17.8139 16.0325 -6.29191
3359 1 0 17.8139 17.8139 -8.24184
346 1 3.56279 17.8139 17.8139 -8.15576
339 2 7.12557 17.8139 14.2511 -7.02147
1346 2 7.12557 17.8139 17.8139 -6.96574
1547 1 5.34418 16.0325 14.2511 -8.31538
2047 3 3.56279 16.0325 16.0325 -6.29712
2559 2 5.34418 16.0325 17.8139 -7.00372
3047 2 7.12557 16.0325 16.0325 -7.03918
3353 2 3.56279 17.8139 14.2511 -7.02237
3854 1 5.34418 17.8139 16.0325 -8.31747
839 1 8.90697 17.8139 16.0325 -8.61508
2547 1 8.90697 16.0325 14.2511 -8.53104
3559 3 8.90697 16.0325 17.8139 -6.51954
31 2 10.6884 16.0325 16.0325 -6.94087
512 1 12.4698 16.0325 17.8139 -8.52292
1047 1 14.2511 16.0325 16.0325 -8.5813
1261 3 10.6884 17.8139 14.2511 -6.51963
1855 3 12.4698 17.8139 16.0325 -6.53993
2361 2 10.6884 17.8139 17.8139 -6.87243
2354 3 14.2511 17.8139 14.2511 -6.50194
3361 2 14.2511 17.8139 17.8139 -7.03546
3547 2 12.4698 16.0325 14.2511 -6.95436
547 3 16.0325 16.0325 14.2511 -6.48628
1156 3 17.8139 16.0325 16.0325 -6.40535
1560 2 16.0325 16.0325 17.8139 -7.03244
2463 3 17.8139 17.8139 14.2511 -6.37067
2854 2 16.0325 17.8139 16.0325 -7.0363
3469 3 17.8139 17.8139 17.8139 -6.36573
1798 2 1.78139 0 19.5953 -6.99303
2048 2 0 1.78139 19.5953 -6.98611
2297 1 0 0 21.3767 -8.33034
2548 1 1.78139 1.78139 21.3767 -8.26538
32 1 7.12557 1.78139 19.5953 -8.33438
283 3 7.12557 0 21.3767 -6.49278
2797 2 5.34418 0 19.5953 -6.98429
3048 3 3.56279 1.78139 19.5953 -6.38987
3297 3 3.56279 0 21.3767 -6.38792
3548 1 5.34418 1.78139 21.3767 -8.49259
501 2 8.90697 1.78139 21.3767 -6.97987
3798 2 8.90697 0 19.5953 -7.00637
799 1 12.4698 0 19.5953 -8.50844
1048 1 10.6884 1.78139 19.5953 -8.36567
1299 1 10.6884 0 21.3767 -8.33899
1549 3 12.4698 1.78139 21.3767 -6.3426
2049 3 14.2511 1.78139 19.5953 -6.44427
2299 3 14.2511 0 21.3767 -6.32063
1799 2 16.0325 0 19.5953 -6.90945
2157 1 17.8139 1.78139 19.5953 -7.99486
2407 1 17.8139 0 21.3767 -8.1733
2550 1 16.0325 1.78139 21.3767 -8.09203
287 1 0 7.12557 21.3767 -8.29224
2798 1 1.78139 3.56279 19.5953 -8.33268
3049 1 0 5.34418 19.5953 -8.08936
3299 1 0 3.56279 21.3767 -8.11143
3550 1 1.78139 5.34418 21.3767 -8.12376
3800 1 1.78139 7.12557 19.5953 -8.00188
503 2 5.34418 5.34418 21.3767 -7.12879
33 2 3.56279 5.34418 19.5953 -7.06704
285 2 3.56279 3.56279 21.3767 -7.02471
801 3 5.34418 7.12557 19.5953 -6.6445
1049 3 7.12557 5.34418 19.5953 -6.61006
1303 2 3.56279 7.12557 21.3767 -7.04332
1301 2 7.12557 3.56279 21.3767 -7.06633
2303 2 7.12557 7.12557 21.3767 -7.09989
3799 2 5.34418 3.56279 19.5953 -7.04483
800 3 8.90697 3.56279 19.5953 -6.50108
1551 2 8.90697 5.34418 21.3767 -7.13899
1801 1 8.90697 7.12557 19.5953 -8.36756
289 2 14.2511 7.12557 21.3767 -7.00649
1800 2 12.4698 3.56279 19.5953 -6.97236
2050 2 10.6884 5.34418 19.5953 -7.05486
2301 1 10.6884 3.56279 21.3767 -8.44759
2552 2 12.4698 5.34418 21.3767 -7.0992
2800 1 12.4698 7.12557 19.5953 -8.19695
3050 3 14.2511 5.34418 19.5953 -6.29295
3303 2 10.6884 7.12557 21.3767 -7.10039
3301 2 14.2511 3.56279 21.3767 -7.02655
412 1 17.8139 7.12557 21.3767 -8.34038
2799 1 16.0325 3.56279 19.5953 -8.32443
3174 2 17.8139 5.34418 19.5953 -6.91931
3424 1 17.8139 3.56279 21.3767 -8.37634
3552 3 16.0325 5.34418 21.3767 -6.35374
3801 1 16.0325 7.12557 19.5953 -8.24563
505 2 1.78139 8.90697 21.3767 -6.98468
34 1 0 8.90697 19.5953 -8.15035
1050 2 3.56279 8.90697 19.5953 -7.03351
1553 2 5.34418 8.90697 21.3767 -7.06023
2051 1 7.12557 8.90697 19.5953 -8.43423
2554 2 8.90697 8.90697 21.3767 -6.98341
35 1 14.2511 8.90697 19.5953 -7.87056
3051 1 10.6884 8.90697 19.5953 -8.29195
3554 1 12.4698 8.90697 21.3767 -8.27068
507 2 16.0325 8.90697 21.3767 -6.98167
159 3 17.8139 8.90697 19.5953 -6.16926
802 2 1.78139 10.6884 19.5953 -7.07069
1051 2 0 12.4698 19.5953 -6.93703
1305 1 0 10.6884 21.3767 -8.60702
1555 2 1.78139 12.4698 21.3767 -6.9928
1803 3 1.78139 14.2511 19.5953 -6.42601
2307 3 0 14.2511 21.3767 -6.54973
293 3 7.12557 14.2511 21.3767 -6.46158
1802 1 5.34418 10.6884 19.5953 -8.46951
2052 3 3.56279 12.4698 19.5953 -6.54848
2305 2 3.56279 10.6884 21.3767 -7.03991
2556 3 5.34418 12.4698 21.3767 -6.51987
2802 2 5.34418 14.2511 19.5953 -6.95165
3052 2 7.12557 12.4698 19.5953 -6.9901
3307 1 3.56279 14.2511 21.3767 -8.7287
3305 2 7.12557 10.6884 21.3767 -7.04967
2801 2 8.90697 10.6884 19.5953 -6.98945
3556 1 8.90697 12.4698 21.3767 -8.33897
3803 1 8.90697 14.2511 19.5953 -8.54154
509 1 12.4698 12.4698 21.3767 -8.62657
36 2 10.6884 12.4698 19.5953 -6.98059
291 3 10.6884 10.6884 21.3767 -6.31515
804 3 12.4698 14.2511 19.5953 -6.36715
1052 2 14.2511 12.4698 19.5953 -6.95065
1309 2 10.6884 14.2511 21.3767 -6.9734
1307 1 14.2511 10.6884 21.3767 -8.06081
2309 3 14.2511 14.2511 21.3767 -6.49625
3802 2 12.4698 10.6884 19.5953 -7.02861
803 2 16.0325 10.6884 19.5953 -6.99893
1161 2 17.8139 12.4698 19.5953 -7.02643
1414 2 17.8139 10.6884 21.3767 -6.97605
1557 1 16.0325 12.4698 21.3767 -8.39738
1804 2 16.0325 14.2511 19.5953 -7.0418
2417 2 17.8139 14.2511 21.3767 -7.1333
345 3 0 17.8139 21.3767 -6.3716
2053 1 0 16.0325 19.5953 -8.46072
2558 3 1.78139 16.0325 21.3767 -6.4365
3860 1 1.78139 17.8139 19.5953 -8.12944
37 2 7.12557 16.0325 19.5953 -6.94175
845 2 5.34418 17.8139 19.5953 -6.98761
1345 2 3.56279 17.8139 21.3767 -6.94805
2360 1 7.12557 17.8139 21.3767 -8.39323
3053 1 3.56279 16.0325 19.5953 -8.31152
3558 3 5.34418 16.0325 21.3767 -6.40455
511 3 8.90697 16.0325 21.3767 -6.33085
1861 3 8.90697 17.8139 19.5953 -6.44772
347 3 14.2511 17.8139 21.3767 -6.50239
1053 3 10.6884 16.0325 19.5953 -6.42781
1559 3 12.4698 16.0325 21.3767 -6.48282
2054 1 14.2511 16.0325 19.5953 -8.67868
2860 3 12.4698 17.8139 19.5953 -6.42382
3360 1 10.6884 17.8139 21.3767 -8.8381