ITEM: TIMESTEP
25
ITEM: NUMBER OF ATOMS
4000
ITEM: BOX BOUNDS pp pp pp
0.0000000000000000e+00 3.5627870000000001e+01
0.0000000000000000e+00 3.5627870000000001e+01
0.0000000000000000e+00 3.5627870000000001e+01
ITEM: ATOMS id type x y z c_peratom
1 2 -0.0188865 0.0249423 -0.00507621 -7.00791
2 2 1.78104 1.78145 0.0141164 -7.0261
3 3 1.77665 0.00741188 1.77637 -6.44977
4 2 -0.033669 1.77108 1.78136 -7.02452
101 3 -0.00976615 -0.00528711 3.57743 -6.6124
102 3 1.76419 1.77286 3.57425 -6.48882
5 1 3.56344 0.0314448 0.0120691 -8.39492
6 1 5.31591 1.78032 0.035075 -8.35186
7 3 5.34497 -0.025723 1.78509 -6.29173
8 2 3.56026 1.77226 1.76847 -6.83905
105 1 3.54604 0.00328785 3.52737 -8.66573
106 3 5.33966 1.78822 3.54979 -6.32562
9 3 7.1255 -0.0202065 -0.00119114 -6.39089
10 3 8.90889 1.79735 -0.0171319 -6.47189
11 3 8.91201 -0.0343329 1.76201 -6.3987
12 1 7.12304 1.76762 1.78771 -8.44463
109 3 7.1448 -0.0249051 3.55188 -6.40433
110 1 8.90045 1.7752 3.58377 -8.53357
13 2 10.6847 -0.0409822 -0.0132009 -6.92086
14 3 12.4664 1.78437 -0.0177579 -6.53098
15 3 12.4544 -0.022301 1.78611 -6.4704
16 3 10.6793 1.76305 1.76758 -6.55201
113 2 10.6658 -0.0266796 3.57206 -6.9402
114 3 12.4689 1.76008 3.57787 -6.51951
17 3 14.2589 -0.0194287 0.0051486 -6.39598
18 3 16.056 1.77031 0.000893329 -6.39508
19 3 16.046 -0.0195991 1.79525 -6.39568
20 3 14.2359 1.78228 1.80799 -6.49125
117 2 14.2455 -0.0566003 3.58274 -6.91682
118 3 16.0318 1.76699 3.56049 -6.53547
21 2 -0.0103164 3.53273 0.0108053 -7.14737
22 3 1.77938 5.34647 0.0110731 -6.57895
23 3 1.78455 3.55844 1.78574 -6.63332
24 3 0.0011077 5.34674 1.78932 -6.57897
121 1 -0.0483777 3.55445 3.55468 -8.63776
122 3 1.78229 5.34619 3.55526 -6.50871
25 3 3.57047 3.57432 -0.00118486 -6.53179
26 2 5.31871 5.33577 -0.00616826 -6.93568
27 2 5.35337 3.57203 1.78722 -6.95492
28 1 3.61119 5.3743 1.79217 -8.59675
125 3 3.56965 3.56797 3.55599 -6.52473
126 2 5.34426 5.34937 3.5756 -6.97358
29 1 7.09494 3.55833 -0.00392281 -8.42607
30 3 8.92233 5.33514 0.018158 -6.55107
31 3 8.89381 3.55571 1.78437 -6.38999
32 1 7.06586 5.34484 1.76554 -8.34588
129 1 7.11275 3.6121 3.59024 -8.15321
130 1 8.9425 5.34046 3.58724 -8.21971
33 2 10.7086 3.56648 -0.0210439 -6.95375
34 2 12.4773 5.31838 -0.0110835 -6.88506
35 1 12.4706 3.56135 1.75547 -8.74077
36 3 10.6972 5.35322 1.7958 -6.39814
133 3 10.6963 3.53146 3.56154 -6.38463
134 3 12.4578 5.34292 3.56674 -6.27944
37 3 14.2528 3.5649 0.0021673 -6.50499
38 1 16.0198 5.34302 0.0193529 -8.85389
39 3 16.0316 3.55436 1.79379 -6.52576
40 2 14.2503 5.33317 1.78878 -6.88958
137 1 14.2323 3.57382 3.57431 -8.70885
138 2 16.0351 5.32594 3.56487 -6.96332
41 3 0.017478 7.14075 -0.00654098 -6.50598
42 2 1.79738 8.90229 0.0201957 -6.88105
43 1 1.80718 7.13248 1.78814 -8.6452
44 3 0.0140152 8.90458 1.78616 -6.53145
141 2 0.0229127 7.13341 3.5665 -6.97883
142 2 1.78403 8.90423 3.55925 -6.95924
45 2 3.548 7.12749 0.000101617 -6.97255
46 1 5.32005 8.88678 -0.013118 -8.6593
47 2 5.3241 7.12445 1.76908 -6.98464
48 2 3.54431 8.8854 1.76599 -7.01452
145 1 3.5763 7.14066 3.57138 -8.49712
146 2 5.34537 8.89152 3.54442 -6.96872
49 3 7.11068 7.12724 0.00986039 -6.43364
50 1 8.89263 8.88142 0.0171502 -8.556
51 2 8.88516 7.12954 1.80738 -6.88868
52 2 7.11089 8.87718 1.78762 -6.92574
149 1 7.06825 7.11102 3.51784 -8.35592
150 3 8.89602 8.89139 3.55164 -6.29449
53 3 10.7104 7.12332 0.0176252 -6.41794
54 3 12.4717 8.90515 0.0127181 -6.24304
55 1 12.4943 7.075 1.7745 -8.5995
56 1 10.7056 8.90752 1.80391 -8.46527
153 2 10.702 7.13833 3.55568 -6.87924
154 2 12.5001 8.90338 3.55009 -6.94586
57 3 14.2511 7.12464 0.00950907 -6.35997
58 3 16.0289 8.89698 0.00873133 -6.44183
59 2 16.0265 7.1266 1.81762 -6.88258
60 1 14.2291 8.89358 1.81542 -8.58901
157 1 14.2938 7.07767 3.54053 -8.38357
158 2 16.0227 8.92224 3.57595 -6.93599
61 2 0.00653825 10.682 0.00693039 -6.9447
62 3 1.77296 12.4777 -0.0110726 -6.38045
63 1 1.8055 10.6773 1.74236 -8.76924
64 3 0.000116956 12.4789 1.76282 -6.60727
161 3 0.0139406 10.6867 3.56053 -6.48308
162 3 1.78069 12.4706 3.54695 -6.52448
65 2 3.56255 10.6768 -0.00688738 -6.96963
66 1 5.36003 12.4916 0.01086 -8.6182
67 3 5.3501 10.6785 1.76485 -6.43995
68 2 3.59187 12.4559 1.74569 -6.89791
165 3 3.56099 10.6938 3.53474 -6.39119
166 1 5.33694 12.4565 3.56939 -8.44603
69 3 7.1069 10.6661 0.00210339 -6.47893
70 3 8.91244 12.4642 -0.0124136 -6.47391
71 3 8.88605 10.6851 1.76978 -6.33346
72 2 7.07579 12.4916 1.77768 -6.85798
169 1 7.10532 10.7026 3.54714 -8.33256
170 3 8.9078 12.4822 3.55483 -6.22948
73 1 10.7261 10.6933 -0.0100133 -8.34125
74 1 12.4775 12.4819 -0.00658827 -8.21289
75 2 12.4842 10.7095 1.77316 -6.95105
76 1 10.6862 12.4702 1.78034 -8.57005
173 3 10.6925 10.6906 3.54195 -6.18722
174 1 12.4821 12.4769 3.51397 -8.24304
77 2 14.2325 10.6935 0.0176498 -6.92557
78 2 15.9987 12.4817 -0.00406874 -6.9072
79 3 16.0333 10.6891 1.77528 -6.4903
80 1 14.2822 12.4933 1.7575 -8.55883
177 3 14.2477 10.6914 3.5563 -6.2478
178 3 16.0406 12.4678 3.56473 -6.48939
81 1 -0.0525613 14.2875 -0.000277714 -8.48243
82 1 1.78275 16.1028 -0.0333055 -8.44489
83 3 1.79591 14.2887 1.76206 -6.52732
84 2 -0.00117661 16.0553 1.75593 -6.99668
181 2 0.0252092 14.2816 3.54204 -6.93327
182 1 1.77496 16.0277 3.57082 -8.75393
85 3 3.57067 14.2923 -0.000373171 -6.40497
86 1 5.36134 16.0283 -0.0603876 -8.64923
87 3 5.32829 14.2856 1.78532 -6.42309
88 2 3.57025 16.0751 1.80363 -6.97288
185 3 3.57387 14.257 3.56052 -6.50269
186 1 5.32718 16.1023 3.59981 -8.66984
89 2 7.1113 14.2707 -0.0202302 -6.94285
90 2 8.92489 16.052 -0.0226881 -6.85589
91 3 8.89213 14.2511 1.74917 -6.42977
92 3 7.10194 16.0503 1.77564 -6.43552
189 1 7.1255 14.2448 3.54538 -8.45599
190 3 8.899 16.0292 3.54346 -6.2735
93 3 10.6972 14.2622 -0.015345 -6.351
94 3 12.4818 16.0347 -0.0139643 -6.24874
95 2 12.4931 14.2459 1.77088 -6.8982
96 1 10.6976 16.0255 1.77357 -8.77362
193 3 10.688 14.2622 3.54104 -6.2262
194 2 12.4745 16.0096 3.52119 -6.82732
97 2 14.2518 14.2749 0.00225383 -6.94304
98 1 16.0723 16.0071 0.0469484 -8.4107
99 2 16.0439 14.26 1.7636 -6.93926
100 1 14.2786 16.0191 1.79035 -8.53237
197 3 14.2614 14.2497 3.54804 -6.34584
198 2 16.0438 16.0255 3.54669 -6.88022
103 1 1.78824 -0.00793623 5.40264 -8.725
104 3 0.000215756 1.75883 5.35937 -6.46539
201 2 -0.009111 -0.0343341 7.13787 -6.93223
202 2 1.80038 1.74678 7.14969 -6.89586
107 1 5.3508 0.0230718 5.32837 -8.53963
108 3 3.55808 1.76083 5.36181 -6.33948
203 2 3.58313 -0.0294684 7.11531 -6.89809
204 2 5.32931 1.76936 7.11423 -6.94786
111 2 8.90175 -0.0147898 5.3466 -7.01153
112 2 7.12577 1.76483 5.30693 -6.94856
205 1 7.10172 0.0418369 7.1387 -8.48916
206 2 8.87545 1.76725 7.089 -6.94934
115 1 12.4548 -0.0362968 5.3438 -8.41977
116 2 10.6636 1.77217 5.33574 -6.97031
207 3 10.6753 -0.0246666 7.10316 -6.5085
208 1 12.4631 1.76512 7.10607 -8.59907
119 1 15.9983 0.000898937 5.35283 -8.57061
120 3 14.2356 1.75876 5.3295 -6.38081
209 2 14.2489 -0.0154456 7.11894 -6.96779
210 3 16.0197 1.76448 7.12169 -6.43422
123 3 1.77918 3.56684 5.34066 -6.5533
124 2 -0.000594468 5.37147 5.34762 -6.89903
211 3 0.0461035 3.56559 7.13643 -6.26869
212 1 1.79102 5.37771 7.0698 -8.42446
127 1 5.29986 3.54761 5.36279 -8.37494
128 2 3.56052 5.35703 5.33539 -6.95364
213 2 3.55767 3.5942 7.1567 -6.96951
214 1 5.31937 5.32373 7.08294 -8.02821
131 2 8.8838 3.57647 5.33483 -6.9408
132 2 7.14062 5.38183 5.34596 -7.02191
215 1 7.11613 3.48471 7.03338 -8.28806
216 1 8.88184 5.36631 7.08637 -8.02783
135 2 12.455 3.53575 5.36701 -6.82553
136 1 10.7257 5.29105 5.35626 -8.27882
217 3 10.6732 3.55162 7.14051 -6.32948
218 1 12.4667 5.33886 7.12401 -8.31369
139 2 16.0385 3.57769 5.32069 -6.98113
140 3 14.2293 5.34771 5.34302 -6.36911
219 3 14.2462 3.54921 7.11634 -6.3639
220 1 15.9977 5.39457 7.1054 -8.65499
143 2 1.77398 7.1283 5.33433 -6.98154
144 1 0.0581566 8.90618 5.33647 -8.28017
221 2 0.0293771 7.14358 7.14875 -7.00273
222 1 1.82706 8.86277 7.14346 -8.17203
147 2 5.35535 7.11806 5.32179 -6.94063
148 3 3.56192 8.89093 5.32885 -6.29458
223 1 3.59521 7.10449 7.09358 -8.24374
224 2 5.31398 8.89314 7.15212 -6.94331
151 1 8.95353 7.14154 5.35344 -8.29202
152 1 7.07231 8.9031 5.34291 -8.0638
225 1 7.04967 7.14834 7.1376 -8.06212
226 3 8.89781 8.89566 7.13296 -6.18503
155 1 12.4502 7.17806 5.30872 -8.45226
156 3 10.6781 8.91888 5.3201 -6.17091
227 2 10.6908 7.11062 7.12516 -6.99262
228 3 12.4591 8.91387 7.10596 -6.12864
159 2 16.006 7.12346 5.33931 -6.93312
160 1 14.3146 8.92488 5.34301 -8.31838
229 2 14.2135 7.14456 7.1185 -6.96708
230 1 16.0966 8.89719 7.1282 -8.46336
163 1 1.83856 10.7249 5.34045 -8.47184
164 1 -0.0122139 12.4615 5.32392 -8.47798
231 1 0.0458186 10.7022 7.16209 -8.16273
232 2 1.77827 12.4538 7.1479 -7.01158
167 1 5.29554 10.6524 5.38027 -8.267
168 2 3.55021 12.4849 5.3682 -6.9325
233 2 3.5595 10.6928 7.13511 -6.94688
234 1 5.31078 12.4997 7.0774 -8.35145
171 1 8.85489 10.7099 5.31823 -8.37422
172 2 7.10052 12.4384 5.31898 -6.9084
235 1 7.10683 10.6903 7.11738 -8.20641
236 3 8.91471 12.4642 7.11641 -6.2375
175 1 12.4651 10.701 5.34488 -8.38966
176 1 10.7377 12.4904 5.33887 -8.25614
237 3 10.6781 10.6881 7.12059 -6.13162
238 1 12.4912 12.5062 7.11635 -8.07097
179 2 16.0472 10.688 5.34774 -7.01442
180 1 14.2737 12.4615 5.36164 -8.41456
239 2 14.2414 10.6838 7.11561 -7.04998
240 2 15.9935 12.4622 7.11977 -7.01814
183 2 1.77836 14.2407 5.36209 -7.01659
184 3 0.0250723 16.0479 5.34972 -6.48463
241 1 0.0157581 14.2301 7.11456 -8.40319
242 2 1.78982 16.0395 7.14317 -6.99613
187 3 5.34233 14.2606 5.31971 -6.28144
188 2 3.54644 16.0373 5.33467 -7.02031
243 2 3.55185 14.2654 7.13707 -7.03272
244 1 5.33542 16.0275 7.10225 -8.37996
191 1 8.88621 14.2496 5.34579 -8.58494
192 2 7.10214 16.0583 5.32071 -6.87958
245 3 7.10901 14.2511 7.10073 -6.28394
246 3 8.89058 16.0558 7.12196 -6.27722
195 1 12.4852 14.2564 5.3322 -8.50569
196 3 10.6828 16.0324 5.3382 -6.31471
247 3 10.6804 14.2549 7.13505 -6.3143
248 3 12.4782 16.0156 7.14235 -6.33163
199 2 16.0124 14.2568 5.3578 -6.98514
200 3 14.2567 16.0399 5.34716 -6.44709
249 2 14.2656 14.2582 7.14402 -6.97972
250 1 16.0112 16.0339 7.15114 -8.65363
251 1 1.78496 -0.0614403 8.88761 -8.25674
252 1 0.0323128 1.75012 8.87871 -8.37405
301 1 0.022631 -0.0208222 10.7363 -8.15215
302 1 1.79036 1.75844 10.7377 -8.29958
303 1 1.86035 -0.0540863 12.5093 -8.19568
304 2 0.0140821 1.73778 12.467 -6.9388
253 2 5.32796 0.0232695 8.8942 -6.92137
254 1 3.57469 1.74244 8.84294 -8.33164
305 2 3.54816 0.0154342 10.6936 -7.02571
306 1 5.31629 1.78601 10.7004 -8.43119
307 1 5.30315 0.00986471 12.4996 -8.59082
308 2 3.5751 1.75305 12.469 -6.93586
255 3 8.88134 -0.00721506 8.88954 -6.51543
256 2 7.06934 1.78479 8.88311 -6.90804
309 3 7.09431 -0.00216081 10.6995 -6.4902
310 3 8.88601 1.76753 10.6943 -6.44268
311 1 8.89927 -0.0279081 12.4667 -8.80636
312 3 7.11492 1.75104 12.4849 -6.3804
257 3 12.4678 -0.00777461 8.88285 -6.36093
258 3 10.6696 1.76623 8.89658 -6.47219
313 3 10.6796 -0.0173274 10.6995 -6.40479
314 3 12.488 1.758 10.6795 -6.33435
315 1 12.5022 -0.00542899 12.4498 -8.64094
316 3 10.6915 1.7647 12.4914 -6.32745
259 2 16.0151 -0.0162028 8.86659 -6.87677
260 1 14.294 1.73658 8.91751 -8.81986
317 2 14.2615 -0.00970189 10.6769 -6.91782
318 3 16.0265 1.76246 10.6819 -6.37833
319 2 15.9884 -0.00494665 12.485 -6.98535
320 1 14.232 1.76198 12.5149 -8.60886
261 3 1.79829 3.54856 8.92654 -6.28398
262 1 0.0385556 5.37264 8.92779 -8.40947
321 3 0.0107589 3.54712 10.6967 -6.36675
322 3 1.79062 5.33718 10.7366 -6.37894
323 2 1.79509 3.51046 12.4864 -6.93527
324 2 -0.0321119 5.33954 12.506 -6.97946
263 1 5.33935 3.56769 8.91013 -8.09412
264 1 3.54303 5.34246 8.96673 -8.40954
325 2 3.57331 3.53345 10.7101 -7.04395
326 2 5.32842 5.3511 10.6915 -6.90763
327 2 5.32908 3.55402 12.4685 -6.89242
328 1 3.5991 5.29608 12.4985 -8.5829
265 3 8.87742 3.56924 8.88785 -6.37771
266 1 7.12006 5.37631 8.95292 -8.29747
329 3 7.11052 3.56484 10.7086 -6.33798
330 3 8.91141 5.34103 10.6959 -6.24095
331 3 8.89953 3.56099 12.4984 -6.40729
332 1 7.08661 5.31935 12.4888 -8.58237
267 3 12.4702 3.55331 8.899 -6.25652
268 1 10.6915 5.38893 8.87075 -8.22944
333 1 10.685 3.53372 10.6984 -8.58108
334 1 12.4846 5.39715 10.6764 -8.38987
335 3 12.4834 3.55611 12.4767 -6.29713
336 3 10.6917 5.34848 12.4744 -6.39797
269 3 16.0106 3.55906 8.9082 -6.30116
270 1 14.2492 5.36549 8.89883 -8.32328
337 3 14.2263 3.56057 10.6801 -6.37608
338 2 16.011 5.34874 10.6785 -6.81357
339 3 16.0188 3.56461 12.4655 -6.36947
340 2 14.2623 5.34306 12.4894 -6.89667
271 2 1.83965 7.11777 8.90685 -6.98945
272 1 0.0071566 8.85441 8.91585 -8.23137
341 3 0.0306305 7.11781 10.7174 -6.30017
342 2 1.80106 8.89821 10.685 -7.05875
343 1 1.79778 7.14717 12.4939 -8.53662
344 2 0.0321162 8.91875 12.4788 -7.02832
273 2 5.31265 7.09595 8.91457 -7.04947
274 1 3.58589 8.97123 8.94701 -8.326
345 2 3.55962 7.11347 10.7093 -7.02786
346 1 5.28846 8.88847 10.7065 -8.4616
347 3 5.32095 7.11601 12.4742 -6.42863
348 2 3.53488 8.926 12.4886 -7.03253
275 1 8.88026 7.11449 8.94267 -8.22186
276 1 7.06686 8.87679 8.91284 -8.2859
349 2 7.09572 7.12605 10.705 -6.93111
350 3 8.89586 8.90433 10.6863 -6.2062
351 1 8.87629 7.15354 12.4429 -8.69156
352 2 7.13254 8.91072 12.4694 -6.8879
277 2 12.4822 7.13785 8.91184 -6.93612
278 1 10.721 8.90043 8.91517 -8.43088
353 3 10.7038 7.13727 10.7074 -6.20702
354 1 12.4955 8.8849 10.7581 -8.29753
355 2 12.4904 7.10341 12.5103 -6.86132
356 2 10.6959 8.90615 12.4776 -6.90938
279 2 16.005 7.12385 8.88744 -6.91306
280 1 14.2553 8.88416 8.84857 -8.36308
357 1 14.2762 7.10595 10.7345 -8.23411
358 3 16.0084 8.91702 10.6725 -6.29258
359 2 16.0569 7.12492 12.4824 -6.94935
360 2 14.2625 8.89371 12.5037 -6.93488
281 2 1.76886 10.6685 8.91273 -7.00197
282 2 0.0364585 12.4974 8.91291 -6.97245
361 1 0.0130333 10.6836 10.6697 -8.48461
362 3 1.7833 12.4918 10.6812 -6.40451
363 2 1.79234 10.7041 12.4494 -7.03534
364 2 -0.000864315 12.4694 12.457 -7.04169
283 2 5.33938 10.7036 8.88777 -6.9383
284 1 3.54904 12.4077 8.89853 -8.30763
365 2 3.56612 10.6963 10.7067 -7.00901
366 1 5.37068 12.4241 10.6915 -8.5724
367 3 5.33674 10.6987 12.4737 -6.49798
368 2 3.55993 12.4774 12.468 -6.99405
285 3 8.90309 10.6732 8.91689 -6.22695
286 3 7.10121 12.4798 8.89995 -6.28183
369 3 7.1167 10.6693 10.685 -6.28891
370 1 8.88182 12.4826 10.6971 -8.37772
371 1 8.87732 10.6549 12.5043 -8.55509
372 2 7.11062 12.4598 12.4648 -6.85078
287 1 12.4873 10.6817 8.89419 -8.186
288 1 10.7038 12.4543 8.91449 -8.30738
373 1 10.6838 10.6959 10.745 -8.04503
374 2 12.4509 12.464 10.6635 -7.00276
375 2 12.4839 10.6768 12.4565 -6.86613
376 1 10.709 12.4697 12.4861 -8.33272
289 2 16.0051 10.6811 8.88956 -6.96415
290 1 14.2763 12.5131 8.90449 -8.48492
377 3 14.2485 10.6802 10.6941 -6.39167
378 3 16.031 12.4756 10.6955 -6.43568
379 1 16.0533 10.6485 12.491 -8.46998
380 3 14.2641 12.4718 12.4677 -6.39211
291 1 1.81781 14.2971 8.89212 -8.31532
292 2 0.0139717 16.0192 8.90516 -6.95788
381 1 -0.017833 14.2617 10.6872 -8.4591
382 2 1.78493 16.0155 10.662 -6.94311
383 1 1.77345 14.2531 12.4784 -8.42477
384 3 0.00217772 16.0309 12.4662 -6.31816
293 1 5.29568 14.256 8.9615 -8.08034
294 2 3.56431 16.0637 8.89448 -7.01153
385 1 3.5895 14.3006 10.7166 -8.2708
386 2 5.3257 16.0593 10.6827 -6.88447
387 3 5.34394 14.257 12.473 -6.34056
388 2 3.55787 16.0334 12.4647 -6.91618
295 3 8.8827 14.256 8.934 -6.28959
296 1 7.09926 16.001 8.94833 -8.42722
389 2 7.08953 14.2383 10.716 -6.87568
390 3 8.89894 16.0285 10.6922 -6.31576
391 3 8.90032 14.2552 12.4743 -6.32591
392 1 7.09771 16.0444 12.445 -8.66864
297 2 12.4888 14.2138 8.93373 -6.87431
298 3 10.6924 16.0492 8.92473 -6.32659
393 1 10.7203 14.2431 10.6868 -8.42953
394 2 12.477 16.0273 10.7038 -6.90247
395 1 12.5155 14.2524 12.4809 -8.34155
396 3 10.6909 16.0238 12.4784 -6.32394
299 2 16.0061 14.2772 8.8944 -6.92934
300 1 14.1932 16.0056 8.96255 -8.47105
397 2 14.2499 14.2632 10.6814 -6.97108
398 1 16.0808 16.0084 10.6922 -8.35643
399 1 16.0341 14.2723 12.4738 -8.60316
400 1 14.2426 16.0457 12.4584 -8.16465
401 1 -0.0225014 -0.0202892 14.1931 -8.33922
402 1 1.81359 1.74322 14.2376 -8.42876
403 3 1.76615 -0.0120077 16.0405 -6.35324
404 3 -0.019416 1.74824 16.0273 -6.41039
405 2 3.58194 -0.0150828 14.2731 -6.96613
406 1 5.32887 1.75061 14.2654 -8.58549
407 2 5.35699 -0.0162141 16.0706 -7.06601
408 2 3.54919 1.7303 16.0378 -6.90151
409 2 7.13727 -0.00473522 14.2559 -7.04184
410 1 8.90048 1.74792 14.2822 -8.62169
411 2 8.92255 -0.00106462 16.0531 -7.05028
412 2 7.14885 1.74849 16.0305 -7.07396
413 3 10.6883 -0.00984305 14.2584 -6.31394
414 1 12.4705 1.77695 14.2877 -8.33639
415 3 12.4748 -0.000554173 16.0579 -6.49597
416 1 10.6712 1.75143 16.0605 -8.44833
417 2 14.2496 -0.0056581 14.2541 -7.02128
418 3 16.0061 1.76792 14.2705 -6.49392
419 1 16.0187 -0.00191885 16.1101 -8.57632
420 2 14.2558 1.79619 16.0326 -6.97155
421 3 -0.000693986 3.54523 14.2532 -6.53116
422 3 1.78417 5.3148 14.2657 -6.36304
423 1 1.7501 3.50288 16.0799 -8.56684
424 2 -0.00173297 5.31636 16.0526 -6.95067
425 3 3.56884 3.52754 14.2598 -6.28748
426 1 5.33775 5.3587 14.2697 -8.31102
427 3 5.34793 3.54184 16.0329 -6.42269
428 1 3.58122 5.3387 16.0173 -8.43472
429 3 7.11137 3.53683 14.2637 -6.36353
430 2 8.86043 5.35884 14.2753 -6.90695
431 2 8.90086 3.54411 16.0461 -7.07763
432 1 7.13146 5.34742 15.9977 -8.69596
433 3 10.6838 3.56376 14.2675 -6.40187
434 1 12.4968 5.33329 14.2226 -8.63357
435 1 12.4876 3.60264 16.0653 -8.43578
436 2 10.6845 5.335 16.0306 -7.081
437 2 14.2439 3.57202 14.2821 -6.96642
438 1 16.0703 5.33488 14.2695 -8.51583
439 2 16.027 3.54428 16.0546 -7.00489
440 3 14.2824 5.34571 16.0382 -6.37494
441 1 -0.0035122 7.0967 14.2955 -8.27746
442 3 1.77129 8.93455 14.2686 -6.50969
443 1 1.76701 7.12986 16.0079 -8.32468
444 2 0.00128364 8.92832 16.0235 -7.02209
445 2 3.52926 7.1066 14.2516 -6.88731
446 3 5.32724 8.90271 14.2661 -6.6152
447 3 5.33365 7.1313 16.0512 -6.43708
448 3 3.53208 8.92148 16.0433 -6.36402
449 3 7.13102 7.14809 14.2471 -6.47012
450 2 8.91937 8.91371 14.2742 -6.949
451 2 8.90704 7.12113 16.0409 -7.08326
452 2 7.15124 8.9357 16.0405 -6.88396
453 3 10.6744 7.11229 14.2561 -6.51895
454 1 12.4538 8.91887 14.2092 -8.47932
455 1 12.4632 7.07331 16.0513 -8.53879
456 2 10.718 8.90606 16.0203 -6.98405
457 3 14.2621 7.12664 14.267 -6.41328
458 2 16.0274 8.90766 14.2723 -6.95365
459 2 16.0564 7.13535 16.0456 -6.96233
460 1 14.282 8.93504 16.0403 -8.35565
461 2 0.0110769 10.7081 14.2594 -7.03741
462 1 1.75769 12.407 14.2206 -8.38882
463 1 1.78645 10.7162 16.0732 -8.64732
464 2 0.00116738 12.4932 16.0165 -7.01923
465 2 3.5711 10.724 14.2666 -6.96779
466 1 5.29178 12.4921 14.2632 -8.74464
467 1 5.32708 10.6832 16.0565 -8.60178
468 3 3.54277 12.488 16.0455 -6.31887
469 3 7.1061 10.6963 14.2652 -6.39367
470 3 8.91178 12.4575 14.2452 -6.34315
471 1 8.90032 10.6935 16.0358 -8.61813
472 3 7.12474 12.4734 16.0422 -6.31977
473 3 10.7033 10.678 14.2449 -6.33183
474 3 12.4914 12.4701 14.2592 -6.33421
475 2 12.4869 10.6833 16.0503 -6.90835
476 1 10.6919 12.4655 16.0052 -8.39964
477 1 14.2655 10.6975 14.2731 -8.36427
478 3 16.0491 12.4889 14.2544 -6.53365
479 2 16.0498 10.6847 16.0369 -7.0421
480 2 14.2481 12.4706 16.0351 -6.96097
481 2 0.0101455 14.2434 14.267 -6.96798
482 3 1.75936 16.0465 14.2444 -6.48666
483 1 1.72523 14.2393 16.0212 -8.54232
484 1 0.00840457 16.0879 16.043 -8.38986
485 3 3.54578 14.2478 14.2523 -6.38219
486 1 5.37684 16.0545 14.2679 -8.55377
487 2 5.35735 14.2409 16.0125 -6.78839
488 3 3.55217 16.0197 16.0259 -6.48884
489 3 7.13475 14.2637 14.2573 -6.39484
490 1 8.96616 16.0803 14.2925 -8.56511
491 2 8.93085 14.2555 16.0182 -6.86994
492 1 7.12899 16.0626 16.0144 -8.56149
493 2 10.6842 14.24 14.2583 -6.93971
494 1 12.4178 16.0155 14.2575 -8.17485
495 1 12.4838 14.2826 16.0196 -8.34035
496 2 10.6794 16.0299 16.0248 -6.89531
497 2 14.2585 14.2643 14.2411 -7.00771
498 2 16.0258 16.0439 14.2172 -7.00165
499 2 16.029 14.2646 16.0558 -6.97067
500 1 14.3089 16.0031 16.0002 -8.2892
501 1 -0.0384464 -0.00859949 17.8353 -8.55036
502 2 1.77347 1.76993 17.8265 -6.96219
503 3 1.77596 -0.0158621 19.5906 -6.32256
504 3 -0.0143732 1.77788 19.5864 -6.64752
601 3 -0.0292406 0.00534443 21.3554 -6.62532
602 2 1.79219 1.81095 21.3558 -6.9647
505 1 3.55562 -0.00565903 17.8202 -8.3518
506 3 5.36444 1.76168 17.8388 -6.53242
507 1 5.36986 -0.0419198 19.6211 -8.21781
508 1 3.58442 1.7701 19.6265 -8.41922
605 1 3.56971 0.00995306 21.3621 -8.36368
606 2 5.36421 1.77565 21.3731 -6.98508
509 2 7.15112 -0.00864061 17.8145 -7.22085
510 2 8.90726 1.76881 17.8308 -7.08157
511 2 8.9026 -0.00745066 19.5956 -7.11312
512 1 7.14404 1.7744 19.6424 -8.4249
609 2 7.13624 -0.015084 21.3797 -6.98959
610 1 8.87989 1.78685 21.3899 -8.3823
513 2 10.6721 -0.0156032 17.8524 -6.99717
514 3 12.4694 1.76996 17.8226 -6.48802
515 2 12.4623 0.000234174 19.6256 -6.95745
516 1 10.6629 1.78702 19.5475 -8.55286
613 3 10.6725 -0.00153436 21.3685 -6.31173
614 1 12.4489 1.76143 21.3949 -8.44103
517 2 14.2475 -0.0117099 17.8549 -6.95155
518 2 16.0197 1.76713 17.8374 -6.94025
519 3 16.05 -0.0150847 19.5855 -6.38287
520 1 14.2611 1.77489 19.5848 -8.68705
617 3 14.2634 -0.0103289 21.3775 -6.37723
618 2 16.0359 1.75148 21.3696 -6.78267
521 2 -0.023634 3.55421 17.8128 -6.98066
522 3 1.77394 5.33361 17.8096 -6.24387
523 2 1.77952 3.53093 19.5826 -6.96981
524 1 -0.0181884 5.31214 19.6153 -8.32959
621 2 -0.00133852 3.56267 21.3944 -7.02422
622 3 1.77962 5.31707 21.3697 -6.2175
525 3 3.56502 3.54291 17.8135 -6.35777
526 3 5.33683 5.34293 17.815 -6.4438
527 3 5.37168 3.56829 19.6129 -6.53236
528 1 3.52347 5.31409 19.5964 -8.57739
625 2 3.56434 3.54798 21.3661 -6.98344
626 2 5.33112 5.36068 21.3812 -7.08721
529 2 7.16864 3.55797 17.8128 -7.11284
530 2 8.90173 5.34667 17.8168 -7.20736
531 2 8.90048 3.55667 19.6055 -7.10565
532 2 7.13986 5.34378 19.6196 -7.04152
629 2 7.12909 3.58827 21.4087 -7.03392
630 1 8.90312 5.35325 21.3599 -8.50668
533 2 10.6721 3.57121 17.8135 -7.14089
534 2 12.4461 5.33447 17.8167 -7.00521
535 2 12.4618 3.53774 19.6008 -7.02471
536 2 10.7022 5.3388 19.6038 -7.0717
633 3 10.6925 3.55077 21.3799 -6.30149
634 1 12.4496 5.35662 21.3288 -8.74295
537 2 14.2558 3.55553 17.8333 -7.02833
538 1 16.0653 5.3683 17.8126 -8.47096
539 3 16.0392 3.56982 19.6137 -6.29769
540 3 14.2587 5.34884 19.5916 -6.49568
637 3 14.2501 3.55873 21.3701 -6.35396
638 1 16.0554 5.38712 21.3718 -8.81158
541 1 0.0231467 7.12995 17.7439 -8.25967
542 2 1.77054 8.89558 17.8049 -7.02509
543 1 1.74897 7.14062 19.6386 -8.32502
544 3 -0.00160157 8.91317 19.5822 -6.54584
641 2 -0.00867596 7.11892 21.369 -6.93405
642 2 1.78253 8.93556 21.3669 -7.04687
545 1 3.54611 7.14543 17.8488 -8.33556
546 3 5.33003 8.92891 17.8399 -6.38993
547 2 5.32745 7.12472 19.6059 -7.0207
548 1 3.53457 8.93625 19.6102 -8.46848
645 2 3.54245 7.12274 21.3336 -6.98151
646 2 5.315 8.89912 21.3652 -6.9819
549 3 7.1143 7.12593 17.8189 -6.60046
550 3 8.9122 8.91083 17.8156 -6.54556
551 3 8.90709 7.12823 19.6135 -6.64062
552 1 7.11638 8.91878 19.6255 -8.70381
649 2 7.11712 7.13513 21.3749 -6.98648
650 3 8.92028 8.90781 21.3757 -6.4975
553 2 10.6912 7.1129 17.8008 -7.16111
554 3 12.4856 8.90708 17.7986 -6.47615
555 2 12.4564 7.14079 19.5973 -7.07502
556 2 10.7205 8.91593 19.5939 -7.02188
653 2 10.7111 7.10298 21.3731 -7.0546
654 2 12.4677 8.91741 21.3705 -7.06484
557 3 14.272 7.12713 17.8194 -6.42232
558 1 16.0775 8.9215 17.7995 -8.22431
559 2 16.0658 7.14037 19.6006 -6.96652
560 1 14.2654 8.94007 19.5881 -8.53616
657 3 14.2719 7.13332 21.3572 -6.45384
658 2 16.0329 8.91755 21.3604 -6.89993
561 2 -0.000847475 10.7216 17.8071 -7.09522
562 2 1.74833 12.4673 17.8085 -7.00581
563 2 1.77894 10.7005 19.5896 -7.05843
564 2 -0.0160718 12.4837 19.5831 -7.14452
661 2 -0.0070161 10.704 21.3624 -7.12711
662 2 1.76202 12.4616 21.3866 -7.07382
565 2 3.53862 10.7111 17.8148 -6.94942
566 1 5.35647 12.4799 17.8189 -8.49824
567 3 5.32207 10.7063 19.6075 -6.33719
568 1 3.48513 12.4449 19.5828 -8.62145
665 2 3.5322 10.6965 21.3928 -6.97644
666 3 5.32846 12.4797 21.369 -6.35108
569 3 7.13572 10.6968 17.8233 -6.32796
570 1 8.93513 12.4693 17.8186 -8.56791
571 3 8.93357 10.6875 19.6141 -6.36916
572 3 7.14639 12.4761 19.6119 -6.3424
669 1 7.09757 10.699 21.3955 -8.44753
670 2 8.93385 12.4584 21.3985 -6.92398
573 1 10.7104 10.6524 17.7942 -8.4324
574 1 12.5003 12.4787 17.7935 -8.40994
575 2 12.4851 10.6855 19.6011 -7.04723
576 3 10.6994 12.467 19.5914 -6.43365
673 1 10.724 10.6674 21.3747 -8.80702
674 2 12.4621 12.4351 21.3929 -6.98651
577 2 14.2605 10.6835 17.793 -6.94844
578 1 15.9499 12.4354 17.7963 -8.53437
579 2 16.0213 10.6836 19.5773 -7.00533
580 3 14.245 12.4599 19.6055 -6.47034
677 2 14.2719 10.6781 21.3837 -6.99503
678 1 16.0368 12.4677 21.3849 -8.75503
581 2 -0.0298668 14.2525 17.7955 -7.08974
582 2 1.74489 16.0463 17.8224 -7.03054
583 3 1.76806 14.2609 19.5911 -6.63887
584 2 -0.0408837 16.0252 19.5824 -7.04545
681 2 -0.00952923 14.2703 21.3965 -7.07663
682 1 1.77569 16.0329 21.3552 -8.62253
585 3 3.54794 14.2601 17.8106 -6.45804
586 3 5.35821 16.0305 17.8006 -6.36358
587 1 5.33893 14.2846 19.6 -8.39396
588 2 3.56517 16.0533 19.5924 -6.9512
685 3 3.5482 14.2614 21.3658 -6.3877
686 1 5.32026 16.0686 21.4112 -8.45333
589 3 7.13525 14.2525 17.8076 -6.41183
590 3 8.90737 16.0337 17.8217 -6.51198
591 2 8.92099 14.2325 19.6362 -6.89938
592 2 7.14329 16 19.6282 -6.88422
689 1 7.1867 14.2499 21.38 -8.40046
690 2 8.92382 16.0347 21.3777 -6.95482
593 3 10.6876 14.243 17.7921 -6.39616
594 3 12.4725 16.0358 17.8082 -6.30502
595 3 12.4722 14.2393 19.6073 -6.45179
596 3 10.677 16.0351 19.6209 -6.39525
693 1 10.6478 14.2685 21.4244 -8.79977
694 3 12.4613 16.0423 21.3809 -6.40276
597 2 14.2794 14.2704 17.7992 -6.89823
598 2 16.0502 16.0386 17.8002 -6.90973
599 3 16.037 14.233 19.5885 -6.31682
600 1 14.2678 16.0005 19.5636 -8.59517
697 3 14.2561 14.2334 21.3865 -6.45372
698 3 16.0445 16.0339 21.3755 -6.3612
603 3 1.77657 -0.00384814 23.159 -6.48181
604 3 0.00506223 1.78587 23.1838 -6.53635
701 2 -0.00503315 0.0101831 24.9603 -6.84832
702 2 1.7869 1.80742 24.948 -6.9054
607 1 5.41836 0.0230622 23.0977 -8.57314
608 3 3.56399 1.77058 23.1427 -6.43257
703 3 3.57549 0.00129453 24.9251 -6.43881
704 3 5.34119 1.78215 24.9388 -6.3748
611 1 8.90569 -0.0164241 23.1649 -8.41576
612 2 7.1202 1.78962 23.1253 -6.87283
705 3 7.11596 0.0171179 24.9494 -6.33553
706 3 8.91742 1.75903 24.9331 -6.32569
615 1 12.4714 -0.0277619 23.1543 -8.28278
616 2 10.7242 1.73482 23.153 -6.80804
707 2 10.7187 -0.0172711 24.9107 -7.02043
708 1 12.4741 1.77646 24.939 -8.16838
619 2 16.044 -0.00628938 23.167 -6.90594
620 1 14.2833 1.78479 23.1597 -8.55816
709 2 14.2589 0.0240822 24.9441 -7.0252
710 3 16.0431 1.78089 24.9521 -6.43132
623 1 1.80967 3.5474 23.1683 -8.60873
624 1 -0.0175573 5.35001 23.121 -8.12134
711 2 -0.0284029 3.55913 24.9282 -7.0283
712 3 1.79313 5.35179 24.9255 -6.38954
627 1 5.30712 3.55438 23.1295 -8.4772
628 2 3.53774 5.34363 23.1485 -6.8925
713 2 3.57262 3.57265 24.9407 -6.92204
714 3 5.33671 5.35018 24.9168 -6.32899
631 3 8.91456 3.56671 23.1465 -6.33842
632 1 7.17712 5.38655 23.1906 -8.45495
715 1 7.14443 3.53535 24.911 -8.28277
716 2 8.88765 5.38259 24.9385 -6.92562
635 3 12.4757 3.56539 23.147 -6.34653
636 1 10.6592 5.37374 23.1631 -8.62697
717 3 10.6775 3.57048 24.9293 -6.30813
718 3 12.4711 5.33725 24.9424 -6.56016
639 3 16.0453 3.56762 23.1346 -6.3904
640 3 14.2648 5.34803 23.1463 -6.47369
719 2 14.272 3.56901 24.9475 -6.96428
720 1 16.0495 5.36755 24.9462 -8.60498
643 1 1.81635 7.13942 23.0837 -8.31525
644 3 -0.00323904 8.90687 23.1564 -6.42039
721 1 0.0296364 7.14884 24.9637 -8.49809
722 2 1.77338 8.90934 24.9169 -6.94282
647 3 5.33279 7.13224 23.1355 -6.49594
648 1 3.53292 8.92093 23.1206 -8.4144
723 1 3.55334 7.15739 24.947 -8.49202
724 3 5.34924 8.91323 24.922 -6.42197
651 2 8.91102 7.12678 23.1381 -6.99269
652 1 7.12697 8.91396 23.1047 -8.6566
725 2 7.12893 7.13548 24.9426 -6.9348
726 3 8.91282 8.9027 24.9186 -6.46939
655 3 12.4831 7.12882 23.1314 -6.53752
656 2 10.7137 8.89614 23.1615 -7.071
727 2 10.7025 7.10955 24.9362 -7.04439
728 2 12.4757 8.92108 24.9281 -7.06352
659 2 16.0392 7.15765 23.1444 -6.89778
660 1 14.2575 8.92893 23.1229 -8.64958
729 3 14.2767 7.13317 24.9349 -6.50917
730 1 16.049 8.92841 24.9878 -8.50489
663 1 1.72638 10.697 23.1784 -8.53164
664 2 0.00374869 12.4739 23.1599 -6.99227
731 2 -0.0126721 10.7104 24.9312 -6.92115
732 2 1.77537 12.4689 24.9258 -6.98209
667 2 5.32299 10.674 23.1037 -6.86502
668 1 3.5272 12.4805 23.1424 -8.71441
733 3 3.55658 10.6874 24.9128 -6.26703
734 3 5.33373 12.442 24.9065 -6.21165
671 2 8.93996 10.6626 23.1154 -6.94258
672 1 7.17385 12.438 23.1513 -8.53214
735 3 7.12615 10.6705 24.909 -6.28248
736 3 8.92634 12.4465 24.9221 -6.28502
675 2 12.4827 10.6782 23.1543 -7.03129
676 3 10.6982 12.457 23.1413 -6.43375
737 1 10.7512 10.6664 24.9297 -8.67546
738 2 12.473 12.4715 24.9433 -6.94389
679 3 16.0422 10.6645 23.1563 -6.43632
680 1 14.1994 12.4342 23.1871 -8.59153
739 2 14.272 10.6667 24.9357 -7.01594
740 2 16.0162 12.4498 24.9423 -6.92614
683 2 1.78326 14.2683 23.1536 -7.00152
684 2 0.00343428 16.0321 23.1459 -6.97156
741 1 0.0246025 14.2306 24.8952 -8.39561
742 1 1.80974 16.0305 24.9178 -8.52142
687 3 5.33985 14.247 23.1399 -6.41319
688 2 3.54102 16.0376 23.1533 -6.91831
743 2 3.55043 14.248 24.9112 -6.94578
744 1 5.3332 16.0751 24.8832 -8.60973
691 2 8.93397 14.2668 23.1505 -6.92526
692 2 7.15567 16.0267 23.1355 -6.95968
745 3 7.11993 14.2501 24.9129 -6.29223
746 1 8.93238 16.033 24.9363 -8.30914
695 2 12.4526 14.2287 23.136 -6.93878
696 2 10.6749 16.0303 23.1702 -6.94981
747 1 10.749 14.2261 24.9264 -8.38796
748 1 12.4266 16.0455 24.9026 -8.40263
699 3 16.022 14.2393 23.1545 -6.5165
700 3 14.2354 16.0545 23.1377 -6.44365
749 3 14.2383 14.2524 24.9298 -6.37907
750 3 16.0247 16.0566 24.9351 -6.3256
751 3 1.78558 -0.00333802 26.7184 -6.48138
752 1 0.0180304 1.76413 26.7004 -8.58071
801 3 -0.000430646 0.0149524 28.5128 -6.45116
802 2 1.80462 1.78296 28.495 -6.90829
803 2 1.78531 0.00157525 30.2869 -7.03626
804 1 0.0258379 1.76948 30.2444 -8.51378
753 2 5.33899 -0.00603721 26.7537 -6.92837