ITEM: TIMESTEP
0
ITEM: NUMBER OF ATOMS
4000
ITEM: BOX BOUNDS pp pp pp
0.0000000000000000e+00 3.6322460000000000e+01
0.0000000000000000e+00 3.6322460000000000e+01
0.0000000000000000e+00 3.6322460000000000e+01
ITEM: ATOMS id type x y z
1 1 0 0 0
2 1 1.81612 1.81612 0
3 2 1.81612 0 1.81612
4 3 0 1.81612 1.81612
101 1 0 0 3.63225
102 3 1.81612 1.81612 3.63225
5 3 3.63225 0 0
6 1 5.44837 1.81612 0
7 3 5.44837 0 1.81612
8 3 3.63225 1.81612 1.81612
105 3 3.63225 0 3.63225
106 3 5.44837 1.81612 3.63225
9 1 7.26449 0 0
10 2 9.08061 1.81612 0
11 1 9.08061 0 1.81612
12 1 7.26449 1.81612 1.81612
109 3 7.26449 0 3.63225
110 2 9.08061 1.81612 3.63225
13 1 10.8967 0 0
14 2 12.7129 1.81612 0
15 1 12.7129 0 1.81612
16 3 10.8967 1.81612 1.81612
113 2 10.8967 0 3.63225
114 3 12.7129 1.81612 3.63225
17 2 14.529 0 0
18 2 16.3451 1.81612 0
19 3 16.3451 0 1.81612
20 3 14.529 1.81612 1.81612
117 2 14.529 0 3.63225
118 3 16.3451 1.81612 3.63225
21 3 0 3.63225 0
22 2 1.81612 5.44837 0
23 1 1.81612 3.63225 1.81612
24 2 0 5.44837 1.81612
121 3 0 3.63225 3.63225
122 1 1.81612 5.44837 3.63225
25 1 3.63225 3.63225 0
26 1 5.44837 5.44837 0
27 2 5.44837 3.63225 1.81612
28 3 3.63225 5.44837 1.81612
125 3 3.63225 3.63225 3.63225
126 2 5.44837 5.44837 3.63225
29 2 7.26449 3.63225 0
30 2 9.08061 5.44837 0
31 2 9.08061 3.63225 1.81612
32 1 7.26449 5.44837 1.81612
129 3 7.26449 3.63225 3.63225
130 2 9.08061 5.44837 3.63225
33 3 10.8967 3.63225 0
34 1 12.7129 5.44837 0
35 2 12.7129 3.63225 1.81612
36 1 10.8967 5.44837 1.81612
133 1 10.8967 3.63225 3.63225
134 3 12.7129 5.44837 3.63225
37 2 14.529 3.63225 0
38 2 16.3451 5.44837 0
39 2 16.3451 3.63225 1.81612
40 2 14.529 5.44837 1.81612
137 1 14.529 3.63225 3.63225
138 3 16.3451 5.44837 3.63225
41 3 0 7.26449 0
42 3 1.81612 9.08061 0
43 3 1.81612 7.26449 1.81612
44 1 0 9.08061 1.81612
141 1 0 7.26449 3.63225
142 2 1.81612 9.08061 3.63225
45 2 3.63225 7.26449 0
46 1 5.44837 9.08061 0
47 3 5.44837 7.26449 1.81612
48 2 3.63225 9.08061 1.81612
145 1 3.63225 7.26449 3.63225
146 1 5.44837 9.08061 3.63225
49 1 7.26449 7.26449 0
50 1 9.08061 9.08061 0
51 2 9.08061 7.26449 1.81612
52 3 7.26449 9.08061 1.81612
149 3 7.26449 7.26449 3.63225
150 3 9.08061 9.08061 3.63225
53 1 10.8967 7.26449 0
54 3 12.7129 9.08061 0
55 3 12.7129 7.26449 1.81612
56 2 10.8967 9.08061 1.81612
153 3 10.8967 7.26449 3.63225
154 1 12.7129 9.08061 3.63225
57 2 14.529 7.26449 0
58 3 16.3451 9.08061 0
59 1 16.3451 7.26449 1.81612
60 1 14.529 9.08061 1.81612
157 1 14.529 7.26449 3.63225
158 1 16.3451 9.08061 3.63225
61 3 0 10.8967 0
62 1 1.81612 12.7129 0
63 2 1.81612 10.8967 1.81612
64 2 0 12.7129 1.81612
161 2 0 10.8967 3.63225
162 1 1.81612 12.7129 3.63225
65 1 3.63225 10.8967 0
66 3 5.44837 12.7129 0
67 2 5.44837 10.8967 1.81612
68 2 3.63225 12.7129 1.81612
165 2 3.63225 10.8967 3.63225
166 3 5.44837 12.7129 3.63225
69 1 7.26449 10.8967 0
70 3 9.08061 12.7129 0
71 2 9.08061 10.8967 1.81612
72 2 7.26449 12.7129 1.81612
169 2 7.26449 10.8967 3.63225
170 2 9.08061 12.7129 3.63225
73 2 10.8967 10.8967 0
74 1 12.7129 12.7129 0
75 1 12.7129 10.8967 1.81612
76 3 10.8967 12.7129 1.81612
173 1 10.8967 10.8967 3.63225
174 1 12.7129 12.7129 3.63225
77 3 14.529 10.8967 0
78 3 16.3451 12.7129 0
79 3 16.3451 10.8967 1.81612
80 2 14.529 12.7129 1.81612
177 3 14.529 10.8967 3.63225
178 1 16.3451 12.7129 3.63225
81 2 0 14.529 0
82 3 1.81612 16.3451 0
83 1 1.81612 14.529 1.81612
84 1 0 16.3451 1.81612
181 1 0 14.529 3.63225
182 2 1.81612 16.3451 3.63225
85 1 3.63225 14.529 0
86 3 5.44837 16.3451 0
87 2 5.44837 14.529 1.81612
88 3 3.63225 16.3451 1.81612
185 3 3.63225 14.529 3.63225
186 3 5.44837 16.3451 3.63225
89 2 7.26449 14.529 0
90 2 9.08061 16.3451 0
91 1 9.08061 14.529 1.81612
92 3 7.26449 16.3451 1.81612
189 2 7.26449 14.529 3.63225
190 3 9.08061 16.3451 3.63225
93 1 10.8967 14.529 0
94 1 12.7129 16.3451 0
95 2 12.7129 14.529 1.81612
96 1 10.8967 16.3451 1.81612
193 3 10.8967 14.529 3.63225
194 1 12.7129 16.3451 3.63225
97 3 14.529 14.529 0
98 3 16.3451 16.3451 0
99 2 16.3451 14.529 1.81612
100 3 14.529 16.3451 1.81612
197 3 14.529 14.529 3.63225
198 1 16.3451 16.3451 3.63225
103 3 1.81612 0 5.44837
104 3 0 1.81612 5.44837
201 2 0 0 7.26449
202 2 1.81612 1.81612 7.26449
107 1 5.44837 0 5.44837
108 2 3.63225 1.81612 5.44837
203 1 3.63225 0 7.26449
204 2 5.44837 1.81612 7.26449
111 3 9.08061 0 5.44837
112 3 7.26449 1.81612 5.44837
205 2 7.26449 0 7.26449
206 2 9.08061 1.81612 7.26449
115 3 12.7129 0 5.44837
116 2 10.8967 1.81612 5.44837
207 3 10.8967 0 7.26449
208 1 12.7129 1.81612 7.26449
119 3 16.3451 0 5.44837
120 2 14.529 1.81612 5.44837
209 3 14.529 0 7.26449
210 2 16.3451 1.81612 7.26449
123 2 1.81612 3.63225 5.44837
124 1 0 5.44837 5.44837
211 2 0 3.63225 7.26449
212 3 1.81612 5.44837 7.26449
127 3 5.44837 3.63225 5.44837
128 2 3.63225 5.44837 5.44837
213 2 3.63225 3.63225 7.26449
214 3 5.44837 5.44837 7.26449
131 1 9.08061 3.63225 5.44837
132 2 7.26449 5.44837 5.44837
215 1 7.26449 3.63225 7.26449
216 2 9.08061 5.44837 7.26449
135 1 12.7129 3.63225 5.44837
136 1 10.8967 5.44837 5.44837
217 3 10.8967 3.63225 7.26449
218 2 12.7129 5.44837 7.26449
139 1 16.3451 3.63225 5.44837
140 1 14.529 5.44837 5.44837
219 1 14.529 3.63225 7.26449
220 3 16.3451 5.44837 7.26449
143 1 1.81612 7.26449 5.44837
144 1 0 9.08061 5.44837
221 2 0 7.26449 7.26449
222 1 1.81612 9.08061 7.26449
147 1 5.44837 7.26449 5.44837
148 2 3.63225 9.08061 5.44837
223 2 3.63225 7.26449 7.26449
224 2 5.44837 9.08061 7.26449
151 2 9.08061 7.26449 5.44837
152 3 7.26449 9.08061 5.44837
225 1 7.26449 7.26449 7.26449
226 1 9.08061 9.08061 7.26449
155 1 12.7129 7.26449 5.44837
156 2 10.8967 9.08061 5.44837
227 2 10.8967 7.26449 7.26449
228 3 12.7129 9.08061 7.26449
159 2 16.3451 7.26449 5.44837
160 1 14.529 9.08061 5.44837
229 1 14.529 7.26449 7.26449
230 3 16.3451 9.08061 7.26449
163 3 1.81612 10.8967 5.44837
164 1 0 12.7129 5.44837
231 2 0 10.8967 7.26449
232 1 1.81612 12.7129 7.26449
167 3 5.44837 10.8967 5.44837
168 1 3.63225 12.7129 5.44837
233 1 3.63225 10.8967 7.26449
234 2 5.44837 12.7129 7.26449
171 2 9.08061 10.8967 5.44837
172 3 7.26449 12.7129 5.44837
235 1 7.26449 10.8967 7.26449
236 2 9.08061 12.7129 7.26449
175 1 12.7129 10.8967 5.44837
176 3 10.8967 12.7129 5.44837
237 3 10.8967 10.8967 7.26449
238 1 12.7129 12.7129 7.26449
179 2 16.3451 10.8967 5.44837
180 1 14.529 12.7129 5.44837
239 3 14.529 10.8967 7.26449
240 1 16.3451 12.7129 7.26449
183 3 1.81612 14.529 5.44837
184 3 0 16.3451 5.44837
241 2 0 14.529 7.26449
242 3 1.81612 16.3451 7.26449
187 3 5.44837 14.529 5.44837
188 3 3.63225 16.3451 5.44837
243 1 3.63225 14.529 7.26449
244 2 5.44837 16.3451 7.26449
191 2 9.08061 14.529 5.44837
192 2 7.26449 16.3451 5.44837
245 2 7.26449 14.529 7.26449
246 1 9.08061 16.3451 7.26449
195 1 12.7129 14.529 5.44837
196 3 10.8967 16.3451 5.44837
247 2 10.8967 14.529 7.26449
248 2 12.7129 16.3451 7.26449
199 1 16.3451 14.529 5.44837
200 2 14.529 16.3451 5.44837
249 2 14.529 14.529 7.26449
250 3 16.3451 16.3451 7.26449
251 2 1.81612 0 9.08061
252 2 0 1.81612 9.08061
301 1 0 0 10.8967
302 3 1.81612 1.81612 10.8967
303 3 1.81612 0 12.7129
304 2 0 1.81612 12.7129
253 1 5.44837 0 9.08061
254 1 3.63225 1.81612 9.08061
305 1 3.63225 0 10.8967
306 1 5.44837 1.81612 10.8967
307 1 5.44837 0 12.7129
308 3 3.63225 1.81612 12.7129
255 1 9.08061 0 9.08061
256 2 7.26449 1.81612 9.08061
309 2 7.26449 0 10.8967
310 2 9.08061 1.81612 10.8967
311 2 9.08061 0 12.7129
312 3 7.26449 1.81612 12.7129
257 2 12.7129 0 9.08061
258 2 10.8967 1.81612 9.08061
313 1 10.8967 0 10.8967
314 1 12.7129 1.81612 10.8967
315 2 12.7129 0 12.7129
316 2 10.8967 1.81612 12.7129
259 3 16.3451 0 9.08061
260 3 14.529 1.81612 9.08061
317 1 14.529 0 10.8967
318 1 16.3451 1.81612 10.8967
319 3 16.3451 0 12.7129
320 3 14.529 1.81612 12.7129
261 2 1.81612 3.63225 9.08061
262 1 0 5.44837 9.08061
321 3 0 3.63225 10.8967
322 1 1.81612 5.44837 10.8967
323 3 1.81612 3.63225 12.7129
324 3 0 5.44837 12.7129
263 1 5.44837 3.63225 9.08061
264 2 3.63225 5.44837 9.08061
325 1 3.63225 3.63225 10.8967
326 2 5.44837 5.44837 10.8967
327 1 5.44837 3.63225 12.7129
328 3 3.63225 5.44837 12.7129
265 1 9.08061 3.63225 9.08061
266 3 7.26449 5.44837 9.08061
329 3 7.26449 3.63225 10.8967
330 1 9.08061 5.44837 10.8967
331 3 9.08061 3.63225 12.7129
332 3 7.26449 5.44837 12.7129
267 3 12.7129 3.63225 9.08061
268 2 10.8967 5.44837 9.08061
333 1 10.8967 3.63225 10.8967
334 3 12.7129 5.44837 10.8967
335 2 12.7129 3.63225 12.7129
336 2 10.8967 5.44837 12.7129
269 3 16.3451 3.63225 9.08061
270 3 14.529 5.44837 9.08061
337 1 14.529 3.63225 10.8967
338 1 16.3451 5.44837 10.8967
339 2 16.3451 3.63225 12.7129
340 2 14.529 5.44837 12.7129
271 3 1.81612 7.26449 9.08061
272 3 0 9.08061 9.08061
341 1 0 7.26449 10.8967
342 3 1.81612 9.08061 10.8967
343 3 1.81612 7.26449 12.7129
344 2 0 9.08061 12.7129
273 1 5.44837 7.26449 9.08061
274 2 3.63225 9.08061 9.08061
345 1 3.63225 7.26449 10.8967
346 2 5.44837 9.08061 10.8967
347 1 5.44837 7.26449 12.7129
348 2 3.63225 9.08061 12.7129
275 1 9.08061 7.26449 9.08061
276 2 7.26449 9.08061 9.08061
349 1 7.26449 7.26449 10.8967
350 2 9.08061 9.08061 10.8967
351 3 9.08061 7.26449 12.7129
352 1 7.26449 9.08061 12.7129
277 2 12.7129 7.26449 9.08061
278 1 10.8967 9.08061 9.08061
353 2 10.8967 7.26449 10.8967
354 3 12.7129 9.08061 10.8967
355 3 12.7129 7.26449 12.7129
356 2 10.8967 9.08061 12.7129
279 1 16.3451 7.26449 9.08061
280 2 14.529 9.08061 9.08061
357 3 14.529 7.26449 10.8967
358 3 16.3451 9.08061 10.8967
359 3 16.3451 7.26449 12.7129
360 3 14.529 9.08061 12.7129
281 1 1.81612 10.8967 9.08061
282 3 0 12.7129 9.08061
361 2 0 10.8967 10.8967
362 2 1.81612 12.7129 10.8967
363 1 1.81612 10.8967 12.7129
364 3 0 12.7129 12.7129
283 3 5.44837 10.8967 9.08061
284 2 3.63225 12.7129 9.08061
365 3 3.63225 10.8967 10.8967
366 3 5.44837 12.7129 10.8967
367 2 5.44837 10.8967 12.7129
368 1 3.63225 12.7129 12.7129
285 3 9.08061 10.8967 9.08061
286 1 7.26449 12.7129 9.08061
369 1 7.26449 10.8967 10.8967
370 3 9.08061 12.7129 10.8967
371 3 9.08061 10.8967 12.7129
372 3 7.26449 12.7129 12.7129
287 1 12.7129 10.8967 9.08061
288 2 10.8967 12.7129 9.08061
373 3 10.8967 10.8967 10.8967
374 1 12.7129 12.7129 10.8967
375 3 12.7129 10.8967 12.7129
376 1 10.8967 12.7129 12.7129
289 1 16.3451 10.8967 9.08061
290 2 14.529 12.7129 9.08061
377 3 14.529 10.8967 10.8967
378 2 16.3451 12.7129 10.8967
379 1 16.3451 10.8967 12.7129
380 3 14.529 12.7129 12.7129
291 3 1.81612 14.529 9.08061
292 1 0 16.3451 9.08061
381 1 0 14.529 10.8967
382 1 1.81612 16.3451 10.8967
383 3 1.81612 14.529 12.7129
384 1 0 16.3451 12.7129
293 3 5.44837 14.529 9.08061
294 1 3.63225 16.3451 9.08061
385 1 3.63225 14.529 10.8967
386 1 5.44837 16.3451 10.8967
387 3 5.44837 14.529 12.7129
388 3 3.63225 16.3451 12.7129
295 3 9.08061 14.529 9.08061
296 2 7.26449 16.3451 9.08061
389 2 7.26449 14.529 10.8967
390 3 9.08061 16.3451 10.8967
391 2 9.08061 14.529 12.7129
392 3 7.26449 16.3451 12.7129
297 3 12.7129 14.529 9.08061
298 3 10.8967 16.3451 9.08061
393 3 10.8967 14.529 10.8967
394 1 12.7129 16.3451 10.8967
395 1 12.7129 14.529 12.7129
396 1 10.8967 16.3451 12.7129
299 2 16.3451 14.529 9.08061
300 3 14.529 16.3451 9.08061
397 1 14.529 14.529 10.8967
398 3 16.3451 16.3451 10.8967
399 3 16.3451 14.529 12.7129
400 2 14.529 16.3451 12.7129
401 3 0 0 14.529
402 1 1.81612 1.81612 14.529
403 3 1.81612 0 16.3451
404 2 0 1.81612 16.3451
405 3 3.63225 0 14.529
406 1 5.44837 1.81612 14.529
407 1 5.44837 0 16.3451
408 3 3.63225 1.81612 16.3451
409 1 7.26449 0 14.529
410 1 9.08061 1.81612 14.529
411 1 9.08061 0 16.3451
412 3 7.26449 1.81612 16.3451
413 2 10.8967 0 14.529
414 3 12.7129 1.81612 14.529
415 1 12.7129 0 16.3451
416 2 10.8967 1.81612 16.3451
417 3 14.529 0 14.529
418 1 16.3451 1.81612 14.529
419 2 16.3451 0 16.3451
420 1 14.529 1.81612 16.3451
421 2 0 3.63225 14.529
422 1 1.81612 5.44837 14.529
423 2 1.81612 3.63225 16.3451
424 3 0 5.44837 16.3451
425 3 3.63225 3.63225 14.529
426 2 5.44837 5.44837 14.529
427 2 5.44837 3.63225 16.3451
428 2 3.63225 5.44837 16.3451
429 3 7.26449 3.63225 14.529
430 1 9.08061 5.44837 14.529
431 2 9.08061 3.63225 16.3451
432 2 7.26449 5.44837 16.3451
433 3 10.8967 3.63225 14.529
434 2 12.7129 5.44837 14.529
435 1 12.7129 3.63225 16.3451
436 2 10.8967 5.44837 16.3451
437 3 14.529 3.63225 14.529
438 1 16.3451 5.44837 14.529
439 3 16.3451 3.63225 16.3451
440 3 14.529 5.44837 16.3451
441 3 0 7.26449 14.529
442 3 1.81612 9.08061 14.529
443 3 1.81612 7.26449 16.3451
444 2 0 9.08061 16.3451
445 3 3.63225 7.26449 14.529
446 2 5.44837 9.08061 14.529
447 3 5.44837 7.26449 16.3451
448 3 3.63225 9.08061 16.3451
449 2 7.26449 7.26449 14.529
450 3 9.08061 9.08061 14.529
451 1 9.08061 7.26449 16.3451
452 2 7.26449 9.08061 16.3451
453 2 10.8967 7.26449 14.529
454 2 12.7129 9.08061 14.529
455 3 12.7129 7.26449 16.3451
456 3 10.8967 9.08061 16.3451
457 1 14.529 7.26449 14.529
458 1 16.3451 9.08061 14.529
459 3 16.3451 7.26449 16.3451
460 3 14.529 9.08061 16.3451
461 1 0 10.8967 14.529
462 2 1.81612 12.7129 14.529
463 1 1.81612 10.8967 16.3451
464 1 0 12.7129 16.3451
465 3 3.63225 10.8967 14.529
466 1 5.44837 12.7129 14.529
467 2 5.44837 10.8967 16.3451
468 3 3.63225 12.7129 16.3451
469 2 7.26449 10.8967 14.529
470 3 9.08061 12.7129 14.529
471 2 9.08061 10.8967 16.3451
472 1 7.26449 12.7129 16.3451
473 3 10.8967 10.8967 14.529
474 3 12.7129 12.7129 14.529
475 2 12.7129 10.8967 16.3451
476 3 10.8967 12.7129 16.3451
477 3 14.529 10.8967 14.529
478 3 16.3451 12.7129 14.529
479 3 16.3451 10.8967 16.3451
480 2 14.529 12.7129 16.3451
481 2 0 14.529 14.529
482 3 1.81612 16.3451 14.529
483 2 1.81612 14.529 16.3451
484 2 0 16.3451 16.3451
485 1 3.63225 14.529 14.529
486 3 5.44837 16.3451 14.529
487 3 5.44837 14.529 16.3451
488 3 3.63225 16.3451 16.3451
489 1 7.26449 14.529 14.529
490 3 9.08061 16.3451 14.529
491 3 9.08061 14.529 16.3451
492 2 7.26449 16.3451 16.3451
493 1 10.8967 14.529 14.529
494 1 12.7129 16.3451 14.529
495 2 12.7129 14.529 16.3451
496 2 10.8967 16.3451 16.3451
497 1 14.529 14.529 14.529
498 3 16.3451 16.3451 14.529
499 3 16.3451 14.529 16.3451
500 3 14.529 16.3451 16.3451
501 1 0 0 18.1612
502 3 1.81612 1.81612 18.1612
503 2 1.81612 0 19.9774
504 1 0 1.81612 19.9774
601 2 0 0 21.7935
602 2 1.81612 1.81612 21.7935
505 1 3.63225 0 18.1612
506 1 5.44837 1.81612 18.1612
507 3 5.44837 0 19.9774
508 1 3.63225 1.81612 19.9774
605 1 3.63225 0 21.7935
606 1 5.44837 1.81612 21.7935
509 3 7.26449 0 18.1612
510 3 9.08061 1.81612 18.1612
511 1 9.08061 0 19.9774
512 3 7.26449 1.81612 19.9774
609 1 7.26449 0 21.7935
610 3 9.08061 1.81612 21.7935
513 2 10.8967 0 18.1612
514 2 12.7129 1.81612 18.1612
515 1 12.7129 0 19.9774
516 3 10.8967 1.81612 19.9774
613 2 10.8967 0 21.7935
614 3 12.7129 1.81612 21.7935
517 3 14.529 0 18.1612
518 3 16.3451 1.81612 18.1612
519 2 16.3451 0 19.9774
520 2 14.529 1.81612 19.9774
617 3 14.529 0 21.7935
618 3 16.3451 1.81612 21.7935
521 3 0 3.63225 18.1612
522 1 1.81612 5.44837 18.1612
523 3 1.81612 3.63225 19.9774
524 3 0 5.44837 19.9774
621 1 0 3.63225 21.7935
622 3 1.81612 5.44837 21.7935
525 3 3.63225 3.63225 18.1612
526 2 5.44837 5.44837 18.1612
527 1 5.44837 3.63225 19.9774
528 2 3.63225 5.44837 19.9774
625 2 3.63225 3.63225 21.7935
626 1 5.44837 5.44837 21.7935
529 1 7.26449 3.63225 18.1612
530 2 9.08061 5.44837 18.1612
531 1 9.08061 3.63225 19.9774
532 1 7.26449 5.44837 19.9774
629 2 7.26449 3.63225 21.7935
630 3 9.08061 5.44837 21.7935
533 3 10.8967 3.63225 18.1612
534 1 12.7129 5.44837 18.1612
535 2 12.7129 3.63225 19.9774
536 3 10.8967 5.44837 19.9774
633 1 10.8967 3.63225 21.7935
634 3 12.7129 5.44837 21.7935
537 2 14.529 3.63225 18.1612
538 2 16.3451 5.44837 18.1612
539 3 16.3451 3.63225 19.9774
540 3 14.529 5.44837 19.9774
637 1 14.529 3.63225 21.7935
638 2 16.3451 5.44837 21.7935
541 3 0 7.26449 18.1612
542 2 1.81612 9.08061 18.1612
543 1 1.81612 7.26449 19.9774
544 1 0 9.08061 19.9774
641 1 0 7.26449 21.7935
642 2 1.81612 9.08061 21.7935
545 3 3.63225 7.26449 18.1612
546 2 5.44837 9.08061 18.1612
547 1 5.44837 7.26449 19.9774
548 2 3.63225 9.08061 19.9774
645 2 3.63225 7.26449 21.7935
646 3 5.44837 9.08061 21.7935
549 2 7.26449 7.26449 18.1612
550 3 9.08061 9.08061 18.1612
551 3 9.08061 7.26449 19.9774
552 2 7.26449 9.08061 19.9774
649 3 7.26449 7.26449 21.7935
650 3 9.08061 9.08061 21.7935
553 3 10.8967 7.26449 18.1612
554 2 12.7129 9.08061 18.1612
555 3 12.7129 7.26449 19.9774
556 1 10.8967 9.08061 19.9774
653 2 10.8967 7.26449 21.7935
654 1 12.7129 9.08061 21.7935
557 1 14.529 7.26449 18.1612
558 1 16.3451 9.08061 18.1612
559 2 16.3451 7.26449 19.9774
560 2 14.529 9.08061 19.9774
657 3 14.529 7.26449 21.7935
658 1 16.3451 9.08061 21.7935
561 1 0 10.8967 18.1612
562 1 1.81612 12.7129 18.1612
563 2 1.81612 10.8967 19.9774
564 3 0 12.7129 19.9774
661 3 0 10.8967 21.7935
662 3 1.81612 12.7129 21.7935
565 3 3.63225 10.8967 18.1612
566 3 5.44837 12.7129 18.1612
567 1 5.44837 10.8967 19.9774
568 2 3.63225 12.7129 19.9774
665 1 3.63225 10.8967 21.7935
666 1 5.44837 12.7129 21.7935
569 3 7.26449 10.8967 18.1612
570 3 9.08061 12.7129 18.1612
571 3 9.08061 10.8967 19.9774
572 2 7.26449 12.7129 19.9774
669 1 7.26449 10.8967 21.7935
670 3 9.08061 12.7129 21.7935
573 3 10.8967 10.8967 18.1612
574 3 12.7129 12.7129 18.1612
575 1 12.7129 10.8967 19.9774
576 2 10.8967 12.7129 19.9774
673 1 10.8967 10.8967 21.7935
674 2 12.7129 12.7129 21.7935
577 2 14.529 10.8967 18.1612
578 3 16.3451 12.7129 18.1612
579 1 16.3451 10.8967 19.9774
580 1 14.529 12.7129 19.9774
677 2 14.529 10.8967 21.7935
678 3 16.3451 12.7129 21.7935
581 1 0 14.529 18.1612
582 3 1.81612 16.3451 18.1612
583 3 1.81612 14.529 19.9774
584 2 0 16.3451 19.9774
681 3 0 14.529 21.7935
682 2 1.81612 16.3451 21.7935
585 1 3.63225 14.529 18.1612
586 1 5.44837 16.3451 18.1612
587 1 5.44837 14.529 19.9774
588 3 3.63225 16.3451 19.9774
685 2 3.63225 14.529 21.7935
686 1 5.44837 16.3451 21.7935
589 2 7.26449 14.529 18.1612
590 1 9.08061 16.3451 18.1612
591 3 9.08061 14.529 19.9774
592 2 7.26449 16.3451 19.9774
689 3 7.26449 14.529 21.7935
690 1 9.08061 16.3451 21.7935
593 3 10.8967 14.529 18.1612
594 2 12.7129 16.3451 18.1612
595 2 12.7129 14.529 19.9774
596 1 10.8967 16.3451 19.9774
693 2 10.8967 14.529 21.7935
694 1 12.7129 16.3451 21.7935
597 1 14.529 14.529 18.1612
598 1 16.3451 16.3451 18.1612
599 1 16.3451 14.529 19.9774
600 1 14.529 16.3451 19.9774
697 3 14.529 14.529 21.7935
698 2 16.3451 16.3451 21.7935
603 2 1.81612 0 23.6096
604 1 0 1.81612 23.6096
701 3 0 0 25.4257
702 1 1.81612 1.81612 25.4257
607 2 5.44837 0 23.6096
608 1 3.63225 1.81612 23.6096
703 3 3.63225 0 25.4257
704 1 5.44837 1.81612 25.4257
611 2 9.08061 0 23.6096
612 1 7.26449 1.81612 23.6096
705 3 7.26449 0 25.4257
706 3 9.08061 1.81612 25.4257
615 3 12.7129 0 23.6096
616 1 10.8967 1.81612 23.6096
707 3 10.8967 0 25.4257
708 2 12.7129 1.81612 25.4257
619 2 16.3451 0 23.6096
620 2 14.529 1.81612 23.6096
709 1 14.529 0 25.4257
710 2 16.3451 1.81612 25.4257
623 3 1.81612 3.63225 23.6096
624 1 0 5.44837 23.6096
711 3 0 3.63225 25.4257
712 2 1.81612 5.44837 25.4257
627 1 5.44837 3.63225 23.6096
628 3 3.63225 5.44837 23.6096
713 1 3.63225 3.63225 25.4257
714 3 5.44837 5.44837 25.4257
631 2 9.08061 3.63225 23.6096
632 2 7.26449 5.44837 23.6096
715 3 7.26449 3.63225 25.4257
716 2 9.08061 5.44837 25.4257
635 2 12.7129 3.63225 23.6096
636 3 10.8967 5.44837 23.6096
717 2 10.8967 3.63225 25.4257
718 2 12.7129 5.44837 25.4257
639 1 16.3451 3.63225 23.6096
640 1 14.529 5.44837 23.6096
719 1 14.529 3.63225 25.4257
720 1 16.3451 5.44837 25.4257
643 3 1.81612 7.26449 23.6096
644 1 0 9.08061 23.6096
721 1 0 7.26449 25.4257
722 3 1.81612 9.08061 25.4257
647 3 5.44837 7.26449 23.6096
648 3 3.63225 9.08061 23.6096
723 2 3.63225 7.26449 25.4257
724 3 5.44837 9.08061 25.4257
651 1 9.08061 7.26449 23.6096
652 2 7.26449 9.08061 23.6096
725 1 7.26449 7.26449 25.4257
726 3 9.08061 9.08061 25.4257
655 2 12.7129 7.26449 23.6096
656 1 10.8967 9.08061 23.6096
727 2 10.8967 7.26449 25.4257
728 2 12.7129 9.08061 25.4257
659 2 16.3451 7.26449 23.6096
660 3 14.529 9.08061 23.6096
729 2 14.529 7.26449 25.4257
730 3 16.3451 9.08061 25.4257
663 1 1.81612 10.8967 23.6096
664 2 0 12.7129 23.6096
731 2 0 10.8967 25.4257
732 1 1.81612 12.7129 25.4257
667 2 5.44837 10.8967 23.6096
668 2 3.63225 12.7129 23.6096
733 3 3.63225 10.8967 25.4257
734 1 5.44837 12.7129 25.4257
671 2 9.08061 10.8967 23.6096
672 2 7.26449 12.7129 23.6096
735 2 7.26449 10.8967 25.4257
736 3 9.08061 12.7129 25.4257
675 2 12.7129 10.8967 23.6096
676 1 10.8967 12.7129 23.6096
737 1 10.8967 10.8967 25.4257
738 3 12.7129 12.7129 25.4257
679 2 16.3451 10.8967 23.6096
680 1 14.529 12.7129 23.6096
739 2 14.529 10.8967 25.4257
740 1 16.3451 12.7129 25.4257
683 2 1.81612 14.529 23.6096
684 1 0 16.3451 23.6096
741 3 0 14.529 25.4257
742 3 1.81612 16.3451 25.4257
687 1 5.44837 14.529 23.6096
688 2 3.63225 16.3451 23.6096
743 3 3.63225 14.529 25.4257
744 1 5.44837 16.3451 25.4257
691 2 9.08061 14.529 23.6096
692 1 7.26449 16.3451 23.6096
745 3 7.26449 14.529 25.4257
746 3 9.08061 16.3451 25.4257
695 2 12.7129 14.529 23.6096
696 1 10.8967 16.3451 23.6096
747 2 10.8967 14.529 25.4257
748 1 12.7129 16.3451 25.4257
699 1 16.3451 14.529 23.6096
700 1 14.529 16.3451 23.6096
749 1 14.529 14.529 25.4257
750 1 16.3451 16.3451 25.4257
751 3 1.81612 0 27.2418
752 3 0 1.81612 27.2418
801 1 0 0 29.058
802 1 1.81612 1.81612 29.058
803 1 1.81612 0 30.8741
804 3 0 1.81612 30.8741
753 1 5.44837 0 27.2418
754 3 3.63225 1.81612 27.2418
805 2 3.63225 0 29.058
806 2 5.44837 1.81612 29.058
807 1 5.44837 0 30.8741
808 2 3.63225 1.81612 30.8741
755 3 9.08061 0 27.2418
756 2 7.26449 1.81612 27.2418
809 1 7.26449 0 29.058
810 1 9.08061 1.81612 29.058
811 3 9.08061 0 30.8741
812 3 7.26449 1.81612 30.8741
757 1 12.7129 0 27.2418
758 2 10.8967 1.81612 27.2418
813 2 10.8967 0 29.058
814 2 12.7129 1.81612 29.058
815 2 12.7129 0 30.8741
816 3 10.8967 1.81612 30.8741
759 1 16.3451 0 27.2418
760 1 14.529 1.81612 27.2418
817 2 14.529 0 29.058
818 1 16.3451 1.81612 29.058
819 3 16.3451 0 30.8741
820 2 14.529 1.81612 30.8741
761 1 1.81612 3.63225 27.2418
762 1 0 5.44837 27.2418
821 3 0 3.63225 29.058
822 1 1.81612 5.44837 29.058
823 1 1.81612 3.63225 30.8741
824 1 0 5.44837 30.8741
763 2 5.44837 3.63225 27.2418
764 1 3.63225 5.44837 27.2418
825 1 3.63225 3.63225 29.058
826 2 5.44837 5.44837 29.058
827 2 5.44837 3.63225 30.8741
828 3 3.63225 5.44837 30.8741
765 2 9.08061 3.63225 27.2418
766 1 7.26449 5.44837 27.2418
829 3 7.26449 3.63225 29.058
830 3 9.08061 5.44837 29.058
831 2 9.08061 3.63225 30.8741
832 2 7.26449 5.44837 30.8741
767 3 12.7129 3.63225 27.2418
768 1 10.8967 5.44837 27.2418
833 1 10.8967 3.63225 29.058
834 1 12.7129 5.44837 29.058
835 3 12.7129 3.63225 30.8741
836 1 10.8967 5.44837 30.8741
769 1 16.3451 3.63225 27.2418
770 1 14.529 5.44837 27.2418
837 3 14.529 3.63225 29.058
838 1 16.3451 5.44837 29.058
839 3 16.3451 3.63225 30.8741
840 3 14.529 5.44837 30.8741
771 3 1.81612 7.26449 27.2418
772 2 0 9.08061 27.2418
841 2 0 7.26449 29.058
842 1 1.81612 9.08061 29.058
843 2 1.81612 7.26449 30.8741
844 3 0 9.08061 30.8741
773 2 5.44837 7.26449 27.2418
774 3 3.63225 9.08061 27.2418
845 1 3.63225 7.26449 29.058
846 1 5.44837 9.08061 29.058
847 3 5.44837 7.26449 30.8741
848 3 3.63225 9.08061 30.8741
775 1 9.08061 7.26449 27.2418
776 1 7.26449 9.08061 27.2418
849 3 7.26449 7.26449 29.058
850 1 9.08061 9.08061 29.058
851 2 9.08061 7.26449 30.8741
852 1 7.26449 9.08061 30.8741
777 3 12.7129 7.26449 27.2418
778 3 10.8967 9.08061 27.2418
853 2 10.8967 7.26449 29.058
854 2 12.7129 9.08061 29.058
855 2 12.7129 7.26449 30.8741
856 2 10.8967 9.08061 30.8741
779 3 16.3451 7.26449 27.2418
780 2 14.529 9.08061 27.2418
857 3 14.529 7.26449 29.058
858 1 16.3451 9.08061 29.058
859 3 16.3451 7.26449 30.8741
860 1 14.529 9.08061 30.8741
781 3 1.81612 10.8967 27.2418
782 2 0 12.7129 27.2418
861 2 0 10.8967 29.058
862 2 1.81612 12.7129 29.058
863 3 1.81612 10.8967 30.8741
864 1 0 12.7129 30.8741
783 2 5.44837 10.8967 27.2418
784 3 3.63225 12.7129 27.2418
865 2 3.63225 10.8967 29.058
866 3 5.44837 12.7129 29.058
867 1 5.44837 10.8967 30.8741
868 3 3.63225 12.7129 30.8741
785 2 9.08061 10.8967 27.2418
786 1 7.26449 12.7129 27.2418
869 3 7.26449 10.8967 29.058
870 2 9.08061 12.7129 29.058
871 1 9.08061 10.8967 30.8741
872 1 7.26449 12.7129 30.8741
787 3 12.7129 10.8967 27.2418
788 2 10.8967 12.7129 27.2418
873 3 10.8967 10.8967 29.058
874 2 12.7129 12.7129 29.058
875 3 12.7129 10.8967 30.8741
876 3 10.8967 12.7129 30.8741
789 3 16.3451 10.8967 27.2418
790 2 14.529 12.7129 27.2418
877 2 14.529 10.8967 29.058
878 1 16.3451 12.7129 29.058
879 3 16.3451 10.8967 30.8741
880 1 14.529 12.7129 30.8741
791 2 1.81612 14.529 27.2418
792 1 0 16.3451 27.2418
881 1 0 14.529 29.058
882 3 1.81612 16.3451 29.058
883 3 1.81612 14.529 30.8741
884 1 0 16.3451 30.8741
793 1 5.44837 14.529 27.2418
794 3 3.63225 16.3451 27.2418
885 1 3.63225 14.529 29.058
886 2 5.44837 16.3451 29.058
887 2 5.44837 14.529 30.8741
888 1 3.63225 16.3451 30.8741
795 1 9.08061 14.529 27.2418
796 1 7.26449 16.3451 27.2418
889 1 7.26449 14.529 29.058
890 3 9.08061 16.3451 29.058
891 1 9.08061 14.529 30.8741
892 3 7.26449 16.3451 30.8741
797 3 12.7129 14.529 27.2418
798 3 10.8967 16.3451 27.2418
893 1 10.8967 14.529 29.058
894 2 12.7129 16.3451 29.058
895 2 12.7129 14.529 30.8741
896 2 10.8967 16.3451 30.8741
799 2 16.3451 14.529 27.2418
800 2 14.529 16.3451 27.2418
897 2 14.529 14.529 29.058
898 1 16.3451 16.3451 29.058
899 3 16.3451 14.529 30.8741
900 2 14.529 16.3451 30.8741
901 3 0 0 32.6902
902 1 1.81612 1.81612 32.6902
903 2 1.81612 0 34.5063
904 3 0 1.81612 34.5063
905 3 3.63225 0 32.6902
906 1 5.44837 1.81612 32.6902
907 2 5.44837 0 34.5063
908 2 3.63225 1.81612 34.5063
909 3 7.26449 0 32.6902
910 1 9.08061 1.81612 32.6902
911 2 9.08061 0 34.5063
912 1 7.26449 1.81612 34.5063
913 2 10.8967 0 32.6902
914 1 12.7129 1.81612 32.6902
915 1 12.7129 0 34.5063
916 3 10.8967 1.81612 34.5063
917 1 14.529 0 32.6902
918 2 16.3451 1.81612 32.6902
919 2 16.3451 0 34.5063
920 1 14.529 1.81612 34.5063
921 1 0 3.63225 32.6902
922 2 1.81612 5.44837 32.6902
923 1 1.81612 3.63225 34.5063
924 2 0 5.44837 34.5063
925 1 3.63225 3.63225 32.6902
926 3 5.44837 5.44837 32.6902
927 2 5.44837 3.63225 34.5063
928 2 3.63225 5.44837 34.5063
929 3 7.26449 3.63225 32.6902
930 3 9.08061 5.44837 32.6902
931 3 9.08061 3.63225 34.5063
932 1 7.26449 5.44837 34.5063
933 1 10.8967 3.63225 32.6902
934 1 12.7129 5.44837 32.6902
935 1 12.7129 3.63225 34.5063
936 2 10.8967 5.44837 34.5063
937 2 14.529 3.63225 32.6902
938 2 16.3451 5.44837 32.6902
939 2 16.3451 3.63225 34.5063
940 1 14.529 5.44837 34.5063
941 1 0 7.26449 32.6902
942 1 1.81612 9.08061 32.6902
943 2 1.81612 7.26449 34.5063
944 3 0 9.08061 34.5063
945 3 3.63225 7.26449 32.6902
946 1 5.44837 9.08061 32.6902
947 3 5.44837 7.26449 34.5063
948 3 3.63225 9.08061 34.5063
949 1 7.26449 7.26449 32.6902
950 1 9.08061 9.08061 32.6902
951 2 9.08061 7.26449 34.5063
952 3 7.26449 9.08061 34.5063
953 3 10.8967 7.26449 32.6902
954 2 12.7129 9.08061 32.6902
955 1 12.7129 7.26449 34.5063
956 1 10.8967 9.08061 34.5063
957 2 14.529 7.26449 32.6902
958 3 16.3451 9.08061 32.6902
959 1 16.3451 7.26449 34.5063
960 3 14.529 9.08061 34.5063
961 1 0 10.8967 32.6902
962 1 1.81612 12.7129 32.6902
963 3 1.81612 10.8967 34.5063
964 2 0 12.7129 34.5063
965 2 3.63225 10.8967 32.6902
966 2 5.44837 12.7129 32.6902
967 1 5.44837 10.8967 34.5063
968 2 3.63225 12.7129 34.5063
969 2 7.26449 10.8967 32.6902
970 3 9.08061 12.7129 32.6902
971 2 9.08061 10.8967 34.5063
972 1 7.26449 12.7129 34.5063
973 1 10.8967 10.8967 32.6902
974 2 12.7129 12.7129 32.6902
975 3 12.7129 10.8967 34.5063
976 3 10.8967 12.7129 34.5063
977 1 14.529 10.8967 32.6902
978 3 16.3451 12.7129 32.6902
979 2 16.3451 10.8967 34.5063
980 1 14.529 12.7129 34.5063
981 2 0 14.529 32.6902
982 3 1.81612 16.3451 32.6902
983 2 1.81612 14.529 34.5063
984 1 0 16.3451 34.5063
985 3 3.63225 14.529 32.6902
986 1 5.44837 16.3451 32.6902
987 1 5.44837 14.529 34.5063
988 3 3.63225 16.3451 34.5063
989 2 7.26449 14.529 32.6902
990 2 9.08061 16.3451 32.6902
991 3 9.08061 14.529 34.5063
992 3 7.26449 16.3451 34.5063
993 3 10.8967 14.529 32.6902
994 3 12.7129 16.3451 32.6902
995 3 12.7129 14.529 34.5063
996 1 10.8967 16.3451 34.5063
997 2 14.529 14.529 32.6902
998 1 16.3451 16.3451 32.6902
999 2 16.3451 14.529 34.5063
1000 2 14.529 16.3451 34.5063
1001 2 0 18.1612 0
1002 2 1.81612 19.9774 0
1003 2 1.81612 18.1612 1.81612
1004 2 0 19.9774 1.81612
1021 2 0 21.7935 0
1023 3 1.81612 21.7935 1.81612
1101 3 0 18.1612 3.63225
1102 1 1.81612 19.9774 3.63225
1121 1 0 21.7935 3.63225
1005 1 3.63225 18.1612 0
1006 1 5.44837 19.9774 0
1007 2 5.44837 18.1612 1.81612
1008 2 3.63225 19.9774 1.81612
1025 2 3.63225 21.7935 0
1027 3 5.44837 21.7935 1.81612
1105 1 3.63225 18.1612 3.63225
1106 2 5.44837 19.9774 3.63225
1125 3 3.63225 21.7935 3.63225
1009 3 7.26449 18.1612 0
1010 2 9.08061 19.9774 0
1011 2 9.08061 18.1612 1.81612
1012 3 7.26449 19.9774 1.81612
1029 3 7.26449 21.7935 0
1031 3 9.08061 21.7935 1.81612
1109 2 7.26449 18.1612 3.63225
1110 1 9.08061 19.9774 3.63225
1129 1 7.26449 21.7935 3.63225
1013 3 10.8967 18.1612 0
1014 2 12.7129 19.9774 0
1015 3 12.7129 18.1612 1.81612
1016 3 10.8967 19.9774 1.81612
1033 2 10.8967 21.7935 0
1035 3 12.7129 21.7935 1.81612
1113 1 10.8967 18.1612 3.63225
1114 1 12.7129 19.9774 3.63225
1133 1 10.8967 21.7935 3.63225
1017 3 14.529 18.1612 0
1018 3 16.3451 19.9774 0
1019 3 16.3451 18.1612 1.81612
1020 3 14.529 19.9774 1.81612
1037 1 14.529 21.7935 0
1039 3 16.3451 21.7935 1.81612
1117 2 14.529 18.1612 3.63225
1118 1 16.3451 19.9774 3.63225
1137 3 14.529 21.7935 3.63225
1022 1 1.81612 23.6096 0
1024 3 0 23.6096 1.81612
1122 2 1.81612 23.6096 3.63225
1026 3 5.44837 23.6096 0
1028 2 3.63225 23.6096 1.81612
1126 2 5.44837 23.6096 3.63225
1030 1 9.08061 23.6096 0
1032 1 7.26449 23.6096 1.81612
1130 2 9.08061 23.6096 3.63225
1034 3 12.7129 23.6096 0
1036 3 10.8967 23.6096 1.81612
1134 2 12.7129 23.6096 3.63225
1038 3 16.3451 23.6096 0
1040 2 14.529 23.6096 1.81612