ITEM: TIMESTEP
5000
ITEM: NUMBER OF ATOMS
4000
ITEM: BOX BOUNDS pp pp pp
-3.0803689803040157e-02 3.5658673689803415e+01
-3.0803689803040157e-02 3.5658673689803415e+01
-3.0803689803040157e-02 3.5658673689803415e+01
ITEM: ATOMS id type x y z
563 3 0.102418 -0.0759524 -0.109746
1064 3 1.59015 1.67157 0.0122524
1563 1 1.793 0.0802172 1.91571
2064 1 -0.367785 1.62256 1.61269
1 1 3.77308 1.9923 1.67501
565 1 7.02007 -0.0703077 0.237783
2065 2 6.94216 1.93325 1.58214
2565 2 3.28597 -0.297291 0.0968539
3064 3 5.04798 1.85325 -0.317711
3564 1 5.28897 -0.0296725 1.468
1066 2 8.91352 1.57995 0.161629
1564 3 8.839 0.0459806 2.02936
2 2 10.8142 1.97217 1.62996
567 2 14.32 0.1338 0.0977759
2066 3 14.3569 2.01408 1.59132
2567 1 10.5605 0.270036 0.0614373
3066 3 12.5459 1.78284 -0.263663
3565 3 12.5035 0.197633 1.60313
751 1 17.8689 0.0805315 0.133378
1068 3 16.0855 1.73611 0.117249
1565 3 16.0012 -0.166638 1.6804
2001 1 17.8216 1.64505 1.66473
3 1 -0.150815 5.28005 1.8758
573 3 -0.0283281 7.16835 0.00640263
1568 2 1.56486 6.97 1.72626
2569 3 -0.196824 3.49408 0.0428269
3068 2 1.6604 5.30596 -0.180377
3566 3 1.69857 3.70589 1.64112
4 1 6.89135 5.39421 1.85182
569 3 3.35693 3.60915 -0.193716
575 2 7.08839 7.05011 -0.0293704
1070 2 5.16249 5.40999 -0.135751
1566 1 5.21964 4.09787 1.68103
2067 1 3.37424 5.46122 1.81552
2575 2 3.34535 7.01555 -0.0376972
2571 3 6.98532 3.66353 0.0780156
3569 1 5.13885 6.85873 1.61526
1569 2 8.97966 7.08802 1.75989
3070 1 8.62925 5.41533 -0.0699478
3567 2 8.81464 3.67803 1.59516
5 2 14.2402 5.44363 1.83598
571 2 10.5337 3.82599 -0.125942
577 3 14.392 6.89615 -0.0225541
1072 2 12.5199 5.50282 -0.18275
1567 2 12.581 3.86381 1.80183
2068 3 10.8348 5.52684 1.85402
2577 2 10.6617 7.18276 -0.0737499
2573 2 14.1244 3.94953 -0.0399378
3570 1 12.5432 6.98251 1.73651
253 3 17.8058 5.3837 1.66359
761 2 17.7952 7.25071 -0.300354
1570 3 16.0623 7.1382 1.6217
2819 3 17.6592 3.60916 -0.226502
3072 1 16.0493 5.07345 -0.137971
3568 2 16.2697 3.65009 1.76513
1074 1 1.65255 9.01279 -0.0343295
2069 3 -0.224191 9.05451 1.82811
6 2 3.43849 8.97622 1.72587
2070 3 7.01811 8.94919 1.75742
3074 3 5.22628 8.72908 -0.0234968
1076 1 8.93208 8.85548 -0.00282238
7 3 10.6569 8.84788 1.82427
2071 3 14.1917 8.86267 1.70084
3076 1 12.4044 8.84016 -0.0656481
1078 1 15.7463 8.88508 -0.257371
2006 2 17.9517 8.77334 1.81469
8 3 0.0591207 12.3916 1.73081
583 3 -0.0183895 14.2843 0.0305911
1573 2 1.64801 14.1337 1.83807
2579 1 -0.0749691 10.5321 -0.193587
3078 1 1.79234 12.3445 0.0295236
3571 3 1.60363 10.5744 1.80095
9 2 7.11327 12.4562 1.71605
585 3 7.11482 14.0434 -0.235695
579 2 3.40692 10.7828 0.0384092
1080 2 5.09618 12.3816 -0.0553691
1571 1 5.21729 10.4691 1.68726
2072 2 3.42372 12.3728 1.78399
2585 2 3.68107 14.1927 -0.0327387
2581 3 6.9456 10.5168 -0.160068
3574 1 5.15428 13.9531 1.62863
1574 2 9.03331 14.0649 1.72274
3080 1 9.04793 12.2509 -0.123556
3572 3 8.63974 10.656 1.42008
10 3 14.3194 12.497 1.7628
587 2 14.1546 14.1858 -0.0294705
581 1 10.6255 10.6097 0.0368003
1082 3 12.6858 12.4325 -0.0133205
1572 3 12.5412 10.5608 1.67831
2073 2 10.5514 12.2271 1.63323
2587 3 10.5034 14.3841 -0.059111
2583 2 14.1598 10.5061 -0.126326
3575 3 12.2238 14.1489 1.80103
258 2 17.8647 12.3533 1.83436
771 1 17.7446 14.0772 0.105425
1575 3 15.9254 14.3562 1.78052
2829 2 17.78 10.6539 0.024465
3082 3 15.9607 12.4072 0.177096
3573 2 16.2231 10.5122 1.9038
626 3 0.0984119 17.8019 -0.0927292
1084 3 1.90581 15.9883 -0.08307
1688 1 1.80058 17.6873 1.87157
2074 1 -0.0712982 15.9643 1.81905
11 3 3.73654 16.135 1.54767
628 2 7.16503 17.8072 0.0180591
2075 2 7.22237 15.8556 1.62695
2690 2 3.47717 17.881 -0.227362
3084 3 5.51947 16.0423 -0.277547
3689 1 5.5348 17.7859 1.79076
1086 1 8.64803 16.0926 -0.0510582
1689 3 8.9058 17.7863 1.82067
12 1 10.5818 16.1585 1.86776
630 2 14.323 17.8328 -0.0899266
2076 2 14.3316 16.1461 1.73236
2692 2 10.6339 17.8147 -0.0230114
3086 1 12.5982 15.9007 0.0600173
3690 1 12.4741 17.7344 1.59455
876 1 17.609 17.816 -0.102927
1088 1 15.9038 15.8666 -0.0603608
1690 1 16.038 17.7697 1.8233
2011 1 17.762 15.9485 1.63644
13 2 0.276672 1.72085 5.37377
588 3 0.050523 -0.25864 6.96202
1089 1 1.47475 1.68685 7.03035
2564 2 0.164011 -0.0391225 3.64322
3063 2 1.83918 1.78358 3.24566
3576 2 1.89738 -0.0281985 5.22687
14 1 6.87041 1.94287 5.02437
564 2 3.43384 -0.149792 3.52039
1065 1 5.115 1.6293 3.31594
1577 3 3.43042 0.164241 7.25865
1576 2 5.35594 -0.0600503 5.20742
2078 1 5.34565 1.98545 6.83282
2077 2 3.62449 1.69894 5.23358
2589 2 6.92624 0.140452 7.10463
2566 2 6.93862 0.192029 3.39403
3065 1 8.8443 1.97777 3.47919
3088 1 8.65736 1.76993 7.08519
3577 2 8.77787 0.0673396 5.43103
15 1 12.5247 1.86158 7.19891
16 1 14.2745 1.82269 5.22454
566 3 10.8113 0.141631 3.37612
589 3 14.3005 0.0748538 7.02148
1067 1 12.4937 1.96337 3.62539
1578 1 12.4253 0.140272 5.27643
2079 1 10.5895 1.8921 5.16747
2568 3 14.159 0.00188799 3.6155
3578 2 10.4596 0.0557387 7.17478
263 1 18.0197 1.90955 5.43982
776 2 17.9481 -0.147168 6.84756
1090 1 16.0948 1.80536 7.13638
2814 1 17.7773 -0.021392 3.37279
3067 3 15.9073 1.77102 3.55026
3579 3 16.0932 0.0533992 5.23346
568 3 0.181215 3.55902 3.34278
1069 3 1.77918 5.31232 3.36285
1580 2 -0.141754 3.49215 6.9926
1579 1 1.73772 3.55754 5.04264
2081 1 1.697 5.30434 7.1344
2080 2 0.282185 5.37081 5.47079
2591 2 0.0964869 7.2976 7.00324
2574 1 -0.1783 7.04633 3.71212
3583 1 1.74847 7.17568 5.42784
17 3 3.50892 5.29423 5.45492
570 2 6.84035 3.57135 3.5812
591 1 7.1469 6.87704 7.12109
574 1 3.27224 7.25477 3.62091
1584 3 5.17279 6.95765 5.42621
2082 3 7.05415 5.32228 5.32074
2590 2 3.3688 3.23402 7.1576
2576 1 6.92104 7.01234 3.70536
2570 3 3.46479 3.60836 3.42067
3069 2 5.24957 5.38941 3.46439
3089 2 5.22102 5.28348 7.22435
3584 3 3.5072 7.01629 7.30312
3581 2 6.99462 3.76315 7.26758
3580 3 5.18733 3.48217 5.27018
18 1 9.12676 5.23997 6.97736
1071 1 9.10486 5.29922 3.58512
1581 2 8.88912 3.55598 5.28044
3585 2 8.97919 7.05901 5.4414
19 1 10.6331 5.32366 5.49544
572 2 14.2948 3.6689 3.32803
590 2 10.7906 3.41644 7.23927
576 3 10.674 7.2501 3.54066
1091 1 12.3653 5.39044 7.26835
1586 2 10.7185 7.29573 7.30454
1585 2 12.3273 7.12884 5.40861
1583 3 14.2612 3.47203 7.21533
2083 1 14.3129 5.29062 5.19917
2592 1 14.1632 6.8895 7.09629
2578 3 14.191 7.22928 3.623
2572 2 10.5987 3.63681 3.63878
3071 2 12.4478 5.38689 3.58855
3582 2 12.5197 3.55914 5.52883
756 1 18.0377 3.55951 3.39837
1073 2 16.0067 5.41823 3.7213
1768 1 18.0594 3.78009 6.94202
1582 2 15.8318 3.53615 5.39003
2084 3 16.1767 5.29108 7.07366
2017 1 17.833 4.94584 5.18259
2841 1 17.7939 6.6702 7.18556
2824 1 17.8864 6.87614 3.39566
3586 2 16.1275 7.18646 5.23883
20 2 0.0297485 9.16254 5.07033
3073 2 1.80138 8.88023 3.62926
3090 2 1.76834 8.99076 7.00231
21 2 5.3174 9.02781 7.11962
22 2 7.15009 8.73749 5.41041
1075 3 5.58759 8.90079 3.40289
2085 1 3.55097 8.74405 5.15351
1092 3 8.92577 8.72419 7.32211
3075 3 8.8086 8.9759 3.48064
23 1 14.2028 8.94206 5.22498
1077 2 12.5887 8.77058 3.63576
2087 2 12.4991 8.92006 7.04072
2086 1 10.5169 9.0739 5.38253
270 1 17.8964 8.78885 5.18658
3091 3 15.8661 8.81291 7.1027
3077 3 16.0385 8.71385 3.46868
24 2 1.77816 12.5127 7.24881
593 3 -0.0226948 14.1248 6.85926
578 1 -0.286804 10.8058 3.28209
1079 2 2.04465 12.5095 3.71093
1587 1 1.74492 10.6562 5.52074
2088 2 -0.078726 12.3829 5.12868
2584 2 -0.0263125 14.0726 3.61652
3591 1 2.00386 13.9689 5.45666
3587 2 -0.339476 10.6042 7.46498
25 1 3.66499 12.5333 5.4539
592 3 3.57268 10.8409 7.17003
584 1 3.6075 14.1288 3.36258
580 1 7.09201 10.7288 3.59939
1093 3 5.48159 12.5078 7.24576
1592 3 3.66852 14.3012 7.13872
1591 3 5.54736 14.1361 5.42614
1589 2 6.9927 10.6578 7.27296
2089 2 6.96993 12.4226 5.3186
2594 1 7.03701 14.2719 7.26126
2586 1 7.19938 14.0669 3.58346
2580 1 3.43924 10.5151 3.5025
3079 3 5.18535 12.2207 3.46489
3588 3 5.23426 10.5459 5.41848
1081 1 8.8597 12.3391 3.61152
1588 2 8.88487 10.7111 5.42675
2090 2 8.75714 12.2319 7.11453
3592 2 8.73457 14.325 5.53653
26 1 10.726 12.1561 5.48885
594 2 14.4717 14.2282 7.22463
586 1 10.5644 13.9352 3.75415
582 1 14.4064 10.543 3.66655
1593 3 12.4644 14.0122 5.24572
2091 2 14.1932 12.4209 5.47559
2593 2 10.7117 10.5195 7.18666
2588 1 14.1432 14.4905 3.42511
2582 2 10.6083 10.6996 3.31305
3092 1 12.4272 12.3733 6.97025
3081 3 12.3879 12.2279 3.32223
3593 3 10.7217 14.1317 6.95941
3590 2 14.0338 10.5688 7.0242
3589 2 12.4923 10.5587 5.01355
27 3 15.847 12.4089 7.01868
781 1 17.8939 13.9847 7.25781
766 1 17.9822 10.6023 3.50934
1083 3 16.1125 12.2582 3.58387
1590 2 16.0933 10.6266 5.37868
2025 3 17.7812 12.3472 5.43262
2834 3 18.0337 14.1071 3.41359
3837 2 17.71 10.2963 7.03482
3594 1 16.1298 14.1947 5.26331
28 1 -0.0450432 15.9379 5.37189
651 3 0.266346 17.8841 6.88254
1094 1 1.60369 15.9249 6.98109
2689 2 -0.0135305 17.723 3.67323
3083 2 1.68952 15.8452 3.26883
3701 1 1.9714 17.555 5.28963
29 3 7.1051 15.9794 5.12767
627 3 3.63193 17.566 3.50647
1085 2 5.23746 15.7806 3.41135
1702 2 3.48817 17.8559 7.0807
1701 1 5.38255 17.5947 5.30912
2093 3 5.28047 16.1076 7.21655
2092 2 3.5812 15.7942 5.10617
2714 3 7.21071 17.6785 7.04328
2691 3 7.14431 17.7406 3.48858
3093 2 8.98654 16.0681 6.94659
3085 1 8.71039 15.8933 3.44787
3702 1 9.18721 17.6731 5.35403
30 1 12.4997 15.7417 6.90738
31 3 14.4209 15.935 5.35398
652 3 14.6377 17.7851 6.93741
629 3 10.7375 17.5975 3.52996
1087 3 12.3192 15.7774 3.56207
1703 1 12.3491 17.7028 5.30694
2094 2 10.5829 15.911 5.28038
2693 3 14.179 17.7957 3.61594
3703 3 10.8932 17.6826 7.04322
278 1 17.9028 15.9474 5.33936
901 2 18.2811 17.5909 7.10552
1095 2 16.1623 16.0606 7.14827
2876 3 18.0847 17.4693 3.37227
3087 3 16.1109 16.1746 3.60134
3704 1 16.0689 17.9557 5.18535
1594 3 1.64866 0.0238219 8.95636
2095 1 -0.180719 1.55115 8.9306
33 2 6.87012 1.78507 8.87497
2596 1 5.26496 0.00649975 9.22044
3095 3 3.60289 1.83732 8.98038
3596 3 8.59407 0.2079 8.76617
596 2 12.418 0.103087 8.64819
1097 2 10.4432 1.92309 9.07794
2098 1 14.4263 1.75022 8.85479
1597 3 15.9849 -0.0496268 8.81541
2032 1 17.7965 1.73682 8.78794
2599 3 1.5917 3.44114 8.83825
3098 1 -0.032998 5.36907 8.79291
3602 2 1.68312 7.31266 8.68958
36 2 3.52298 5.27305 8.91345
602 1 5.51299 7.14806 8.55276
1100 2 7.39242 5.51954 8.82331
3599 1 5.07957 3.70229 8.81084
599 2 8.8387 3.53455 8.9693
1603 1 9.01685 7.18603 9.14214
1600 3 12.4291 3.36425 9.14146
2101 2 10.3871 5.1958 8.84217
2605 1 12.2468 7.33886 9.23513
3101 1 14.1364 5.20982 8.74462
2602 3 16.2858 3.61211 8.8791
3348 2 17.8561 5.2845 8.87254
3605 3 15.9067 7.0386 8.97074
39 1 -0.0536895 8.80622 8.7774
1103 2 3.47165 8.98449 8.79722
2104 2 6.96311 8.99235 8.95151
42 2 14.162 8.78611 8.96745
3104 3 10.5493 8.90547 8.91788
289 3 17.669 8.89748 8.83953
605 1 1.70546 10.5807 8.82695
1106 1 -0.131214 12.5409 8.87888
1609 2 1.63495 14.2219 9.07091
1606 3 5.25842 10.7495 8.97285
2107 1 3.52277 12.4972 8.81486
2611 3 5.25939 14.3991 9.22708
3107 3 7.07625 12.3834 8.87469
2608 1 9.03527 10.79 8.94389
3611 1 8.98144 14.2881 8.86767
45 3 11.0306 12.2898 8.83772
611 1 12.587 14.3386 8.76885
1109 3 14.1088 12.3701 8.89103
3608 3 12.5505 10.4107 9.07014
608 3 16.0366 10.799 9.04123
1293 3 17.777 12.3319 8.87008
1612 1 15.9168 14.3345 8.77589
1719 2 1.61597 17.9101 8.95107
2110 2 -0.0960714 15.9402 8.8263
48 2 7.08282 15.9204 9.09345
2721 1 5.21825 18.0365 9.13909
3110 3 3.51649 16.094 9.2133
3721 3 8.89664 17.7366 8.99361
659 3 12.6721 17.8549 8.72526
1112 1 10.5353 16.0269 8.8093
2113 3 14.3479 16.0613 8.76062
1722 1 16.1264 17.937 8.94431
2047 2 17.8562 16.0039 8.86681
32 3 -0.26236 1.78843 12.6197
613 2 -0.048631 -0.228259 14.4409
1114 1 1.7942 1.86569 14.1543
2595 2 -0.163716 -0.148518 10.6221
3094 3 1.7934 1.78486 10.73
3595 2 1.51954 0.0522172 12.6221
34 2 7.10971 1.67688 12.4527
614 1 7.33515 0.13286 14.2136
595 1 3.49841 -0.0520733 11.0375
1096 2 5.32386 1.95464 10.8018
1595 1 5.23995 -0.0795106 12.4874
2096 2 3.47606 1.74435 12.4943
2614 3 3.55621 -0.310828 14.2557
2597 2 6.95177 0.129046 10.7769
3113 3 5.24295 1.87144 14.1545
1115 3 8.96141 2.23214 14.1794
3096 2 8.67727 1.76546 10.583
3597 1 9.09738 0.0563324 12.4913
35 3 14.1423 1.6894 12.4465
615 1 14.2874 0.085296 14.3334
597 2 10.5227 -0.175444 10.5582
1098 1 12.3528 1.73211 10.5165
1596 1 12.4532 0.10199 12.4582
2097 3 10.5615 1.96532 12.475
2615 3 10.4644 0.244791 14.0992
2598 1 14.1964 -0.0350847 10.6244
3114 1 12.2245 1.87129 14.0379
282 3 18.1058 1.66007 12.3627
801 3 17.8419 -0.0789125 14.1948
1116 3 16.18 1.61127 14.3144
2845 3 17.865 -0.297391 10.4446
3097 3 16.0377 1.60722 10.7607
3598 3 16.0363 -0.104386 12.5316
618 2 -0.0432818 6.95191 14.2626
598 3 -0.117709 3.39722 10.6537
1099 3 1.7406 5.62146 10.5433
1598 1 1.64259 3.42053 12.2504
2099 3 0.0591094 5.31572 12.8083
2616 1 0.0512946 3.46777 14.2981
2603 3 -0.13039 7.19174 10.5853
3115 2 1.93837 5.21787 14.2421
3603 1 1.86024 7.04262 12.6042
37 2 3.44646 5.28472 12.3572
619 1 7.19248 7.17755 14.4016
616 1 3.83438 3.63404 14.1024
603 1 3.73104 6.93895 10.4982
600 1 7.16894 3.62824 10.7415
1117 1 5.29785 5.52361 14.2817
1602 2 5.06665 7.18368 12.4635
2100 2 6.83316 5.47097 12.4971
2619 1 3.48953 7.30441 14.5
2617 1 6.87631 3.80415 14.4072
2604 1 6.95267 7.06544 10.6694
2600 1 3.44032 3.67855 10.7882
3099 2 5.40442 5.43613 10.3786
3600 1 5.42164 3.65039 12.3426
1101 2 8.67167 5.50878 10.7032
1599 3 8.69547 3.63403 12.5816
3116 3 8.87448 5.33757 14.2054
3604 2 8.81626 7.29675 12.5752
38 3 10.5747 5.18731 12.4463
620 2 14.1644 7.31372 14.3122
617 2 10.7892 3.64671 14.3672
604 1 10.4966 7.22478 10.8603
601 2 14.2559 3.43725 10.7747
1118 1 12.3835 5.50563 14.1356
1604 3 12.3849 7.37827 12.6861
2102 1 14.1386 5.39837 12.8334
2620 1 10.3845 7.15999 14.3647
2618 1 14.2653 3.61857 14.3446
2606 3 14.0656 7.05018 10.7026
2601 1 10.4744 3.63891 10.7104
3100 2 12.2285 5.49263 10.5828
3601 2 12.6222 3.75316 12.2594
806 3 17.8587 7.09157 14.4127
786 3 17.7778 3.58103 10.8204
1102 3 15.9994 5.35668 10.4741
1601 2 15.8232 3.67296 12.3796
2036 3 17.8282 5.40142 12.452
2866 3 17.6597 3.6189 14.1802
2853 1 17.7104 7.05831 10.871
3117 3 16.1872 5.44343 14.3259
3606 2 15.9924 6.99781 12.6314
40 1 -0.0717653 8.90958 12.5748
1119 2 1.48226 8.81506 14.3896
3102 3 1.87181 8.68295 10.6744
41 1 7.06174 8.79328 12.4009
1104 1 5.06119 8.94009 10.6672
2103 1 3.56576 9.1077 12.5895
3118 2 5.3046 8.81821 14.1591
1120 2 8.77129 8.91788 14.4181
3103 2 8.66661 9.09933 10.741
43 3 14.2426 8.78289 12.5286
1105 2 12.4894 8.98656 10.8794
2105 1 10.6779 9.06607 12.3074
3119 3 12.6888 9.04928 14.3329
290 2 17.693 8.71948 12.4018
1121 1 16.1748 8.8659 14.241
3105 1 15.7127 8.86974 10.6989
623 3 -0.0190156 14.054 14.4536
606 2 0.0898855 10.5877 10.5858
1107 3 1.79453 12.5566 10.614
1605 3 1.69712 10.6233 12.7077
2106 2 0.178488 12.5641 12.7461
2621 1 -0.228793 10.451 14.4599
2610 2 -0.23025 14.1162 10.6965
3120 1 1.72419 12.253 14.541
3610 1 1.75855 14.5489 12.5356
44 2 3.3993 12.4537 12.5203
624 1 6.86411 14.1129 14.1393
621 2 3.35482 10.6487 14.2708
610 3 3.42517 14.3248 10.8406
607 1 7.05331 10.842 10.6438
1122 3 5.11978 12.3472 14.3837
1610 3 5.01519 14.3453 12.5258
2108 3 7.06199 12.5116 12.4937
2624 3 3.3846 14.1942 14.2532
2622 1 6.91211 10.8504 14.1599
2612 1 7.24727 14.4517 10.8838
2607 1 3.35514 10.5484 10.6308
3106 3 5.27276 12.5054 10.6265
3607 2 5.37204 10.7188 12.6446
1108 2 8.8737 12.6752 10.8518
1607 2 8.80866 10.7596 12.6824
3121 1 8.91459 12.469 14.2487
3612 2 8.85605 14.2941 12.557
46 1 10.5402 12.6255 12.3822
625 2 14.2249 14.2924 14.3322
622 3 10.7716 10.8637 14.1151
612 3 10.5774 14.2684 10.5274
609 1 14.052 11.0871 10.7784
1123 1 12.634 12.4422 14.0359
1611 2 12.572 14.5507 12.4311
2109 2 14.1166 12.5553 12.4867
2625 2 10.8409 14.586 14.1027
2623 3 14.1941 10.8414 14.4116
2613 2 14.5492 14.3676 10.777
2609 2 10.5995 10.7598 10.7915
3108 2 12.4892 12.7087 10.6226
3609 2 12.4258 10.6939 12.3824
811 2 17.8255 14.127 14.2802
794 2 17.8752 10.4654 10.7738
1110 1 15.9583 12.2938 10.7574
1608 1 16.1462 10.6326 12.3066
2043 3 17.8706 12.3366 12.4776
2871 2 17.6938 10.4175 14.175
2860 2 17.7327 14.1421 10.676
3122 1 15.9423 12.4398 14.2123
3613 3 15.9168 14.2966 12.5506
47 3 0.0743275 15.9992 12.5521
676 1 -0.0628017 17.8491 14.0443
1124 3 1.95469 16.3032 14.2221
2720 3 -0.0520517 17.8355 10.6081
3109 1 1.68254 15.998 10.8224
3720 3 1.79175 17.8943 12.2887
49 3 6.81239 16.1625 12.7815
677 3 7.148 17.7407 14.4585
658 2 3.45778 18.0385 10.7671
1111 2 5.30058 16.0737 10.7924
1720 2 5.29171 17.9499 12.8389
2111 1 3.62141 16.4072 12.3963
2739 2 3.63458 18.2775 14.4157
2722 2 7.2856 17.6905 10.8042
3123 1 5.06534 15.9784 14.437
1125 3 8.85958 15.7331 14.1769
3111 2 9.01401 16.0796 10.6513
3722 3 8.92236 17.5673 12.6328
50 1 14.3237 16.1612 12.4835
678 2 14.3467 17.995 14.2793
660 3 10.8535 17.7445 10.7308
1113 2 12.6439 16.172 10.7018
1721 2 12.722 17.846 12.287
2112 1 10.85 16.0265 12.5226
2740 2 10.7304 17.8214 14.1111
2723 3 14.3417 17.7705 10.4032
3124 1 12.6571 16.1999 14.3075
297 2 17.7776 16.113 12.3269
926 2 17.9116 17.8084 14.1699
1126 1 15.8539 16.1372 14.1099
2907 2 18.0418 17.8747 10.501
3112 2 16.1292 15.98 10.6859
3723 3 16.0999 17.8118 12.4081
1613 3 1.7145 -0.00540015 15.8512
2114 1 0.125077 1.7968 15.7862
2626 2 -0.0532521 -0.245672 17.9939
3125 1 1.72059 1.78706 17.8618
51 2 3.55914 1.69023 15.8719
502 3 3.63461 0.198681 17.6633
1128 1 5.49184 1.90735 17.6831
2115 2 7.0042 2.07222 15.9769
2628 3 7.34177 -0.176414 17.8917
3614 1 5.63011 -0.0706502 15.8212
1614 1 8.70165 0.00646012 16.0025
3127 2 8.84131 1.59424 17.947
52 3 10.4352 1.71365 15.9992
504 1 10.6727 0.0118091 17.902
1130 2 12.1869 1.87497 17.7636
2116 1 14.1522 1.75 16.1604
2630 3 14.1883 -0.0285174 17.8288
3615 3 12.1339 0.122001 15.8802
1615 3 15.8019 -0.0818008 16.0978
2051 1 17.9163 1.94119 15.7293
2501 3 17.6942 -0.0952586 17.4199
3129 1 15.882 1.70519 17.7384
53 2 0.212771 5.56894 16.0384
506 2 -0.204863 3.4955 17.4127
1132 2 1.79522 5.28589 17.8673
1618 1 1.63158 7.32932 16.04
2636 2 -0.0322629 7.422 17.9202
3616 3 1.8866 3.53614 16.2789
54 3 7.14562 5.28934 16.1511
508 2 7.16364 3.539 17.9207
512 1 3.32378 7.26969 18.0371
1616 2 5.19856 3.86827 16.0528
2117 2 3.50495 5.41373 16.1257
2638 3 7.16474 7.21707 18.0257
2632 2 3.51134 3.71609 18.0185
3131 1 5.29496 5.39084 17.9217
3619 3 5.40769 7.02833 16.2068
1134 1 9.03931 5.46481 17.8354
1619 3 8.79498 7.06466 16.0501
3617 1 9.10547 3.75553 15.9929
55 1 14.4383 5.21379 15.7828
510 2 14.1816 3.68292 17.5728
514 1 10.7332 7.23184 17.9039
1617 2 12.4183 3.52603 15.918
2118 3 10.6835 5.42229 15.9643
2640 2 14.3703 6.98057 17.8543
2634 1 10.5889 3.47135 17.6873
3133 3 12.4235 5.30381 17.7999
3620 3 12.4636 6.96741 15.9428
303 3 17.7588 5.34965 16.1905
819 1 17.6155 3.46204 17.9734
1136 1 15.9619 5.11672 18.1322
1620 3 15.9624 7.32991 16.1121
2511 2 17.7517 7.18946 17.9403
3618 3 15.9222 3.55564 16.067
2119 2 0.00490149 9.14022 16.2397
3135 2 1.69664 9.08858 17.9756
56 1 3.58903 8.85633 16.0816
1138 3 5.25177 8.93047 17.8422
2120 2 7.10543 9.03721 16.1033
3137 1 9.00393 8.9025 17.7303
57 2 10.5973 8.91023 15.9091
1140 3 12.4992 8.90699 17.6346
2121 1 14.4384 8.95121 16.0746
2056 3 17.8208 8.96012 16.1421
3139 2 16.0468 8.90919 17.7723
58 2 0.0558461 12.3036 16.3947
516 3 -0.0700618 10.5748 18.141
1142 1 1.72348 12.2261 17.8778
1623 3 1.67366 14.0791 16.2391
2646 2 -0.166672 14.1842 17.9664
3621 2 1.74642 10.5165 16.1569
59 2 7.24137 12.4693 16.1402
518 2 7.04209 10.6183 17.7915
522 1 3.66139 14.2501 17.939
1621 1 5.23382 10.7411 16.0651
2122 3 3.57312 12.5286 16.0797
2648 2 7.3984 14.3733 17.9136
2642 2 3.62762 10.5576 17.8389
3141 2 5.05452 12.4394 17.8535
3624 1 5.53178 14.1574 16.0056
1144 3 8.7232 12.5041 18.0882
1624 1 8.85782 14.5987 16.1649
3622 1 9.04513 10.6023 16.1929
60 1 13.9254 12.5014 16.0738
520 3 14.1949 10.7539 17.7009
524 2 10.7788 14.3947 17.8893
1622 2 12.2267 11.0425 16.1232
2123 3 10.7011 12.8883 16.0842
2650 3 14.2259 14.126 17.6286
2644 1 10.7965 10.7484 17.7648
3143 2 12.4002 12.7299 17.7271
3625 2 12.4002 14.317 15.9865
308 1 17.7262 12.5269 15.7764
829 2 17.9626 10.6549 17.8205
1146 3 15.8547 12.373 17.6245
1625 3 16.0159 14.3336 15.8952
2521 3 17.8117 14.2439 17.6862
3623 1 16.0986 10.8136 16.0449
1738 2 1.5947 17.8509 15.9684
2124 1 -0.152488 16.0046 15.9974
2751 1 -0.0390441 17.9309 17.7252
3145 3 1.60829 16.0243 17.6667
61 2 3.62086 16.2556 16.0914
690 1 3.52121 18.0533 18.164
1148 3 5.27295 16.136 17.9428
2125 1 6.97666 15.9636 15.8895
2753 3 7.03057 17.8741 17.6805
3739 1 5.19508 17.9857 16.174
1739 1 8.96201 17.4892 16.0884
3147 3 8.93887 16.0143 18.017
62 1 10.7833 16.2511 16.0319
692 2 10.7732 17.9102 17.6596
1150 2 12.5611 16.0344 17.8383
2126 1 14.164 15.9709 16.0074
2755 2 14.4659 18.0932 17.581
3740 3 12.6053 17.8771 15.7973
1740 1 16.1375 18.0524 15.8905
2061 1 17.6849 16.2703 15.6809
2938 1 17.9193 18.0945 18.1574
3149 1 16.0761 16.2529 17.5708
501 1 -0.213547 -0.144451 21.0288
63 2 0.022213 1.67335 19.4507
1127 1 1.83916 1.77709 21.3654
3626 3 1.8461 -0.141026 19.3475
503 2 7.05441 0.0567711 21.4719
64 1 7.1126 1.74465 19.5484
1626 2 5.27181 0.0865255 19.5141
2127 3 3.52796 1.74913 19.538
2627 2 3.53753 -0.281272 21.1801
3126 1 5.20168 1.4577 21.595
1129 2 8.97644 1.82129 21.5344
3627 3 8.67776 -0.0937083 19.6356
505 1 14.4206 0.171185 21.2264
65 2 14.0563 1.75485 19.5467
1627 1 12.4099 0.140146 19.426
2128 3 10.4831 1.76807 19.6972
2629 1 10.6738 -0.0436323 21.4574
3128 2 12.3464 1.81114 21.3934
814 3 18.1122 0.115329 21.6591
313 3 17.968 1.90618 19.5096
1131 1 16.2885 1.50388 21.7823
3628 1 16.2819 0.190166 19.3658
511 1 -0.177336 6.73362 21.2305
1628 1 1.78681 3.37247 19.4446
2129 2 -0.0182525 5.2153 19.571
2631 3 0.290468 3.08664 21.3437
3130 2 1.76512 5.52327 21.3627
3631 3 1.64985 7.06218 19.6243
507 3 3.5808 3.44553 21.1777
513 3 7.20129 6.97287 21.5501
66 2 3.57752 5.35935 19.7218
1133 2 5.34482 5.39083 21.297
1631 3 5.51755 7.18167 19.8343
2130 3 7.01414 5.49746 19.563
2637 1 3.50966 7.14997 21.2382
2633 2 7.11832 3.58047 21.5088
3629 1 5.343 3.45487 19.5054
1629 3 8.95886 3.67352 19.7722
3132 2 8.99181 5.32211 21.3538
3632 2 8.96154 7.08535 19.5629
509 1 10.864 3.49666 21.4606
515 2 14.164 7.01186 21.4889
67 3 10.67 5.12298 19.6506
1135 3 12.5757 5.35522 21.5004
1632 2 12.5566 7.08621 19.6288
2131 1 14.159 5.42827 19.6864
2639 1 10.6593 6.97205 21.5393
2635 2 14.3122 3.25114 21.6776
3630 3 12.3599 3.61038 19.5975
824 3 17.7623 7.23116 21.3797
1630 3 15.8606 3.1314 19.753
2316 2 17.9064 5.53829 19.5471
2506 1 17.9161 3.35272 21.438
3134 2 15.5925 5.02966 21.2701
3633 3 15.9989 7.25911 19.7314
68 1 -0.304891 8.77512 19.919
1137 3 1.52276 8.86641 21.6129
69 1 7.10591 8.89709 19.9028
2132 3 3.51008 8.98475 19.7747
3136 3 5.40092 8.91752 21.4192
1139 2 8.98596 8.90177 21.3086
70 1 14.125 9.08922 19.6893
2133 2 10.8389 8.90331 19.6666
3138 1 12.6057 8.81656 21.1562
318 1 17.8536 9.12788 19.6054
1141 2 15.8817 8.97036 21.6566
521 1 -0.0331574 14.284 21.195
1633 2 1.59958 10.5114 19.8442
2134 1 -0.259684 12.4755 19.6308
2641 3 -0.323027 10.7366 21.538
3140 2 1.68631 12.505 21.2931
3636 3 1.55376 14.1602 19.3989
517 1 3.52873 10.672 21.5131
523 1 7.13816 14.1657 21.4627
71 2 3.32529 12.4052 19.6474
1143 2 5.23228 12.331 21.2809
1636 3 5.47965 14.332 19.6257
2135 2 6.87815 12.5367 19.4957
2647 1 3.72137 14.2651 20.8802
2643 2 7.25267 10.7745 21.6114
3634 1 5.46852 10.7297 19.757
1634 1 8.80076 10.4745 19.5323
3142 3 8.87591 12.542 21.293
3637 3 8.7911 14.3613 19.8675
519 3 10.5645 10.7187 21.3629
525 2 14.2279 14.2046 21.2981
72 2 10.8173 12.5766 19.6522
1145 1 12.4489 12.5607 21.4121
1637 2 12.46 14.1095 19.4784
2136 1 14.1039 12.414 19.5465
2649 1 10.7092 14.4043 21.2439
2645 2 14.0474 10.9271 21.4528
3635 3 12.3716 10.8686 19.6844
834 2 17.6649 14.5582 21.3069
1635 3 16.0109 10.5958 19.5794
2321 1 17.794 12.6827 19.5343
2516 3 17.9624 10.8986 21.1828
3144 1 16.0285 12.4448 21.2337
3638 2 15.9535 14.2297 19.3457
689 1 -0.04736 17.9325 21.3275
73 1 -0.077088 16.2094 19.6702
1147 3 1.67954 15.9486 21.3437
3751 3 1.69357 18.052 19.461
691 1 6.93749 17.917 21.6017
74 1 7.01595 16.2873 19.9278
1501 2 5.34055 17.9045 19.6011
2137 1 3.21729 16.1021 19.4731
2752 3 3.51617 17.944 21.1909
3146 2 5.36818 16.094 21.5308
1149 3 8.92695 16.3872 21.5494
3752 3 8.95053 17.9829 19.7727
693 3 14.2344 18.0689 21.2117
75 1 14.2596 16.0662 19.6311
1502 1 12.5057 17.7862 19.1666
2138 1 10.8371 16.2898 19.4324
2754 1 10.8754 17.835 21.3769
3148 3 12.6838 16.1566 21.1792
939 3 17.811 17.9693 21.2884
323 3 17.9534 16.1473 19.5465
1151 1 15.855 16.047 21.3567
3753 2 16.0369 17.8708 19.5317
1638 3 1.77882 -0.143671 23.1524
2139 3 0.119267 1.68247 23.2028
2651 1 0.0737777 -0.225363 24.9654
3150 1 1.80568 1.68902 24.9885
526 1 7.19312 -0.343635 25.2845
77 3 5.24811 1.67021 24.833
76 3 3.34431 1.69661 23.0006
2140 2 7.14294 1.75322 23.2294
3640 1 3.36792 -0.00905472 25.0004
3639 2 5.43748 -0.131672 23.4043
1152 3 9.12041 1.79326 25.1786
1639 1 8.60126 -0.125377 23.2817
78 3 10.7216 1.73345 23.433
1640 1 10.5508 -0.121616 25.0343
2142 3 14.2529 1.5122 23.3234
2141 1 12.2435 1.67278 25.1761
2652 1 14.1189 -0.276837 25.082
3641 3 12.2912 0.110502 23.0243
1641 2 16.0565 -0.236954 23.4603
2326 3 18.0193 1.53283 23.5611
2526 1 17.9295 -0.10794 25.0769
3151 1 15.8812 1.46371 25.0901
528 1 -0.133085 7.05752 24.8956
80 3 1.70241 5.29111 25.0644
79 2 -0.107571 5.22384 23.1518
1645 3 1.579 7.04361 23.2477
3643 1 -0.312663 3.54533 25.1994
3642 3 1.48469 3.56866 23.3204
527 2 3.43734 3.32466 24.7503
81 3 7.08188 5.46928 23.3639
1153 2 5.28599 5.33868 24.9796
1646 3 3.42707 6.71857 24.7782
1643 1 7.06463 3.53618 25.0062
1642 1 5.35327 3.45848 23.0606
2143 1 3.49712 5.20173 23.1079
2654 2 7.00858 7.39002 24.8796
3647 3 5.20371 7.09708 23.0303
1647 3 8.77104 6.96651 23.2446
2144 1 8.92504 5.52655 25.0877
3644 2 8.92904 3.4373 23.4361
529 2 14.3292 7.27232 24.8893
82 1 13.9462 5.19263 23.2602
1644 2 12.5861 3.4216 23.2431
2145 3 10.9069 5.24702 23.1834
2653 3 10.545 3.67946 25.1964
3152 1 12.5357 5.41678 25.0653
3649 2 10.7362 7.20079 25.0586
3648 2 12.4158 7.19958 23.452
3646 2 14.268 3.59729 24.9741
841 1 17.7549 7.21426 24.8842
329 3 17.8256 5.39798 23.2222
83 2 16.0165 5.27415 24.904
1648 1 15.831 6.99397 23.2464
3893 1 17.9172 3.58342 24.9725
3645 2 16.1477 3.46267 23.1688
1154 2 1.387 8.98991 24.8762
2146 3 -0.23326 8.78801 23.0269
84 3 3.40106 8.69264 23.3256
2148 1 7.14583 8.97559 23.278
2147 3 5.2751 8.98781 25.0912
3153 2 8.85518 8.99153 24.7613
86 3 12.6038 8.95577 24.9881
85 1 10.5963 8.90053 23.1584
2149 1 14.2202 8.93727 23.2648
1155 3 16.2044 9.02212 24.9452
2333 1 17.5837 9.12051 22.9881
87 1 -0.26315 12.6284 22.9448
1653 3 1.57901 14.482 23.1516
1649 1 -0.382687 10.8092 25.069
2150 3 1.70301 12.3604 24.6445
2656 3 -0.0330423 14.417 24.9019
3650 1 1.62818 10.6322 23.0836
531 2 7.2049 14.5193 24.8667
88 1 7.28425 12.6119 23.2657
1650 2 5.43569 10.5901 23.1591
2151 3 3.43414 12.6394 23.26
2655 1 3.58832 10.7488 24.6981
3154 3 5.35732 12.3318 24.8901
3655 1 3.38721 14.2765 25.0446
3654 3 5.2448 14.1405 23.1909
3652 3 7.05378 10.7885 24.8954
89 3 8.85948 12.7318 25.0576
1654 2 8.88747 14.4764 23.243
3651 3 8.85482 10.7654 23.35
530 3 10.7996 10.689 24.8983
90 2 14.3134 12.4313 23.3098
1156 3 12.4875 12.6607 24.902
1655 2 10.8011 14.2484 24.865
1652 3 14.1468 10.6764 24.8871
1651 3 12.2737 10.703 23.0223
2152 1 10.6993 12.8134 23.1495
2657 3 14.1966 14.582 24.9437
3656 2 12.7779 14.3782 23.1881
337 2 17.849 12.3977 23.1849
1837 1 17.8144 10.5208 24.8798
1656 3 16.0221 14.0622 23.1184
2153 1 15.7802 12.5978 24.9293
2531 1 17.4555 14.2126 24.9017
3653 3 16.012 10.9675 22.9885
1513 1 1.77761 17.9285 22.8899
2154 2 -0.0905823 16.0998 22.9064
2776 1 -0.217705 17.8333 24.7657
3155 2 1.65396 16.2095 24.8294
714 1 7.23419 17.8378 24.9757
92 2 5.11993 16.179 24.8382
91 3 3.38629 15.8702 23.0359
2155 2 7.11147 16.1355 23.2136
3765 3 3.43914 17.8901 24.8844
3764 1 5.03596 17.7627 23.097
1157 1 8.97361 15.9836 24.8799
1514 1 8.88336 17.9255 23.33
93 3 10.8409 15.9319 23.1452
1515 3 10.8624 17.854 24.8448
2157 1 14.36 16.1171 23.4037
2156 2 12.4911 16.1876 24.9815
2777 3 14.3571 18.2098 24.7809
3766 2 12.508 17.9437 23.1916
1516 3 16.0989 18.0151 23.1944
2341 3 17.7601 16.0245 23.1227
2963 3 17.88 17.9594 24.9529
3156 3 15.9583 16.3455 25.0382
94 2 -0.0340491 1.61978 26.6057
3657 1 1.66954 -0.0636914 26.5629
533 3 5.20735 0.0122622 26.852
1159 1 3.60275 1.734 26.5896
2159 1 7.20354 1.88349 26.6561
1658 2 9.04481 0.108717 26.8332
97 2 14.3172 1.65768 26.6633
2659 1 12.435 0.0514013 26.7658
3158 1 10.9153 1.92411 26.982
344 3 17.6652 1.75683 26.6351
3660 1 15.7736 -0.193226 27.0027
536 2 1.67898 3.4726 26.6888
1162 3 -0.192506 5.52285 26.7859
1664 2 1.57159 7.32914 26.5697
1661 2 5.00907 3.44493 26.4722
2162 1 3.54044 5.30557 26.6915
2665 3 5.25029 6.95786 26.8504
3161 3 7.23886 5.63157 26.685
2662 3 8.89502 3.46394 27.0488
3666 2 8.90905 7.2805 26.6722
542 3 12.5917 7.27091 26.7551
100 2 10.7194 5.35917 26.9024
1165 1 14.5304 5.28397 26.7197
3663 2 12.5613 3.52969 26.9275
539 3 16.0412 3.3145 26.8716
1349 1 17.8533 5.18739 26.8029
1667 1 15.9598 6.97615 26.8234
2165 2 -0.117514 8.91528 26.6788
103 1 7.02095 9.21678 26.6468
3164 1 3.55726 8.93018 26.8544
1168 3 10.6658 9.05442 26.8078
2168 2 14.4619 9.08697 26.8877
2352 3 17.6267 8.9048 26.8087
2668 3 1.78485 10.79 26.62
3167 3 0.322751 12.5946 26.5956
3672 2 1.66021 14.437 26.7015
548 2 5.2443 14.1954 26.8467
106 3 3.56914 12.3689 26.6735
1171 2 7.24557 12.5647 26.6024
3669 2 5.3661 10.6754 26.9285
545 1 8.96793 10.8759 26.6748
1673 1 8.70737 14.3677 26.6949
1670 1 12.5593 10.6228 26.5691
2171 3 10.5017 12.6521 26.6858
2674 1 12.4895 14.4179 26.6558
3170 3 14.1465 12.7778 26.702
2671 3 16.1387 10.8616 26.5863
3417 1 17.8625 12.7442 26.7071
3675 3 16.0198 14.4338 26.5289
109 3 -0.0233332 16.1266 26.6323
3782 3 1.59913 17.8103 26.5205
721 3 5.16944 17.9933 26.6301
1174 2 3.42938 16.3651 26.5565
2174 2 7.02573 16.3111 26.546
1533 3 8.99884 17.9344 26.552
112 3 14.2386 16.244 26.9111
2784 1 12.6942 17.7786 26.4961
3173 3 10.6614 16.2017 26.7054