ITEM: TIMESTEP
5000
ITEM: NUMBER OF ATOMS
4000
ITEM: BOX BOUNDS pp pp pp
1.4029209133721565e-01 3.5593767908662286e+01
1.4029209133721565e-01 3.5593767908662286e+01
1.4029209133721565e-01 3.5593767908662286e+01
ITEM: ATOMS id type x y z
1 2 0.0856387 1.87577 1.86907
1563 1 0.131018 0.266458 -0.0102978
2064 3 1.97065 1.90889 0.206159
3561 2 1.99267 0.0518022 1.76032
564 2 3.67977 1.82159 1.93155
565 1 7.2976 1.98447 1.87616
1565 3 7.30604 0.189032 0.239254
2065 2 3.70985 0.207399 0.121404
3061 3 5.37685 1.93173 0.071519
3562 1 5.38567 0.136508 1.82747
566 2 10.8239 1.97527 1.98845
1070 1 10.8507 0.369994 0.05466
3063 1 9.01879 0.243858 1.78631
3062 2 9.00047 2.06225 0.175233
567 3 14.3899 1.91324 1.91152
2566 3 14.3453 0.174016 0.114849
3064 2 12.5979 1.97479 0.224662
3563 3 12.4012 0.0608263 1.89836
2 3 18.0039 0.231994 0.0910206
3 2 15.9827 0.0332974 1.86767
3066 3 17.8803 1.85995 1.86745
3065 3 16.0819 1.91872 0.100833
4 2 1.79006 5.46901 0.265697
5 2 1.78431 3.60903 1.92938
6 1 1.907 7.34684 1.85714
1071 2 0.13301 5.41653 1.98343
3067 3 0.00882698 3.53424 0.0665395
3565 2 0.0680211 7.23641 0.308207
7 1 5.53433 5.41491 0.133098
8 1 3.67866 7.25444 0.134557
1072 2 7.24175 5.45302 1.88361
1075 3 5.49691 7.17602 1.91278
1074 1 3.62433 5.4767 1.88885
1567 1 7.33338 7.28646 0.260934
2570 3 7.29792 3.71928 0.0215421
2569 3 3.64347 3.67975 0.0564037
3569 3 5.32199 3.64698 1.89229
9 2 9.09568 5.44523 0.212095
10 3 8.9473 3.66002 2.01624
1077 2 10.8986 7.22858 0.130148
1076 3 10.867 5.37662 1.91082
1568 1 9.04652 7.12003 1.78667
3068 3 10.6416 3.75385 0.0865762
11 3 12.585 5.49235 0.196071
12 2 14.2906 3.63877 0.188006
570 2 12.5651 3.77276 1.81429
1571 1 14.3575 7.24175 0.102892
1570 3 14.376 5.57969 1.99323
1569 1 12.6384 7.27077 1.88881
572 2 16.2299 3.63827 2.03164
1081 1 16.1439 7.16815 2.05915
1079 2 17.8818 5.30832 1.94174
1078 2 16.1024 5.42361 0.133063
1573 3 17.8865 3.64824 0.170446
2070 2 17.8594 7.15466 0.196167
575 2 1.81729 10.8292 1.98252
1082 3 1.8153 9.04963 0.17959
1574 1 0.119619 9.08617 2.08802
3070 3 0.0446843 10.8067 0.148553
576 3 3.82758 10.8261 0.0781128
1085 3 5.63495 9.04858 0.229565
1083 1 5.44836 10.7861 2.07748
1577 3 7.16946 10.7958 0.132968
1576 3 7.25232 8.94945 1.99751
1575 2 3.61557 9.06187 1.98818
14 1 10.8364 10.8266 0.270586
1087 1 8.97675 10.776 1.96798
1086 3 9.0586 8.96688 0.0918971
2071 2 10.8277 8.92339 2.01626
580 3 12.5518 10.8236 1.99903
1088 1 14.37 10.7303 0.341229
2073 3 12.5488 9.05531 0.193059
2074 2 14.5545 8.79983 1.97661
15 3 17.9346 9.02769 1.98095
1581 2 16.1706 10.7759 1.88
2076 1 17.7784 10.8223 0.160855
2075 3 16.1676 8.98424 0.248724
2079 2 1.96088 12.5337 0.0195036
2078 1 1.89507 14.0986 1.88182
2077 1 0.256354 12.5775 1.82223
2572 2 0.0625708 14.2025 0.162436
2082 1 5.54983 14.214 1.85346
2081 2 3.65718 12.456 1.96808
2080 3 5.41975 12.5409 0.112631
2576 2 7.22717 14.2907 0.0785786
2575 3 7.31282 12.4202 1.84959
3071 3 3.736 14.306 0.171728
1583 2 9.02825 14.3626 1.94762
2084 1 10.6821 14.3096 0.102978
2579 2 10.7305 12.6375 1.98535
3073 3 8.89698 12.6146 0.134212
2085 2 12.4094 14.4064 1.99215
2580 3 14.2854 12.5447 1.9099
3074 1 12.4394 12.4865 0.254356
3574 3 14.353 14.4631 0.167664
581 1 17.8548 12.5553 1.95774
1089 2 17.8572 14.5256 0.164134
2583 3 16.2025 14.312 1.9867
3075 2 16.1366 12.665 0.0522351
16 3 0.218503 17.8675 0.057885
2086 3 1.76992 17.8674 1.86969
2584 2 0.182722 15.9102 1.82168
3076 1 2.01065 16.0357 0.139125
17 2 5.64324 16.1446 0.283119
1090 2 3.73553 17.8482 0.104238
2585 2 7.13215 17.9594 0.182338
3079 2 5.38641 17.9188 2.05643
3078 1 7.13432 16.0475 1.93405
3077 1 3.76471 16.0394 1.91277
18 2 8.71007 16.1885 0.19106
1585 1 10.6604 17.8661 0.0438622
3080 3 10.7737 16.1613 1.84172
3578 1 8.9102 17.8886 2.00956
19 3 12.5083 16.1029 0.145112
2088 2 14.3304 17.8638 0.0987611
3081 3 14.2947 16.0932 1.83162
3581 1 12.5725 17.8616 1.95513
20 1 16.1907 16.2093 0.19872
1586 3 17.7809 16.0902 2.08142
3083 1 16.0327 17.9339 1.93296
3082 3 18.0341 18.0112 0.21548
584 3 2.01774 1.88598 7.24794
1564 2 0.0842743 0.316321 3.64948
2588 3 1.91431 0.0405148 5.46936
2563 1 1.94161 1.73891 3.62059
3084 1 0.260762 0.178444 7.29836
3583 1 0.250023 1.78045 5.58663
22 3 5.31399 1.94213 7.40459
1069 3 3.65924 0.169555 3.74945
1566 1 7.05273 0.177776 3.61077
2089 2 5.43814 0.270231 5.33309
2590 1 3.76345 -0.0637208 7.25254
2564 1 5.49433 2.05995 3.68389
3085 3 7.12056 0.129443 7.30807
3585 3 3.60071 1.74966 5.57786
3584 2 7.20967 1.85081 5.60486
586 2 9.12699 2.08199 7.12653
2066 2 10.7223 0.195832 3.7907
2593 3 9.08488 0.309228 5.36778
2565 1 9.06624 1.87634 3.58634
3086 1 10.8612 0.186449 7.10516
3586 1 10.8875 2.04824 5.47357
23 2 12.7296 1.94207 7.11423
24 1 14.4805 0.134821 7.1147
25 3 14.3569 1.95808 5.26593
2568 2 14.3162 0.190522 3.74264
2567 2 12.6288 1.99101 3.56712
3087 2 12.5646 0.121642 5.41125
568 3 17.8159 0.145179 3.74771
588 1 15.9503 1.92938 7.16289
1587 1 17.8908 0.0746769 7.21458
3088 2 15.9586 -0.00142499 5.43488
3588 3 17.889 1.87423 5.46513
3564 3 16.1861 1.89011 3.84331
27 2 2.01802 5.504 7.25312
28 3 2.0674 7.17011 5.43668
589 3 0.208854 5.56091 5.44999
2067 1 0.231821 3.69118 3.75583
3090 3 1.85269 3.73873 5.33873
3590 3 0.170459 7.17343 7.24475
3589 3 0.344256 3.85395 7.04245
3567 2 0.182482 7.3889 3.73087
3566 2 1.98367 5.511 3.57341
29 2 3.72577 3.71592 7.34879
593 3 3.5406 7.12892 7.15203
592 3 7.22255 5.48529 5.48755
591 1 7.26339 7.28977 7.01079
590 3 3.5701 5.5393 5.31831
1095 2 5.27879 5.55788 7.22025
1094 3 5.43348 7.12543 5.29624
1073 2 3.74996 7.25456 3.64295
2068 2 7.21485 7.17446 3.72186
2069 3 3.43721 3.51487 3.8028
3593 2 5.32678 3.57571 5.35627
3592 1 7.11013 3.72461 7.13537
3570 1 5.52893 5.34148 3.5144
3568 2 7.32142 3.6809 3.79163
31 2 9.04625 3.78749 5.50612
569 2 10.8576 7.219 3.81521
594 2 10.9222 5.40124 5.54875
1097 1 8.94414 5.45727 7.40876
1590 1 9.09984 7.25012 5.4782
1589 3 10.8266 7.14734 7.21783
3594 3 10.9652 3.66939 7.28881
3572 3 10.7109 3.71805 3.66893
3571 3 9.13308 5.48913 3.71388
33 1 12.7623 3.74998 5.47179
35 2 14.3461 3.7141 7.19253
571 2 12.5419 5.49085 3.79811
595 2 14.4935 7.31588 7.21079
1100 3 14.3523 5.52768 5.49875
1099 1 12.6884 5.47444 7.2744
1592 3 12.6101 7.35639 5.61719
1572 3 14.3336 7.10001 3.83228
3069 1 14.3308 3.57564 3.661
573 2 16.1315 5.43675 3.74873
1080 1 17.8476 3.76046 3.68099
1595 2 16.1504 7.32513 5.45554
1594 1 16.1771 5.36744 7.34782
2094 2 17.8145 7.18945 7.28471
2092 3 18.0221 3.56743 7.23094
2571 3 17.9498 7.11291 3.78328
3092 2 17.8872 5.31646 5.39493
3595 2 16.2988 3.76378 5.53513
13 3 0.0657417 10.9064 3.68807
597 2 0.154384 10.7447 7.17291
596 2 1.97286 10.7335 5.46576
574 3 1.933 9.09705 3.75427
1102 3 1.90854 9.03815 7.43368
1101 3 0.124276 8.91877 5.55473
38 1 3.67784 10.8343 7.31481
578 2 3.79926 10.8442 3.84073
577 1 5.42993 8.94722 3.72199
1106 1 7.39521 10.7279 7.31529
1104 2 5.58948 10.6575 5.55928
1103 1 3.80293 9.01077 5.50735
1084 2 7.23656 10.7294 3.70737
1597 1 7.30776 8.96596 5.46431
1596 1 5.52909 8.98046 7.25715
39 3 10.6648 10.8039 7.24624
599 2 8.936 10.7083 5.33453
579 1 10.7967 10.6797 3.64861
1107 2 9.14253 8.92967 7.17914
1578 1 9.07079 8.93301 3.59858
2097 2 10.9009 9.1312 5.42895
1108 1 12.5864 10.8508 5.30393
1598 1 12.5202 9.23896 7.41841
1579 2 12.6849 8.86813 3.72129
2072 1 14.2719 10.8031 3.72768
2099 1 14.0964 10.7964 7.2905
2098 1 14.2883 9.0132 5.53576
1599 1 16.2965 8.97184 7.27668
1580 3 16.0679 9.02615 3.70831
2100 3 16.1619 10.9363 5.67341
3093 2 17.8613 10.9105 7.41436
3597 3 17.9338 8.9125 5.53159
3573 3 17.8698 10.8903 3.67435
1110 1 0.0636036 14.2212 7.19668
1582 1 2.00937 12.5669 3.74822
2103 1 1.83167 12.553 7.20625
2102 3 1.92087 14.4184 5.48301
2101 2 0.145612 12.4992 5.51289
2573 1 0.0671008 14.2188 3.56353
1112 2 7.17744 14.3638 7.22277
1600 3 5.34084 12.5566 7.23466
2104 2 5.38008 14.3553 5.58671
2083 1 3.73129 14.2667 3.80109
2601 3 7.35988 12.5492 5.39648
2600 2 3.54601 12.5678 5.3929
2599 3 3.71309 14.3267 7.2681
2577 2 7.16503 14.4108 3.69083
2574 1 5.52177 12.8397 3.68705
2604 3 8.89341 14.3875 5.48774
2603 3 10.8034 14.3202 7.16029
2602 3 10.6953 12.4867 5.46038
2578 3 8.94126 12.572 3.62479
3097 2 8.94983 12.5939 7.13696
3072 3 10.7351 14.2567 3.85819
602 2 14.3987 14.3352 7.34439
1603 3 12.4493 12.52 7.24111
2605 2 14.3798 12.3986 5.54576
2581 1 12.5066 12.775 3.72055
3098 3 12.7541 14.1681 5.61336
3575 1 14.1251 14.3089 3.57068
1114 1 17.8449 12.5815 5.43589
1584 2 17.8513 14.2247 3.94761
2582 3 16.1044 12.5149 3.63705
3100 3 15.9254 14.2783 5.37639
3099 1 15.9356 12.633 7.3547
3599 1 17.9477 14.5107 7.23053
582 2 0.046062 17.8322 3.67438
1605 2 1.81929 17.9362 5.50327
1604 3 1.96046 16.1758 7.23968
3104 3 0.099337 16.1209 5.45245
3103 2 -0.01483 17.8195 7.30623
3576 1 1.98529 16.1773 3.7789
2087 1 3.53003 17.8773 3.84675
2607 3 5.37533 17.8305 5.47704
2586 3 7.19409 17.8392 3.83147
3107 3 7.16559 17.7943 7.32506
3106 2 5.4686 16.1027 7.23355
3105 3 3.61463 17.9533 7.28471
3602 3 3.66736 16.0707 5.57389
3601 1 7.10046 16.0571 5.44728
3577 1 5.41244 16.0679 3.77405
1091 3 10.8174 18.0141 3.78301
2107 2 8.88613 16.1664 7.25551
2608 3 8.94822 17.8341 5.54075
3109 2 10.7152 17.7286 7.19591
3603 2 10.6931 16.1701 5.44856
3579 3 9.01224 16.1681 3.70018
41 1 14.295 16.1262 5.57025
2610 2 12.5283 17.8112 5.38658
2609 2 14.3419 17.749 7.16333
2587 3 14.2571 17.9472 3.69995
3604 1 12.6017 16.1525 7.19966
3580 2 12.5399 16.0755 3.83205
583 3 16.0554 16.0386 3.79144
1606 1 17.8317 17.8066 7.17636
2109 3 16.0888 16.0067 7.39222
3112 2 15.9922 17.8724 5.50881
3110 1 17.682 16.0285 5.47161
3582 3 17.885 17.8711 3.83041
21 3 0.170642 1.98472 8.87144
604 3 0.2364 0.0592988 10.8966
2110 2 1.95611 1.90453 10.9431
2589 2 1.92223 0.145781 8.92366
585 2 7.25182 1.96157 8.8545
1092 2 5.5132 0.0816796 9.06326
1608 1 7.24468 0.15495 10.6474
1607 3 3.66076 0.175694 10.9524
2111 3 5.34307 2.06043 10.7254
2591 2 3.5402 1.87513 9.06113
1116 1 10.6233 0.219339 10.7577
2612 3 8.85667 1.81842 10.8127
2592 2 10.9187 1.90315 8.97856
3587 3 9.042 0.128465 8.88759
587 1 14.3148 1.85227 8.98907
1609 2 14.2683 0.144477 10.767
2090 1 12.6591 0.100872 9.00018
2613 2 12.5241 1.91959 10.6401
26 3 16.053 0.0861798 8.93265
2594 3 17.8809 1.80631 8.81708
3116 3 16.1099 1.84456 10.7444
3115 2 17.8572 0.0886358 10.7793
1093 1 1.90878 7.15303 8.9073
2091 2 1.79272 3.65395 9.07271
2615 3 0.0769601 3.81286 10.6579
3118 2 0.177821 7.1868 10.6569
3117 2 2.00565 5.46698 10.7465
3089 3 0.221994 5.49529 8.87082
30 3 5.53684 3.79416 9.02554
45 1 7.21627 7.35612 11.0301
1096 1 3.48604 5.50851 9.03867
2112 1 7.2319 3.66292 10.7675
2616 3 3.68377 3.87009 10.8148
3091 2 7.17176 5.74651 9.08355
3608 1 3.72943 7.19806 10.8743
3607 3 5.519 5.45747 10.828
3591 3 5.30844 7.278 8.98895
46 2 10.9948 7.28089 10.7736
1098 1 10.7003 5.45124 8.93683
1591 1 9.05286 3.63383 8.86284
1588 1 9.10778 7.32873 8.87589
2113 3 10.7404 3.67787 10.6752
3609 1 9.07308 5.59309 10.7082
32 3 12.571 7.12857 8.99223
34 2 12.5991 3.66663 9.08252
36 3 14.4436 5.3801 9.043
609 1 14.3553 7.0037 10.6921
3119 3 14.3556 3.62119 10.6908
3611 1 12.5626 5.50329 10.7064
1120 3 17.9553 3.54025 10.7438
1615 2 17.8666 7.13358 10.6486
1593 3 18.0417 5.31188 8.9674
2093 2 16.2001 7.0476 9.02356
2595 1 16.1107 3.70435 8.91262
3612 2 16.2876 5.37365 10.7171
48 1 1.73964 9.00961 10.5534
2095 2 -0.0527153 9.0984 8.99384
2596 2 1.90121 10.8709 8.98249
3120 2 0.0248558 10.7245 10.7168
37 3 3.66049 9.01367 9.13152
49 2 5.47047 8.95742 10.7885
612 3 7.28295 10.6378 10.6676
1105 1 5.41416 10.8735 9.12933
2096 1 7.29393 8.88893 8.90702
3121 2 3.53699 10.9339 10.7826
613 3 9.1156 8.91357 10.7713
598 1 10.8035 9.11869 9.07662
3613 1 10.8465 10.8423 10.7746
3596 1 8.91998 10.8516 8.9551
50 1 14.2959 10.7287 10.8957
614 1 12.6487 9.03349 10.6331
2598 1 12.329 11.0157 9.18411
2597 1 14.599 8.98568 8.98991
51 3 17.9106 10.7844 10.6847
600 2 17.9059 8.99225 8.98041
1122 2 15.8901 8.90688 10.9156
1109 2 16.073 10.7549 8.88947
616 2 -0.0767018 14.1255 10.648
601 3 0.0874122 12.5132 8.81701
1123 3 1.73666 12.5187 10.8032
3094 3 1.83812 14.2585 9.10082
1124 1 5.31839 12.6283 10.8312
1111 3 5.37162 14.2955 9.12253
1619 1 7.27848 14.5 10.8953
1618 3 3.69079 14.4602 10.9021
1601 1 7.13322 12.5706 9.00968
3095 2 3.64731 12.5098 8.99734
617 3 10.761 14.1506 10.7045
1125 3 8.85272 12.4917 10.6086
3096 1 9.022 14.4817 8.94528
3598 2 10.5941 12.6069 8.93908
1126 1 14.2443 14.4373 10.7994
1113 3 12.5375 14.3078 8.9953
1620 3 12.6655 12.6916 10.8259
1602 3 14.3038 12.5689 9.06442
1621 3 16.1922 12.5587 10.9706
3126 3 17.8593 14.5471 11.0368
3102 1 15.9771 14.4719 9.12251
3101 3 17.8293 12.7096 9.0928
1623 3 0.119655 17.8716 10.6447
2119 3 1.67104 16.1609 10.797
2606 3 1.80934 17.8743 9.11923
3600 2 0.0540548 16.0938 8.90162
40 2 7.16192 16.1335 9.00206
619 2 3.63507 17.9019 10.6707
1127 1 7.21872 17.7789 10.6318
2120 1 5.52636 16.0944 10.8445
2106 1 3.71319 16.1852 9.10291
2105 3 5.42976 17.9807 9.07568
1624 3 10.7277 17.899 10.6866
2108 1 10.7651 16.1863 9.04623
2625 2 9.0815 16.1711 10.7759
3108 2 8.99618 17.7471 9.03655
603 2 14.1645 16.1747 9.09864
1115 2 12.3639 17.8002 8.96055
2626 2 12.528 16.1195 10.7181
3620 2 14.3443 17.8976 10.7803
2628 3 16.1585 16.2266 10.8998
2611 1 17.9984 16.2815 9.14704
3127 1 17.6812 17.9408 10.6294
3111 3 15.9574 17.9489 9.05353
42 1 0.211433 1.87902 12.5347
2121 1 0.184367 0.10159 14.4025
2629 1 1.7238 1.92565 14.3851
3113 2 2.06073 0.239473 12.6709
43 1 3.68037 2.06117 12.551
605 1 7.21836 1.98824 12.6056
1625 3 7.38122 0.196655 14.3663
2123 3 3.56669 0.282684 14.4901
3128 1 5.53343 1.84959 14.4512
3605 3 5.47424 0.346732 12.5857
606 3 10.8051 1.93708 12.5114
1627 1 10.8787 0.266836 14.3587
3129 2 8.99359 1.88146 14.2708
3606 2 8.93696 0.1959 12.5089
1117 1 14.1744 1.92367 12.3741
2632 3 14.3396 0.162938 14.3301
3131 3 12.5361 2.01226 14.389
3114 3 12.517 0.175833 12.5869
44 1 16.1364 0.292582 12.5468
501 2 17.9836 0.192336 14.3085
2614 2 17.9862 1.92852 12.5479
3132 1 16.1548 1.79564 14.2296
607 1 1.94921 3.70949 12.6334
1119 1 1.84189 7.10969 12.4392
1118 3 0.115046 5.47747 12.5128
2634 1 0.133978 7.25108 14.4272
2633 2 0.109894 3.71932 14.2324
3624 3 1.90123 5.51959 14.3926
60 3 7.27524 7.12608 14.3791
608 1 5.58032 3.69989 12.6668
1612 1 7.3721 5.4829 12.5517
1611 2 5.35446 7.32054 12.5842
1610 1 3.71281 5.42295 12.5862
2128 1 7.26559 3.77042 14.4197
2126 3 3.64605 3.75927 14.3543
3136 1 3.61459 7.25294 14.2572
3626 3 5.58619 5.46594 14.209
1613 1 10.7457 5.39202 12.6891
2114 3 8.97231 7.18863 12.5678
3137 3 10.7145 3.63019 14.5209
3629 2 9.10225 5.50023 14.3131
3628 3 10.9417 7.31984 14.2868
3610 1 9.04992 3.6564 12.6116
610 1 12.4903 3.82432 12.5063
1614 1 14.3067 5.42995 12.5031
2617 3 12.605 7.31365 12.4737
3138 3 14.215 3.8097 14.3163
3631 3 14.2569 7.20529 14.3797
3630 3 12.6384 5.44279 14.3512
47 1 17.8479 5.37928 12.4389
65 2 16.1169 5.35286 14.3013
1138 1 17.846 3.7311 14.0947
1121 2 15.9125 3.65539 12.4688
2618 3 16.1266 7.09218 12.6134
3140 2 17.8246 7.0197 14.3212
67 1 1.72935 9.10363 14.1921
611 1 1.77496 10.8262 12.4729
2115 3 0.230512 8.82211 12.3416
2636 3 0.0957905 10.7531 14.2213
69 3 7.1295 10.8296 14.3088
70 2 5.42527 8.8965 14.2715
1616 3 5.40211 10.936 12.5201
2116 1 3.66247 8.97643 12.5138
2619 3 7.21187 9.04054 12.6494
3633 1 3.44636 10.7606 14.1861
71 1 9.03097 9.03341 14.2901
2117 3 9.10387 10.799 12.517
2620 3 10.8647 8.99719 12.5874
3141 1 10.9748 10.8496 14.3003
510 2 12.7803 9.01275 14.478
1617 1 12.5583 10.8798 12.5889
3122 1 14.4697 9.05428 12.6436
3635 1 14.3833 10.8711 14.3711
511 3 16.2213 8.90201 14.3299
615 3 17.8785 8.98078 12.3883
1639 3 17.9241 10.7868 14.2836
2118 2 16.0776 10.8305 12.6822
513 1 -0.0656051 14.4174 14.3543
514 3 1.80655 12.6767 14.2349
2621 1 -0.104169 12.5645 12.3878
3123 3 1.66914 14.3599 12.4726
72 1 7.18587 14.2184 14.2867
515 3 5.32428 12.5634 14.3684
516 2 3.6418 14.3732 14.2571
3125 3 7.30678 12.4978 12.4466
3124 2 3.73463 12.532 12.6134
3614 3 5.43389 14.3412 12.6424
73 2 10.7676 14.3667 14.3719
1145 2 9.1521 12.5341 14.4201
3616 3 10.8773 12.5977 12.5557
3615 3 8.91246 14.3042 12.5821
1147 1 12.5868 12.6634 14.3116
1146 2 14.5012 14.3086 14.5087
2622 2 12.5955 14.4662 12.7152
3617 2 14.2838 12.6206 12.6319
1149 2 16.1071 12.4795 14.3305
1622 2 17.8933 12.5734 12.583
3146 1 17.7514 14.4601 14.3469
3618 1 16.0617 14.3325 12.6585
52 2 0.0859071 16.0181 12.5053
518 3 0.0735109 17.8464 14.1592
1150 3 1.86872 16.2093 14.1998
2623 1 1.81454 18.0176 12.5596
53 3 3.70992 16.3595 12.4847
618 1 7.31114 16.116 12.6029
1151 3 3.69751 17.9281 14.3231
1642 1 5.41368 16.1249 14.4359
2142 3 7.34067 17.8794 14.323
2624 3 5.36723 18.0206 12.5896
54 3 10.5789 16.1195 12.612
1643 3 8.99489 16.0384 14.3318
2649 1 10.6843 18.0238 14.3382
3619 3 9.05997 17.9972 12.4398
55 3 12.4394 17.7797 12.4796
620 3 14.344 16.3643 12.5725
1646 2 12.3676 16.0933 14.3192
1644 2 14.1745 17.8752 14.4141
56 2 16.0483 17.9741 12.6668
1647 1 15.9848 16.2376 14.4306
2627 1 17.9671 16.2999 12.5668
3644 3 17.9635 17.8337 14.4262
57 3 1.83693 0.0404606 16.1789
621 2 0.00825512 1.89975 16.0214
1128 3 0.0302714 -0.00309903 17.8656
2122 3 1.92195 1.73456 17.8736
58 2 5.41742 0.0586302 16.1513
1132 2 7.22436 -0.0655804 17.9734
1131 3 7.12731 1.87985 16.3435
1130 2 3.71616 0.117063 17.8143
1129 3 3.68198 1.93246 16.1794
2630 2 5.31079 2.03999 17.9273
1133 2 10.6715 1.88739 16.225
1626 2 10.851 0.255549 17.8846
2631 2 8.90529 1.82428 18.0113
3621 1 9.01881 0.339826 16.0171
59 2 12.6851 0.0798674 16.1413
1134 2 14.2151 1.92059 16.1828
2124 2 14.4035 0.223369 17.9591
3130 2 12.6841 1.95599 18.0245
502 3 16.0154 0.236896 16.1819
3133 1 16.2848 1.86128 17.8899
3623 1 17.8589 0.0155032 17.7539
3622 1 17.9236 1.9661 15.9756
503 2 1.89183 3.60203 16.0243
504 2 1.91904 7.29689 16.2018
1628 2 0.0413265 5.53501 16.1088
2125 3 0.130387 3.55123 17.7694
3134 2 0.221534 7.29681 17.9312
3625 2 1.85536 5.48098 17.863
61 1 5.32508 3.74003 16.0262
505 1 3.73257 7.22951 17.9027
1135 1 7.13895 7.24567 17.8437
1631 1 5.30685 7.24323 16.0102
1630 2 3.6764 5.53788 15.9882
1629 3 7.31038 5.35556 16.2039
2127 3 3.5231 3.62701 17.8925
3135 3 7.15214 3.70343 17.824
3627 2 5.26209 5.29219 17.722
62 1 9.12013 5.44685 17.8814
63 1 10.8371 7.16744 17.95
506 1 9.08667 3.56363 16.3448
1632 3 10.9236 5.50888 16.1932
2129 3 8.93403 7.17045 16.0187
2635 1 10.6821 3.58186 17.8633
64 3 12.6758 5.4734 17.7343
1137 2 14.5462 7.24046 17.7968
1136 3 12.5428 3.6006 16.2616
2131 2 14.4687 5.32797 16.1751
2130 1 12.7484 7.39869 16.1454
3139 2 14.5229 3.69384 17.8035
66 1 17.8142 5.35817 16.0685
507 3 16.2188 5.417 17.9286
1140 3 17.8421 3.65308 17.7655
1139 2 16.2485 3.46503 16.0233
1634 1 17.9132 7.18911 17.7526
1633 2 16.1249 7.19746 16.0494
508 2 1.89822 8.99979 17.9065
1141 2 1.87717 10.7263 16.0128
2132 1 0.136515 9.11873 16.2752
3632 2 0.149512 10.7756 17.8298
68 2 3.72024 10.8259 17.9522
509 3 7.23946 10.7563 17.8152
1142 3 5.43091 9.01081 17.7632
1635 2 5.49732 10.7376 15.983
2134 1 7.09748 8.95901 16.0276
2133 3 3.70058 9.13548 16.0085
1143 2 8.86238 8.79166 17.8367
1636 1 9.0667 10.6446 16.0353
2637 3 10.7341 8.937 16.068
3634 1 10.6296 10.7311 17.796
1144 1 12.6638 10.6035 16.1933
1638 1 12.7445 8.83821 17.9058
1637 3 14.4142 10.7158 17.8993
2638 3 14.5352 9.05666 16.0734
512 2 17.842 8.90945 15.9466
1640 2 16.2175 8.97149 17.7914
2135 3 16.2138 10.6979 16.1304
2639 3 17.9862 10.5852 17.8747
2137 3 0.201737 14.3908 17.835
2136 1 1.90428 12.4163 17.8664
2641 1 1.99367 14.4076 16.0811
2640 1 0.101923 12.6613 16.0912
2140 1 7.31166 14.3008 17.9299
2139 3 3.74101 14.4993 17.8336
2138 1 5.561 12.4572 17.8064
2643 2 5.33188 14.3625 16.0827
2642 1 3.54647 12.6504 15.9961
3142 3 7.15123 12.5971 15.9181
2141 3 9.04572 14.4141 16.0609
2645 1 8.7433 12.5733 17.7315
2644 2 10.6762 14.2735 17.9136
3143 3 10.7289 12.5937 16.2246
2647 2 12.4534 14.4482 16.0159
2646 3 12.5255 12.5208 17.7774
3145 1 14.303 14.3513 17.6846
3144 3 14.4022 12.5798 16.0161
517 2 18.0503 14.2963 17.8998
1148 3 17.9266 12.5226 16.1243
3148 1 16.1578 14.4415 16.1569
3147 1 16.1478 12.5269 17.9702
2648 3 1.74526 17.8686 16.1114
3150 3 1.83225 16.1201 17.8234
3149 2 0.0602509 16.1885 16.0085
3636 3 0.111842 17.853 17.8669
1641 3 3.58741 17.9385 17.8283
2143 3 7.2353 17.8227 17.959
3640 1 5.55547 17.9606 16.0842
3639 1 7.27063 16.1884 16.1118
3638 1 5.58627 16.1222 17.6993
3637 2 3.74761 16.163 16.1134
74 2 8.98931 17.8785 16.1693
519 3 10.8216 17.9723 17.8401
3642 2 8.98265 16.0412 17.8193
3641 3 10.7371 16.1548 16.1733
75 3 12.5571 16.0167 17.7662
76 2 12.5747 17.8263 16.0837
1645 1 14.3118 17.8527 17.928
3643 2 14.4203 16.1271 16.0322
77 2 16.0267 16.23 17.8524
2144 2 18.0169 16.0572 16.1836
2650 1 17.8106 18.1154 17.8926
3645 3 16.1561 17.9647 16.0499
520 3 0.154718 0.141862 21.3455
78 2 0.200074 2.07047 19.6668
2145 2 1.70326 1.89335 21.4144
3151 2 1.96031 0.22171 19.6439
521 1 3.58374 0.324964 21.4577
80 1 3.6994 2.00139 19.7233
79 1 7.15614 1.82644 19.7448
2147 2 5.53799 2.02298 21.4236
2146 2 7.28563 0.147098 21.3495
2651 1 5.48002 0.102415 19.5953
81 2 10.6896 1.92359 19.6702
1648 2 10.7646 0.224017 21.4903
2652 2 8.90422 1.96724 21.3694
3152 3 9.18678 0.0405527 19.6898
522 2 14.5339 1.94846 19.5989
1649 1 14.3107 0.310127 21.3897
2653 3 12.4249 2.00663 21.3916
3646 2 12.4986 0.214721 19.8078
82 3 17.7096 0.0974058 21.4172
2654 1 17.7937 1.96325 19.7421
3153 1 16.1747 1.90883 21.6441
3647 2 16.0748 0.260802 19.8478
523 3 0.141411 5.40341 19.6849
84 1 1.78075 7.33809 19.6118
83 2 0.296319 7.20167 21.4818
1650 2 0.0717813 3.59083 21.6319
3155 1 1.90886 5.36472 21.3561
3154 2 1.89383 3.57975 19.6318
524 3 3.58191 5.34078 19.6361
525 2 7.26272 5.55745 19.6425
526 1 3.55028 7.29538 21.3322
1153 2 7.36879 7.40248 21.4821
1152 2 5.46319 7.27301 19.6693
2655 2 3.67734 3.65704 21.412
3156 1 7.20007 3.79955 21.4232
3649 2 5.47643 3.84116 19.7444
3648 2 5.34034 5.58331 21.3304
86 1 10.7121 7.40413 21.233
85 3 9.01543 3.59234 19.4957
1155 2 10.7373 5.4403 19.6222
1154 2 9.07062 7.17509 19.4754
2656 3 10.6658 3.72739 21.4286
3650 2 8.95891 5.63484 21.4097
527 1 12.6743 7.26704 19.4316
88 2 12.4663 5.64019 21.3341
87 3 12.4644 3.73509 19.6492
1156 3 14.2058 5.40208 19.5626
2148 3 14.2571 7.37172 21.4568
2657 3 14.2119 3.7147 21.3672
528 2 17.9974 3.88463 21.4193
89 3 16.0778 5.32923 21.3796
1157 2 16.29 7.15482 19.629
3158 2 17.871 5.5542 19.6867
3157 1 17.9522 7.10476 21.464
3651 1 16.044 3.60022 19.7223
529 2 1.97977 9.14472 21.5015
530 3 1.90304 10.7519 19.6784
1158 1 0.199504 9.0729 19.6794
3652 3 0.0706893 10.764 21.3631
531 2 5.39212 8.94788 21.4417
532 3 5.47178 10.7967 19.6717
533 1 7.14943 10.7861 21.3982
1159 3 3.71437 9.0628 19.5298
1651 2 7.25626 9.09625 19.6906
3653 1 3.85813 10.8386 21.3947
90 2 8.97219 10.8746 19.6377
1161 1 9.07039 8.92095 21.2974
1160 1 10.6702 10.8762 21.3405
1652 2 10.7697 9.13322 19.5306
534 1 12.647 10.791 19.3597
1162 1 12.5073 9.15137 21.1974
1654 1 14.3229 10.8736 21.3382
1653 1 14.6548 8.93983 19.6263
1656 1 16.1441 10.7691 19.6507
1655 3 16.1052 8.87527 21.3342
3159 1 17.9706 10.6771 21.3551
3654 1 17.9959 8.90452 19.7176
1660 3 0.259209 14.3813 21.4402
1659 1 1.80324 14.405 19.496
1658 3 1.91622 12.4882 21.4494
1657 1 0.206735 12.5529 19.5628
1163 3 5.4256 14.3627 19.6084
1661 1 3.59656 14.2395 21.437
2151 3 7.27818 12.6127 19.5941
2150 2 5.44383 12.5369 21.5136
2149 1 3.52929 12.5795 19.5171
3160 2 7.15369 14.4677 21.418
1662 1 8.96388 14.4094 19.5955
2153 3 8.9765 12.6966 21.4129
2152 3 10.8429 12.5294 19.5448
2658 1 10.833 14.403 21.3176
2155 3 14.4274 12.5586 19.5203
2154 1 12.474 14.3521 19.5329
2660 1 14.3465 14.4247 21.3173
2659 1 12.5191 12.6487 21.279
535 2 18.04 12.562 19.5942
1164 3 18.0174 14.3634 21.453
2156 3 16.1135 14.3758 19.5744
2661 1 16.289 12.4585 21.2854
1165 2 0.171572 17.7586 21.5121
2157 2 1.85753 17.9751 19.721
2662 2 0.221762 16.1111 19.7021
3161 2 1.96552 16.1273 21.5084
1664 1 7.10404 17.995 21.4229
1663 2 3.68313 18.023 21.4863
2664 1 3.62012 16.1651 19.6588
2663 1 7.12395 16.2464 19.7326
3163 3 5.46525 16.1144 21.4749
3162 1 5.29882 17.7787 19.5819
536 3 10.6942 17.8818 21.4578
2665 1 10.7446 16.085 19.4674
3164 3 8.9672 17.8398 19.6167
3655 1 8.84568 16.2552 21.4329
2666 2 12.4972 17.8213 19.5399
3166 3 14.3292 16.0455 19.5704
3165 2 14.4126 18.0112 21.2264
3656 2 12.4675 16.1529 21.1899
92 2 16.0827 16.2013 21.2923
91 1 17.9666 17.9349 21.255
1166 3 17.9316 16.1964 19.5802
3167 1 16.2447 17.9728 19.4781
93 2 1.89837 1.74738 25.0707
1665 1 1.93688 0.201644 23.125
2667 1 0.058039 -0.0384109 24.8769
3168 3 0.192423 1.82508 23.2481
2158 3 5.55675 0.124393 23.1493
2670 2 3.58775 -0.032843 24.7747
3170 2 7.25667 2.0109 23.1643
3169 2 3.86445 1.89417 23.2016
3659 1 7.18438 0.0694251 24.8792
3658 3 5.43619 1.90373 24.9011
537 1 8.90415 1.89055 25.0195
2671 1 9.03815 0.169377 23.0465
3171 3 10.8522 0.0933311 24.9993
3660 1 10.7441 1.92349 23.2683
2673 1 12.5471 0.150526 23.1379
3663 2 14.217 1.93215 22.9749
3662 1 14.3153 0.181566 24.8679
3661 3 12.5679 2.00706 24.7448
539 1 16.035 1.89722 24.7601
1167 3 17.7883 0.148029 24.9224
1668 3 17.9915 1.90387 23.2796
2160 2 16.0271 0.114379 23.1395
99 2 2.01511 5.35908 24.8793
98 2 1.85406 7.35999 23.1828
97 2 0.24865 7.15058 24.9698
96 3 0.248465 5.52574 23.2135
3173 3 2.0736 3.55147 23.2042
3172 2 0.240059 3.6293 25.0061
540 2 3.67305 7.37951 24.9099
541 1 5.4045 7.19255 23.1373
542 2 7.03923 5.64248 23.1924
543 3 5.39705 5.52297 25.0363
101 1 7.20914 7.30166 25.0294
100 3 3.72962 5.70076 23.1592
2675 3 7.07503 3.77139 24.9078
3175 1 3.72569 3.58103 25.1502
3665 1 5.37722 3.8041 23.1572
546 3 9.07932 7.21282 23.1727
547 3 9.03428 5.54054 25.0714
102 2 10.7557 5.55297 23.2441
1170 1 10.8424 7.20041 24.909
3177 2 10.7775 3.69885 24.8707
3666 3 8.95649 3.87531 23.1913
548 1 14.2341 5.43838 23.0567
549 1 12.6399 5.35493 25.0506
105 1 14.3252 3.56956 24.8909
1670 1 12.4635 7.215 23.1401
3179 1 12.5241 3.83438 23.1876
3667 1 14.2264 7.15735 24.7981
1172 1 16.0096 5.4477 25.1366
1672 3 17.8382 3.65541 24.984
1671 1 16.2258 7.30043 23.1321
2678 1 18.0015 7.41072 24.9417
2677 2 17.9119 5.53624 23.3022
3668 2 16.1306 3.85309 23.1086
550 1 0.188753 8.94988 23.1607
106 3 1.96748 10.9166 23.1101
1175 1 1.86992 8.99059 25.0642
3669 1 0.309055 10.7494 24.995
108 2 5.44555 10.6403 23.0996
1180 1 7.26638 10.887 24.7476
1178 3 7.30564 9.10033 23.0999
1177 1 3.50627 9.00615 23.068
1176 1 5.39007 9.07754 24.8858
3670 1 3.55443 10.8173 24.9492
551 1 10.8796 10.9598 24.9937
552 2 9.02553 10.9979 23.1272
1181 3 8.95969 9.09114 24.9645
1674 3 10.7473 9.06259 23.22
1182 2 12.4511 10.8725 23.0679
1676 2 12.4958 9.04842 24.9425
1675 1 14.2913 9.19852 23.2085
2163 1 14.3524 11.0128 25.0238
1183 3 16.1806 9.06194 24.9906
1677 1 16.1591 10.6176 23.1253
2165 3 17.8386 10.8578 24.9342
3671 1 17.9534 9.06042 23.0278
555 2 0.23695 14.4321 25.0793
1184 2 1.98697 14.2425 23.1595
1678 2 1.98885 12.5594 24.9211
2166 3 0.02706 12.6302 23.0959
113 2 7.17155 14.2413 24.9398
1185 2 5.43635 12.5701 24.915
2170 3 5.40455 14.2832 23.134
2169 2 3.69926 12.6 23.1002
2168 1 3.66292 14.3842 24.881
2167 1 7.14345 12.5182 23.0962
1680 2 10.8058 14.3067 24.9103
2171 1 10.7579 12.5631 23.0502
2682 1 8.82382 14.3677 23.1963
2681 2 9.0689 12.7249 24.7889
114 1 14.4058 14.2451 24.9501
1681 3 12.5839 12.6384 24.8024
2684 1 14.2993 12.535 23.1122
2683 3 12.6106 14.3959 23.0506
557 3 17.9322 12.6865 23.1106
2173 2 16.0516 14.3897 23.164
2685 1 16.0463 12.4353 24.9392
3183 1 17.797 14.1728 25.0049
1684 2 2.02514 16.0609 25.0911
1683 1 1.95339 17.7729 23.2195
2688 3 0.169752 16.0234 23.2132
2687 2 0.210984 17.8239 25.0081
2175 2 7.20127 17.9565 25.1134
2174 2 5.2766 17.8919 23.2885
2689 1 3.70461 17.8329 25.1555
3187 3 5.31216 16.0463 25.0512
3186 2 7.08542 16.1269 23.382
3185 2 3.59261 16.1413 23.1946
1687 2 8.98383 17.7964 23.2585
1686 2 8.8683 16.1754 25.0238
2177 2 10.7572 17.804 24.9425
3675 3 10.7785 16.0499 23.107
2178 1 14.0289 17.8602 24.7538
2690 2 12.4105 17.8529 22.9696
3188 2 12.5542 16.0206 24.8306
3676 3 14.2327 16.2507 22.9094
1187 3 17.9831 16.2275 23.1166
1186 1 17.9187 17.8291 24.9057
1689 2 16.0228 16.1142 24.9177
3189 1 16.102 17.8938 23.0961
1188 2 0.078237 0.0348785 28.5775
2180 1 1.75301 1.98724 28.5525
2668 1 1.86197 0.0580631 26.8049
3657 2 0.30104 2.01079 26.7921
559 1 7.13572 0.0857428 28.4178
94 2 7.26167 1.79602 26.6959
1189 1 3.80959 0.10154 28.6805
1666 1 5.44219 0.0470547 26.8237
2181 3 5.359 1.80745 28.4235
2669 3 3.64848 1.79191 26.6686
560 1 10.8019 0.104001 28.4398
95 1 8.94479 0.178001 26.6618
2182 1 8.9871 1.95844 28.4434
2672 3 10.7205 1.9928 26.5912
538 3 14.2897 1.98014 26.702
1667 2 12.4956 0.0488554 26.8003
2184 3 12.3517 1.84222 28.5295
2183 3 14.3243 0.170103 28.5381
2159 3 17.8446 1.88685 26.7732
3193 3 16.0531 1.94281 28.4495
3679 2 17.8655 0.170076 28.4131
3664 2 15.9536 0.194079 26.7112
1168 2 1.94226 3.66309 26.7367
1669 2 1.88156 7.06787 26.7298
2186 1 0.0664232 7.05644 28.4726
2185 2 0.171328 3.77298 28.5832
2674 1 0.229996 5.37806 26.6289
3194 3 2.05579 5.33499 28.4513
544 3 3.73864 5.47424 26.7083
563 1 7.2041 7.27261 28.5569
1691 2 7.24428 3.71471 28.4941
1690 1 3.72775 3.65418 28.4335
2676 3 7.2799 5.44502 26.7666
3196 3 3.60542 7.13562 28.544
3195 1 5.55873 5.45525 28.2721
3176 2 5.53168 3.68751 26.6931
3174 1 5.41553 7.32521 26.6208
545 2 10.7677 5.65437 26.7559
1171 1 8.96667 3.81275 26.6222
1169 1 8.93639 7.40546 26.6781
2694 1 10.728 3.6577 28.5429
3197 1 9.0119 5.54008 28.446
3681 2 10.751 7.12576 28.4955
104 3 12.4607 3.57413 26.6835
103 1 14.317 5.41707 26.828
2695 3 14.2068 3.61545 28.4459
3178 2 12.5945 7.17796 26.6058
3684 2 14.4509 7.34019 28.4123
3683 1 12.5334 5.61462 28.6065
622 2 17.6877 3.70241 28.5299
1004 1 17.8312 7.04942 28.6609
1174 1 16.1804 7.20714 26.6911
1173 2 17.9014 5.58645 26.7727
3180 1 16.0744 3.69365 26.7257
3685 2 15.9876 5.48527 28.4451
1673 2 0.171113 9.02946 26.8384
2161 1 1.77655 10.8871 26.8064
2696 2 0.210648 10.6058 28.551
3687 1 1.8464 8.77051 28.3855
122 3 7.20286 10.6765 28.5474
107 1 3.63872 9.19714 26.8237