ITEM: TIMESTEP
5000
ITEM: NUMBER OF ATOMS
4000
ITEM: BOX BOUNDS pp pp pp
8.2333587987573509e-02 3.5651726412012351e+01
8.2333587987573509e-02 3.5651726412012351e+01
8.2333587987573509e-02 3.5651726412012351e+01
ITEM: ATOMS id type x y z
1 2 -0.0117545 1.80568 1.73929
1563 1 0.0158476 0.0900823 0.018547
2064 3 1.89106 1.80272 0.172596
3561 2 1.8821 0.069613 1.80625
564 2 3.62237 1.58503 2.0616
565 1 7.13533 1.76353 1.67052
1565 3 7.08006 -0.0149479 0.0397897
2065 2 3.70527 0.0598646 -0.00680629
3061 3 5.28632 1.75339 0.137914
3562 1 5.57783 -0.00199856 1.69654
566 2 10.8228 1.68946 1.84931
1070 1 11.0387 -0.0373092 0.306872
3063 1 8.95292 0.00815422 1.7718
3062 2 9.1741 1.61078 -0.00729922
567 3 14.4238 1.76366 1.78079
2566 3 14.4468 0.0241413 0.0300422
3064 2 12.6106 1.77991 -0.0787969
3563 3 12.6699 -0.0674649 1.86393
2 3 17.7955 0.0765295 0.149976
3 2 16.1064 0.0748907 2.03891
3066 3 17.8257 1.8932 1.79115
3065 3 16.111 1.86335 0.149515
4 2 1.79104 5.45401 0.244088
5 2 1.89241 3.65016 1.89664
6 1 1.84273 7.3596 2.05694
1071 2 -0.0477792 5.53564 1.96558
3067 3 0.0657551 3.42592 0.0805493
3565 2 0.00566988 7.21213 0.0846769
7 1 5.47434 5.37094 0.124638
8 1 3.77536 7.08321 0.143537
1072 2 7.42222 5.42612 1.81585
1075 3 5.43776 7.29819 1.82937
1074 1 3.52664 5.33361 2.04377
1567 1 7.15518 7.04139 0.137289
2570 3 7.31623 3.54229 0.235587
2569 3 3.63652 3.54827 0.0855805
3569 3 5.34478 3.61406 1.74208
9 2 8.90411 5.44204 -0.0389744
10 3 9.05268 3.42379 1.96056
1077 2 10.7104 7.2793 -0.00787549
1076 3 10.8141 5.56426 1.89463
1568 1 9.05429 7.11259 1.8885
3068 3 10.8365 3.57879 -0.00352996
11 3 12.5172 5.46525 0.121816
12 2 14.4018 3.67564 -0.152925
570 2 12.4532 3.55545 1.6935
1571 1 14.3525 7.22207 0.316315
1570 3 14.2034 5.34767 1.71876
1569 1 12.6079 7.21334 1.89715
572 2 16.1255 3.77828 1.76382
1081 1 15.9571 7.02997 1.89646
1079 2 17.819 5.25851 1.97565
1078 2 16.0716 5.48183 0.256611
1573 3 17.922 3.72113 -0.00989456
2070 2 17.8299 7.14844 0.128314
575 2 1.75087 10.746 1.89721
1082 3 1.88548 8.9721 0.154757
1574 1 0.110217 8.94946 1.81424
3070 3 0.0166763 10.8004 0.186665
576 3 3.57878 10.696 0.0896058
1085 3 5.30122 8.98688 0.0769562
1083 1 5.32449 10.562 1.94897
1577 3 7.19529 10.8111 0.0545554
1576 3 7.34306 8.91265 1.70563
1575 2 3.52596 8.90659 1.97231
14 1 10.8055 10.6018 0.164368
1087 1 8.73371 10.671 1.87492
1086 3 9.02877 9.05974 0.149639
2071 2 10.7469 8.79842 1.91011
580 3 12.6832 10.6017 1.91375
1088 1 14.5141 10.4105 0.263312
2073 3 12.4811 8.97912 0.0267292
2074 2 14.4421 8.83258 2.06981
15 3 17.6519 8.77582 2.10357
1581 2 16.2706 10.6645 2.03586
2076 1 17.8311 10.7096 0.308734
2075 3 16.1447 8.88493 0.14026
2079 2 1.91998 12.3074 0.19263
2078 1 1.8315 14.1767 1.86487
2077 1 0.0390575 12.5925 1.96566
2572 2 0.152566 14.1552 0.00402259
2082 1 5.53697 14.3194 1.70612
2081 2 3.76836 12.6717 1.71045
2080 3 5.43668 12.2771 0.192852
2576 2 7.32884 14.3846 0.0795512
2575 3 7.2369 12.6128 1.87755
3071 3 3.65554 14.3335 0.0426432
1583 2 8.95422 14.3338 1.9401
2084 1 10.6523 14.377 0.274441
2579 2 10.815 12.364 2.06416
3073 3 9.16197 12.5798 0.237617
2085 2 12.4645 14.1606 1.97059
2580 3 14.3526 12.472 1.90594
3074 1 12.4156 12.5287 0.291414
3574 3 14.148 14.3253 0.21199
581 1 17.9423 12.5017 1.91732
1089 2 17.6696 14.5123 -0.0470504
2583 3 15.9458 14.3501 1.73008
3075 2 15.9656 12.3813 0.281767
16 3 0.0247679 18.0169 0.06231
2086 3 1.92165 17.8607 1.60097
2584 2 0.184748 16.0875 1.72717
3076 1 1.83007 16.0781 0.0962889
17 2 5.44481 16.0625 -0.00769653
1090 2 3.65065 18.026 -0.0492813
2585 2 7.31303 17.9495 -0.0168472
3079 2 5.44169 17.7381 1.70779
3078 1 7.15833 16.0476 1.76394
3077 1 3.59607 16.1131 1.65353
18 2 8.94614 16.0267 0.0862283
1585 1 10.5261 17.9965 -0.124256
3080 3 10.8085 16.032 2.01733
3578 1 8.87611 17.7429 1.81966
19 3 12.4176 16.1696 0.0967866
2088 2 14.2388 17.8683 -0.0637201
3081 3 14.1466 16.0578 1.9868
3581 1 12.4169 17.8441 1.82745
20 1 15.9488 16.1816 0.115365
1586 3 17.6716 16.0485 1.95751
3083 1 16.067 17.955 1.94856
3082 3 17.8089 17.7634 0.122568
584 3 1.89545 1.8939 6.97523
1564 2 0.0234258 -0.157964 3.39414
2588 3 1.81666 -0.129169 5.43033
2563 1 1.74271 1.65023 3.78735
3084 1 0.295839 0.0483178 7.31718
3583 1 0.113619 1.86985 5.20134
22 3 5.59001 1.65369 7.22182
1069 3 3.72756 -0.130847 3.67259
1566 1 7.11448 -0.131541 3.57969
2089 2 5.59943 -0.12634 5.62598
2590 1 3.63309 0.0626852 7.16552
2564 1 5.39249 1.7953 3.5223
3085 3 7.11154 -0.275222 7.2548
3585 3 3.81719 1.69901 5.44006
3584 2 7.30882 1.7232 5.27655
586 2 8.79981 1.82667 7.09076
2066 2 10.9128 -0.0211495 3.65585
2593 3 8.99648 -0.00303053 5.44049
2565 1 8.87725 1.67654 3.29858
3086 1 10.8722 0.304684 7.10736
3586 1 10.573 1.80399 5.41567
23 2 12.7369 1.84464 6.99825
24 1 14.3722 0.0939811 7.20135
25 3 14.3916 1.85875 5.47744
2568 2 14.2448 0.291584 3.61048
2567 2 12.4674 1.7448 3.79338
3087 2 12.5498 0.158409 5.41459
568 3 17.9071 0.126334 3.53094
588 1 16.1025 1.79812 7.22605
1587 1 17.9592 0.0430674 7.24515
3088 2 16.1415 0.00829725 5.47599
3588 3 17.8985 1.68983 5.49736
3564 3 16.2029 1.86192 3.68429
27 2 2.01648 5.22521 7.05656
28 3 2.28777 7.14891 5.27942
589 3 0.249341 5.58549 5.38162
2067 1 0.147892 3.73524 3.59473
3090 3 1.9711 3.79143 5.25832
3590 3 0.0272987 7.2669 7.02732
3589 3 0.192082 3.69678 6.89601
3567 2 0.122399 7.192 3.72891
3566 2 1.98899 5.40268 3.55939
29 2 3.78778 3.53922 7.07302
593 3 3.65295 7.16844 7.30356
592 3 7.30036 5.37781 5.2109
591 1 7.14718 7.18565 7.01114
590 3 3.83743 5.17917 5.54502
1095 2 5.46532 5.33871 7.20225
1094 3 5.28984 7.08578 5.42059
1073 2 3.67764 7.26323 3.4838
2068 2 7.34927 7.24435 3.43058
2069 3 3.53566 3.44098 3.64853
3593 2 5.5258 3.44691 5.44111
3592 1 7.11596 3.57577 7.14942
3570 1 5.52193 5.05557 3.47816
3568 2 7.29524 3.55293 3.68196
31 2 8.97186 3.60871 5.50244
569 2 10.7546 7.15831 3.67214
594 2 10.7931 5.392 5.439
1097 1 8.87749 5.57403 7.26041
1590 1 9.02484 7.20028 5.31852
1589 3 10.7282 7.13422 7.26033
3594 3 10.6612 3.48335 7.34334
3572 3 10.6408 3.53136 3.7091
3571 3 9.03523 5.28744 3.61707
33 1 12.5656 3.6421 5.42478
35 2 14.4638 3.68448 7.22038
571 2 12.4967 5.21384 3.68586
595 2 14.1938 7.11467 7.33944
1100 3 14.3381 5.33102 5.56398
1099 1 12.4089 5.38143 7.16306
1592 3 12.4375 7.09458 5.53035
1572 3 14.353 6.91132 3.83349
3069 1 14.2625 3.53681 3.61255
573 2 16.12 5.25728 3.71515
1080 1 17.7636 3.82368 3.91457
1595 2 16.0001 7.02873 5.6382
1594 1 16.1662 5.40314 7.21238
2094 2 17.7951 7.30644 7.18044
2092 3 17.8433 3.53814 7.38578
2571 3 17.7176 7.08838 3.80809
3092 2 17.8551 5.44146 5.59357
3595 2 16.0814 3.49991 5.71991
13 3 -0.00199648 10.7567 3.52729
597 2 0.0123681 10.8832 7.35949
596 2 1.92543 10.7457 5.4916
574 3 1.80966 9.13578 3.7425
1102 3 1.81403 8.91989 7.08836
1101 3 0.240714 9.05211 5.29044
38 1 3.65595 10.7671 7.31299
578 2 3.46876 10.8586 3.45798
577 1 5.37413 8.83169 3.6896
1106 1 7.22799 10.6303 7.07084
1104 2 5.2196 10.8154 5.3312
1103 1 3.67135 8.96173 5.21004
1084 2 7.33127 10.7417 3.73421
1597 1 7.05267 8.90466 5.29798
1596 1 5.31899 9.08648 7.0887
39 3 10.8435 10.6798 7.23834
599 2 9.09344 10.5879 5.12458
579 1 10.7566 10.6336 3.63369
1107 2 8.97122 8.89864 7.16546
1578 1 8.95585 8.94118 3.65127
2097 2 10.6365 8.86552 5.40202
1108 1 12.5339 10.8014 5.58707
1598 1 12.5994 8.94272 7.26803
1579 2 12.4064 8.92648 3.67106
2072 1 14.4311 10.7978 3.60775
2099 1 14.2712 10.788 7.19991
2098 1 14.1922 9.10135 5.33435
1599 1 16.1504 8.99392 7.23032
1580 3 16.0411 8.71459 3.87501
2100 3 16.0948 10.737 5.60237
3093 2 17.9309 10.864 7.15241
3597 3 17.8215 8.79236 5.30614
3573 3 17.9312 10.8043 3.79906
1110 1 0.17585 14.2776 7.10368
1582 1 1.90511 12.4528 3.64682
2103 1 1.90955 12.6351 7.28483
2102 3 1.77289 14.1651 5.39374
2101 2 -0.158021 12.5523 5.33217
2573 1 -0.167257 14.6066 3.58042
1112 2 7.25259 14.2793 7.16211
1600 3 5.4883 12.3622 7.19161
2104 2 5.29787 14.3437 5.27006
2083 1 3.51727 14.1814 3.43276
2601 3 7.19013 12.4464 5.45502
2600 2 3.43102 12.5686 5.37256
2599 3 3.66899 14.2083 7.10259
2577 2 7.10924 14.4284 3.60602
2574 1 5.40673 12.4541 3.63978
2604 3 8.8687 14.1655 5.37154
2603 3 10.6719 14.4421 7.19628
2602 3 10.6918 12.4459 5.45401
2578 3 8.90376 12.5525 3.663
3097 2 8.94485 12.5259 7.17123
3072 3 10.6402 14.3262 3.61032
602 2 14.321 14.3616 7.18746
1603 3 12.5708 12.4967 7.16268
2605 2 14.4178 12.7146 5.5905
2581 1 12.4811 12.4233 3.72537
3098 3 12.3933 14.2895 5.54888
3575 1 14.379 14.2623 3.80348
1114 1 18.0378 12.4119 5.36303
1584 2 17.9536 14.3811 3.62681
2582 3 16.1701 12.5599 3.53768
3100 3 16.3331 14.2073 5.45388
3099 1 16.2375 12.3489 7.26573
3599 1 17.7385 14.3611 7.39435
582 2 0.309919 17.8059 3.58718
1605 2 1.89427 18.0251 5.5084
1604 3 1.78719 16.2397 7.27726
3104 3 0.190437 16.2142 5.3592
3103 2 0.0109787 17.8889 7.18136
3576 1 1.88884 16.1378 3.72126
2087 1 3.44632 17.945 3.61014
2607 3 5.35955 17.9882 5.29378
2586 3 7.13806 17.9936 3.51268
3107 3 7.20388 18.0131 6.99611
3106 2 5.43974 16.1004 7.19004
3105 3 3.67084 17.763 7.06149
3602 3 3.6336 16.0644 5.28139
3601 1 7.16954 15.9231 5.36085
3577 1 5.22851 16.0802 3.7368
1091 3 10.73 17.9958 3.74852
2107 2 8.72624 16.1791 7.04948
2608 3 8.97797 18.0184 5.46086
3109 2 10.7292 17.9019 7.02663
3603 2 10.6583 16.0636 5.3718
3579 3 8.91402 16.1128 3.49524
41 1 14.2534 15.9509 5.35893
2610 2 12.5714 17.8322 5.33063
2609 2 14.1451 18.0067 7.26992
2587 3 14.4143 17.8013 3.88031
3604 1 12.5 16.0217 7.2161
3580 2 12.4462 16.1298 3.86705
583 3 16.1561 16.1182 3.73321
1606 1 17.7689 17.9687 7.31103
2109 3 15.9869 16.1469 7.35092
3112 2 16.126 17.708 5.60256
3110 1 17.8417 16.0995 5.6246
3582 3 17.9046 17.9654 3.66909
21 3 0.147993 1.89366 8.74504
604 3 0.0956024 0.130221 10.8124
2110 2 2.00762 1.70089 10.7448
2589 2 1.81681 0.176125 8.90706
585 2 7.08443 1.72574 8.86361
1092 2 5.44947 -0.107547 8.97149
1608 1 7.33143 0.0445834 11.0081
1607 3 3.85547 -0.0999984 10.7272
2111 3 5.36732 1.73357 10.8256
2591 2 3.71673 1.77412 8.87506
1116 1 10.7956 -0.0836087 10.8783
2612 3 8.94138 1.65001 10.8498
2592 2 10.6561 1.71743 8.7807
3587 3 9.01287 -0.0552234 8.93276
587 1 14.203 1.92203 9.03847
1609 2 14.197 0.20605 10.6902
2090 1 12.5976 0.0575282 8.943
2613 2 12.3168 1.75057 10.6293
26 3 15.9966 0.100222 9.17945
2594 3 17.6888 1.87206 9.11304
3116 3 16.1736 2.05346 10.8266
3115 2 18.0219 -0.0487915 10.7134
1093 1 1.70803 7.0079 8.81699
2091 2 1.9738 3.18052 9.06718
2615 3 -0.081038 3.54615 10.6552
3118 2 0.120451 7.09067 10.5774
3117 2 1.72876 5.11357 10.6558
3089 3 0.341437 5.16009 8.72747
30 3 5.47908 3.62261 8.9987
45 1 7.11194 7.21861 10.846
1096 1 3.54979 5.14003 8.80259
2112 1 7.2523 3.29607 10.5819
2616 3 3.70244 3.62943 10.6848
3091 2 7.42195 5.42813 8.97287
3608 1 3.76786 6.87213 10.5985
3607 3 5.45425 5.3883 10.8556
3591 3 5.41285 7.07672 9.00177
46 2 10.7009 7.33339 10.7015
1098 1 10.6819 5.46547 9.12421
1591 1 8.88453 3.36183 8.8811
1588 1 8.86976 7.20435 9.33367
2113 3 10.6924 3.58843 10.5044
3609 1 8.86239 5.35139 10.9606
32 3 12.5469 7.19213 9.05925
34 2 12.4044 3.63658 8.92221
36 3 14.2606 5.44484 9.13162
609 1 14.3147 7.35431 10.6547
3119 3 14.0816 3.62858 10.7234
3611 1 12.3837 5.35033 10.6878
1120 3 17.8531 3.65079 10.8435
1615 2 17.7842 7.21117 10.7597
1593 3 17.9417 5.33994 9.00189
2093 2 16.1086 7.08397 8.94929
2595 1 15.9722 3.71077 9.13486
3612 2 16.043 5.56876 10.6903
48 1 2.09775 8.75231 10.5535
2095 2 0.141357 8.79632 8.77677
2596 2 1.87427 10.7125 8.89115
3120 2 0.229819 10.7427 10.6258
37 3 3.67266 8.89548 8.79661
49 2 5.64066 8.99461 10.5791
612 3 7.2797 10.8234 10.673
1105 1 5.57485 10.9191 8.88456
2096 1 7.12934 8.88591 8.77064
3121 2 3.63911 10.9574 10.648
613 3 8.69867 9.06099 10.8719
598 1 10.6085 8.93319 8.92069
3613 1 10.6604 10.7475 11.0305
3596 1 8.91828 10.7413 8.95678
50 1 14.4174 10.6912 10.9309
614 1 12.394 9.28483 10.8377
2598 1 12.5853 10.7474 9.11731
2597 1 14.3704 8.95591 9.07636
51 3 17.9943 10.7604 10.7261
600 2 17.8261 9.05907 8.81869
1122 2 16.0618 8.84137 10.7945
1109 2 15.9993 10.6991 8.96576
616 2 0.043034 14.2166 10.9489
601 3 0.147821 12.6625 8.98745
1123 3 1.90428 12.4986 10.8165
3094 3 1.80773 14.4811 8.81791
1124 1 5.34249 12.4822 10.7592
1111 3 5.46664 14.3306 8.9044
1619 1 7.11288 14.4628 10.6863
1618 3 3.72472 14.46 10.6016
1601 1 7.1186 12.5825 8.83284
3095 2 3.57707 12.6474 9.0281
617 3 10.7888 14.2882 10.7239
1125 3 8.93437 12.6652 10.8353
3096 1 8.89498 14.3126 8.8462
3598 2 10.6301 12.4595 8.88823
1126 1 14.3306 14.1927 10.8282
1113 3 12.5438 14.3079 8.89228
1620 3 12.648 12.5425 10.7556
1602 3 14.4351 12.4322 9.09332
1621 3 16.1337 12.4106 10.8919
3126 3 17.7594 14.4179 10.792
3102 1 15.9902 14.2419 9.19964
3101 3 17.9231 12.5244 9.11523
1623 3 0.0530322 17.9426 10.8109
2119 3 1.75349 16.0048 10.7967
2606 3 1.79639 17.7291 9.12471
3600 2 -0.25133 15.9254 8.97325
40 2 7.23699 16.3362 8.84857
619 2 3.50949 18.0105 10.935
1127 1 7.1322 17.6452 10.9753
2120 1 5.3788 16.1391 10.7466
2106 1 3.53504 16.1743 8.84019
2105 3 5.41267 17.9765 8.77659
1624 3 10.6795 17.9203 10.7415
2108 1 10.3405 16.1261 8.97717
2625 2 8.98845 15.9949 10.6091
3108 2 8.82729 18.0466 8.71777
603 2 14.1463 16.1053 8.93127
1115 2 12.5385 17.668 8.90924
2626 2 12.5474 15.9371 10.6437
3620 2 14.1799 17.8125 10.8776
2628 3 16.0266 16.1276 11.0167
2611 1 17.7008 16.2129 9.10215
3127 1 17.7967 18.0863 10.7722
3111 3 15.9844 17.8605 9.04496
42 1 0.00631108 1.91064 12.4915
2121 1 -0.019648 0.2335 14.2785
2629 1 1.92357 1.90496 14.3481
3113 2 1.69754 0.157913 12.6951
43 1 3.4822 1.88262 12.5037
605 1 7.15681 1.74125 12.6152
1625 3 6.95943 -0.0734163 14.3806
2123 3 3.57686 0.0736744 14.1967
3128 1 5.32555 1.86936 14.3578
3605 3 5.41147 0.0043961 12.4291
606 3 10.5147 1.69756 12.579
1627 1 10.7729 0.149802 14.4036
3129 2 8.81891 1.89986 14.4872
3606 2 8.75514 -0.0858525 12.7524
1117 1 14.2235 1.80129 12.4127
2632 3 14.4192 0.0903737 14.2593
3131 3 12.7392 1.76755 14.4789
3114 3 12.5498 -0.0474222 12.4355
44 1 16.1309 0.216525 12.3327
501 2 17.8515 0.183395 14.1644
2614 2 17.8286 1.7553 12.553
3132 1 16.1925 1.89334 14.2162
607 1 1.74908 3.72635 12.4514
1119 1 1.89106 7.03815 12.1502
1118 3 -0.0502825 5.29516 12.6075
2634 1 0.167912 7.04218 14.366
2633 2 0.120146 3.54404 14.2851
3624 3 2.01098 5.44746 14.1252
60 3 7.18422 6.99373 14.2045
608 1 5.4588 3.55797 12.4958
1612 1 7.32742 5.4358 12.4163
1611 2 5.45306 7.17619 12.4726
1610 1 3.73079 5.49268 12.3486
2128 1 7.29275 3.61885 14.2537
2126 3 3.64708 3.65209 14.2596
3136 1 3.71287 7.32397 14.3014
3626 3 5.39761 5.38651 14.1919
1613 1 10.8887 5.34736 12.6097
2114 3 9.02729 7.31608 12.4761
3137 3 10.6689 3.54749 14.3015
3629 2 9.07251 5.32894 14.0139
3628 3 10.6076 7.16676 14.2293
3610 1 9.10037 3.47314 12.3679
610 1 12.4548 3.39654 12.5457
1614 1 14.2093 5.55851 12.5537
2617 3 12.3788 7.23702 12.5643
3138 3 14.4114 3.6284 14.2446
3631 3 14.1442 7.2062 14.3984
3630 3 12.4488 5.53069 14.3321
47 1 17.7583 5.35084 12.571
65 2 16.0573 5.4186 14.2044
1138 1 18 3.66241 14.1225
1121 2 16.107 3.64345 12.4755
2618 3 15.8823 7.29702 12.4971
3140 2 17.7788 7.28424 14.332
67 1 1.884 8.7257 14.0745
611 1 2.01768 10.655 12.3707
2115 3 0.124036 8.89749 12.566
2636 3 0.415926 10.6305 14.2416
69 3 7.10566 10.7022 14.2484
70 2 5.60949 8.72998 14.4548
1616 3 5.39932 10.4896 12.4499
2116 1 3.69924 8.85083 12.246
2619 3 7.2059 9.09052 12.5961
3633 1 3.7028 10.5186 14.2306
71 1 8.87004 8.98357 14.3726
2117 3 8.89473 10.8879 12.5826
2620 3 10.6968 8.95393 12.4553
3141 1 10.5865 10.7114 14.2677
510 2 12.4767 9.04462 14.3253
1617 1 12.5037 10.8884 12.6386
3122 1 14.1385 8.97215 12.5526
3635 1 14.2548 10.8165 14.2905
511 3 16.0924 9.13212 14.2848
615 3 17.8395 8.99804 12.4214
1639 3 17.8496 10.7139 14.4193
2118 2 16.0908 10.7056 12.7047
513 1 0.115775 14.3234 14.3071
514 3 1.97684 12.4376 14.2274
2621 1 -0.0635852 12.3984 12.3586
3123 3 1.89973 14.1218 12.5114
72 1 7.07906 14.1594 14.2457
515 3 5.33761 12.4331 14.3347
516 2 3.6851 14.5019 14.3176
3125 3 7.02966 12.3725 12.4959
3124 2 3.677 12.4667 12.4434
3614 3 5.48313 14.3026 12.5901
73 2 10.6982 14.4809 14.2719
1145 2 8.88009 12.5971 14.2624
3616 3 10.6271 12.6701 12.501
3615 3 8.77412 14.3845 12.4922
1147 1 12.359 12.7809 14.2421
1146 2 14.39 14.4702 14.3465
2622 2 12.4533 14.2807 12.4082
3617 2 14.3107 12.7378 12.732
1149 2 16.1782 12.6345 14.4226
1622 2 17.8481 12.5448 12.7365
3146 1 17.8064 14.3758 14.396
3618 1 16.1152 14.3466 12.6284
52 2 0.0149002 16.0126 12.7539
518 3 0.0386512 17.9441 14.2608
1150 3 1.77821 16.0103 14.3372
2623 1 1.7298 18.214 12.4099
53 3 3.7655 16.1736 12.433
618 1 7.01602 16.1078 12.5656
1151 3 3.73041 17.7294 14.4824
1642 1 5.38941 16.0263 14.3851
2142 3 7.32046 17.902 14.4168
2624 3 5.39474 17.8737 12.6293
54 3 10.9013 16.0385 12.5728
1643 3 8.89663 16.1029 14.17
2649 1 10.8529 17.9181 14.3101
3619 3 9.04647 17.8198 12.558
55 3 12.4969 17.7787 12.6705
620 3 14.1988 16.2023 12.5629
1646 2 12.4927 16.1076 14.4575
1644 2 14.2166 18.0447 14.44
56 2 16.0319 17.9172 12.5188
1647 1 16.057 16.2342 14.1204
2627 1 17.9206 16.0612 12.5349
3644 3 17.8572 17.9096 14.2464
57 3 1.73659 -0.079677 16.0242
621 2 0.0543239 1.86095 15.9676
1128 3 0.0935063 -0.0129177 17.8137
2122 3 1.90161 1.77747 17.9261
58 2 5.32091 0.00150315 15.9844
1132 2 7.19227 0.150442 17.7675
1131 3 6.93639 1.8007 16.1255
1130 2 3.61803 0.0607174 17.8734
1129 3 3.71156 1.75389 16.2117
2630 2 5.37029 1.77235 17.9973
1133 2 10.8943 1.98908 16.2263
1626 2 10.5811 0.14692 17.8848
2631 2 8.88771 1.92535 17.858
3621 1 9.04101 0.347976 15.9979
59 2 12.5014 0.211058 16.2531
1134 2 14.5061 2.03163 16.0703
2124 2 14.5278 0.0968044 17.7961
3130 2 12.5465 1.77335 17.8795
502 3 16.2141 0.192383 15.9781
3133 1 16.0283 1.92788 17.8078
3623 1 17.8327 0.0948073 17.8914
3622 1 18.0723 1.88578 16.1619
503 2 1.70291 3.60697 16.0971
504 2 1.76353 7.05934 16.3265
1628 2 -0.00697327 5.44826 16.0372
2125 3 -0.117747 3.6821 17.7079
3134 2 -0.027816 7.15935 17.7263
3625 2 1.5578 5.30405 17.7219
61 1 5.42074 3.60953 15.9775
505 1 3.84636 7.21599 17.7443
1135 1 7.13264 7.11297 17.9837
1631 1 5.43764 7.11086 16.1083
1630 2 3.82112 5.38707 16.0051
1629 3 7.08242 5.27213 15.9689
2127 3 3.79068 3.57939 17.8575
3135 3 7.11432 3.54013 17.7302
3627 2 5.56425 5.29582 18.0374
62 1 8.91181 5.32099 17.9606
63 1 10.5768 7.15929 17.8815
506 1 8.78711 3.57016 16.1258
1632 3 10.7641 5.39678 16.0827
2129 3 8.9939 7.03065 16.1159
2635 1 10.887 3.65969 17.8731
64 3 12.5454 5.49178 17.944
1137 2 14.3164 7.31079 17.7681
1136 3 12.5683 3.81 15.8183
2131 2 14.3022 5.54728 16.2517
2130 1 12.4003 7.24098 16.0657
3139 2 14.2583 3.70193 17.7864
66 1 18.0506 5.39769 16.0746
507 3 16.0959 5.49184 17.9055
1140 3 17.8737 3.74143 17.9122
1139 2 16.2449 3.86174 16.0904
1634 1 17.9087 7.22104 17.9183
1633 2 15.9927 7.36856 16.0663
508 2 1.86815 8.67542 17.9035
1141 2 1.94734 10.6335 16.0835
2132 1 0.233484 9.00126 16.147
3632 2 0.253854 10.5246 17.9077
68 2 3.82551 10.9376 17.6238
509 3 7.25099 10.7483 17.7405
1142 3 5.43594 9.11473 17.8385
1635 2 5.64496 10.6353 16.1533
2134 1 7.29797 8.86946 16.2637
2133 3 3.54768 8.92911 16.1194
1143 2 8.99657 8.94525 17.7695
1636 1 8.99057 10.6401 15.9638
2637 3 10.8616 9.00737 16.0261
3634 1 10.7901 10.7138 17.7926
1144 1 12.3676 10.8427 15.8518
1638 1 12.5654 8.87979 17.8048
1637 3 14.1565 10.8962 17.8139
2638 3 14.3848 9.03286 16.1265
512 2 17.8806 8.83827 16.3164
1640 2 15.9218 9.22955 17.9236
2135 3 16.1389 10.6266 16.1919
2639 3 17.9723 10.6745 17.7968
2137 3 0.201551 14.1122 17.5141
2136 1 1.77393 12.4658 17.7057
2641 1 2.12206 14.2456 15.8719
2640 1 0.289904 12.2867 15.9603
2140 1 7.29352 14.4304 17.8027
2139 3 3.64871 14.2793 17.883
2138 1 5.44394 12.6377 17.9617
2643 2 5.62147 14.2814 16.0458
2642 1 3.57155 12.6533 16.0784
3142 3 7.27582 12.5956 15.9734
2141 3 8.83938 14.478 16.0112
2645 1 8.88232 12.866 17.7555
2644 2 10.9825 14.3417 17.8117
3143 3 10.5241 12.612 16.0086
2647 2 12.5573 14.2409 15.9128
2646 3 12.5239 12.4445 17.7618
3145 1 14.2314 14.649 17.821
3144 3 14.302 12.4634 16.0452
517 2 17.7507 14.4717 17.7154
1148 3 17.9037 12.5806 16.1032
3148 1 16.0111 14.3889 16.2193
3147 1 15.966 12.5679 17.8734
2648 3 1.87964 17.6992 15.9436
3150 3 1.74913 15.9562 17.7179
3149 2 9.40811e-05 16.2241 15.9993
3636 3 0.24937 17.8462 17.8618
1641 3 3.81194 17.8348 17.8366
2143 3 7.22348 17.8115 18.0257
3640 1 5.65429 17.989 16.1358
3639 1 7.32089 16.1631 15.879
3638 1 5.42661 15.9173 17.694
3637 2 3.87166 16.072 16.148
74 2 8.94018 17.9218 16.0071
519 3 10.6191 17.9721 17.8122
3642 2 8.8319 16.0952 17.7496
3641 3 10.7744 16.1294 16.0652
75 3 12.4195 16.2879 17.7448
76 2 12.5868 17.9702 16.0384
1645 1 14.3816 17.9414 17.9609
3643 2 14.4078 16.0847 16.133
77 2 16.1288 16.324 18.0512
2144 2 17.9201 16.1536 16.1216
2650 1 17.8966 18.157 18.0038
3645 3 15.9385 17.9349 16.2439
520 3 -0.0348026 0.104067 21.4864
78 2 -0.00941036 1.96747 19.5867
2145 2 1.74599 1.86664 21.4014
3151 2 1.79383 0.0945266 19.5549
521 1 3.64644 0.142056 21.3328
80 1 3.55089 1.80904 19.5665
79 1 7.18812 1.82554 19.5499
2147 2 5.39733 1.78261 21.5433
2146 2 7.04773 0.0892316 21.3282
2651 1 5.35652 -0.0364262 19.4458
81 2 10.7388 1.86579 19.629
1648 2 10.8396 0.235872 21.4666
2652 2 8.97423 1.65239 21.4921
3152 3 8.89045 0.0822314 19.7287
522 2 14.3874 1.86708 19.5696
1649 1 14.3017 0.00853275 21.4547
2653 3 12.5939 1.9457 21.3214
3646 2 12.6388 0.12315 19.5671
82 3 17.8664 0.144296 21.4242
2654 1 17.765 2.09592 19.717
3153 1 16.156 1.94855 21.4567
3647 2 16.1011 0.231757 19.6296
523 3 0.0861627 5.3854 19.7671
84 1 1.94672 6.96703 19.6152
83 2 0.239402 7.11584 21.3328
1650 2 -0.0552743 3.488 21.2936
3155 1 1.89964 5.33596 21.3676
3154 2 1.7127 3.60021 19.4064
524 3 3.63189 5.51143 19.5479
525 2 7.1787 5.35198 19.8928
526 1 3.63481 7.0378 21.4649
1153 2 7.32988 7.13637 21.4545
1152 2 5.5769 7.18152 19.6357
2655 2 3.56544 3.60077 21.2319
3156 1 7.18855 3.5258 21.4137
3649 2 5.49074 3.58665 19.765
3648 2 5.47614 5.48781 21.3671
86 1 10.541 7.11082 21.4019
85 3 9.07316 3.54012 19.5519
1155 2 10.7453 5.16886 19.7528
1154 2 9.00509 7.13513 19.6209
2656 3 10.9061 3.57961 21.3806
3650 2 9.1248 5.32699 21.2928
527 1 12.3328 7.23078 19.6764
88 2 12.5179 5.50196 21.6012
87 3 12.5806 3.64305 19.5444
1156 3 14.2247 5.5454 19.7163
2148 3 14.2244 7.22847 21.2532
2657 3 14.419 3.67823 21.5166
528 2 17.8653 3.76722 21.5122
89 3 16.2663 5.47995 21.4725
1157 2 15.9934 7.24115 19.6224
3158 2 17.7928 5.54236 19.6007
3157 1 17.8803 7.28235 21.4608
3651 1 16.2181 3.68023 19.5212
529 2 1.85996 8.88475 21.3493
530 3 1.96182 10.6875 19.4733
1158 1 0.0254006 8.93631 19.6415
3652 3 0.106154 10.731 21.3803
531 2 5.39911 8.86318 21.4809
532 3 5.58331 10.613 19.6812
533 1 7.25549 10.822 21.515
1159 3 3.61705 9.04253 19.5806
1651 2 7.29582 8.99094 19.7703
3653 1 3.66166 10.722 21.3056
90 2 8.97828 10.8689 19.5719
1161 1 9.08228 8.95956 21.3517
1160 1 10.694 10.747 21.2225
1652 2 10.8009 9.08647 19.5197
534 1 12.5994 10.8177 19.6227
1162 1 12.329 9.06281 21.3606
1654 1 14.297 10.8281 21.4767
1653 1 14.1451 9.12696 19.5549
1656 1 15.9432 10.9974 19.531
1655 3 16.0761 8.9004 21.2603
3159 1 17.7111 11.0811 21.285
3654 1 17.8314 8.95675 19.6219
1660 3 0.115836 14.2479 21.5486
1659 1 2.12617 14.48 19.7147
1658 3 1.89564 12.4104 21.2407
1657 1 0.165028 12.5444 19.4865
1163 3 5.46041 14.3755 19.7762
1661 1 3.72489 14.1801 21.4403
2151 3 7.35016 12.6029 19.5416
2150 2 5.44628 12.3962 21.4823
2149 1 3.8568 12.3741 19.5634
3160 2 7.38483 14.3299 21.3086
1662 1 9.16517 14.365 19.621
2153 3 9.10478 12.524 21.3502
2152 3 10.7794 12.4124 19.534
2658 1 10.9554 14.5228 21.4334
2155 3 14.1921 12.7012 19.6364
2154 1 12.4411 14.4072 19.8907
2660 1 14.2346 14.3602 21.4635
2659 1 12.3215 12.5442 21.5127
535 2 17.789 12.4789 19.3328
1164 3 17.9306 14.2447 21.2452
2156 3 16.0574 14.4095 19.4396
2661 1 16.1443 12.7432 21.3523
1165 2 0.0894707 17.8921 21.5124
2157 2 1.92371 17.7078 19.6845
2662 2 0.181186 15.8784 19.7039
3161 2 1.77704 16.029 21.5761
1664 1 7.17459 17.8937 21.6416
1663 2 3.61136 17.7566 21.3109
2664 1 3.47847 16.1596 19.7852
2663 1 7.37401 16.0398 19.5456
3163 3 5.5706 16.1932 21.3905
3162 1 5.49086 17.9851 19.5113
536 3 10.7398 17.9437 21.5072
2665 1 10.811 16.2071 19.4971
3164 3 9.07627 17.7499 19.7068
3655 1 9.09996 16.0426 21.5433
2666 2 12.4255 17.9333 19.7335
3166 3 14.1918 16.185 19.5312
3165 2 14.481 17.8656 21.2481
3656 2 12.6562 16.2706 21.5554
92 2 16.3019 15.8673 21.4407
91 1 17.9911 17.9167 21.3845
1166 3 17.7992 16.0273 19.5938
3167 1 16.0692 18.0591 19.7948
93 2 1.78281 1.87508 24.8778
1665 1 1.75177 0.0830712 23.1997
2667 1 -0.145545 0.04152 24.9623
3168 3 0.116883 1.88261 23.1842
2158 3 5.34653 0.0237889 23.0939
2670 2 3.51231 0.0640661 24.8522
3170 2 7.16441 1.98198 23.2405
3169 2 3.51867 2.07539 23.1067
3659 1 7.15075 0.119967 24.8828
3658 3 5.26817 1.78157 24.7599
537 1 8.95939 1.7644 24.9919
2671 1 9.00748 0.0384735 22.9851
3171 3 10.8436 0.0538485 24.963
3660 1 10.6312 1.67938 23.3533
2673 1 12.6573 0.143302 23.0444
3663 2 14.3395 1.84108 23.2975
3662 1 14.2737 0.0907944 24.8576
3661 3 12.5029 1.97385 24.981
539 1 16.1837 2.02956 24.9195
1167 3 17.8552 0.0989503 25.0191
1668 3 17.941 2.02839 23.1698
2160 2 16.1974 0.116626 23.2977
99 2 1.94439 5.63247 24.9999
98 2 1.9278 7.13995 23.1025
97 2 0.0148296 7.32971 24.9974
96 3 0.168806 5.71846 23.2414
3173 3 1.8369 3.77457 23.3364
3172 2 0.0759635 3.69663 24.9065
540 2 3.62033 7.12593 24.8263
541 1 5.51254 7.19305 23.1865
542 2 7.09017 5.33147 23.0354
543 3 5.49886 5.46591 24.9088
101 1 7.13595 7.15106 25.0164
100 3 3.77134 5.37451 23.2029
2675 3 7.08219 3.6012 24.9032
3175 1 3.66686 3.85599 25.01
3665 1 5.28483 3.55625 23.0681
546 3 9.01054 7.20053 23.2824
547 3 9.06456 5.41367 24.9086
102 2 10.7758 5.26527 23.1422
1170 1 10.7714 7.18267 24.9108
3177 2 10.7632 3.7042 24.8867
3666 3 9.05067 3.56612 23.2579
548 1 14.3517 5.39004 23.204
549 1 12.633 5.29434 24.8579
105 1 14.2641 3.53393 24.9951
1670 1 12.3213 7.22063 23.0589
3179 1 12.5102 3.5038 22.977
3667 1 14.45 6.90291 25.0755
1172 1 16.2651 5.36012 25.131
1672 3 17.8484 3.57436 24.9893
1671 1 16.1039 7.28667 23.2718
2678 1 17.797 7.17194 25.1366
2677 2 17.9311 5.50354 23.2948
3668 2 16.1317 3.70789 23.2096
550 1 0.124382 8.88179 23.0263
106 3 1.86957 10.535 22.9279
1175 1 2.01902 9.00835 24.9453
3669 1 0.346307 10.6565 25.0109
108 2 5.2911 10.7728 23.0136
1180 1 7.18663 10.7288 24.6979
1178 3 7.24079 8.99342 23.2038
1177 1 3.57925 8.73724 23.0837
1176 1 5.2053 8.9824 24.8116
3670 1 3.42446 10.6687 24.8165
551 1 10.9037 10.6206 25.1537
552 2 9.12734 10.7214 23.174
1181 3 8.92666 8.99205 24.928
1674 3 10.7005 9.04381 23.3465
1182 2 12.5852 10.5307 22.9904
1676 2 12.627 8.81576 24.9228
1675 1 14.3196 8.90321 23.2388
2163 1 14.4584 10.6973 24.9296
1183 3 16.2408 8.93791 25.0208
1677 1 15.9452 10.4825 23.1293
2165 3 17.9154 10.8176 25.084
3671 1 17.9532 9.23831 23.1575
555 2 0.0902092 14.284 25.1824
1184 2 2.0038 14.2787 23.2621
1678 2 1.85899 12.5397 24.7761
2166 3 0.228084 12.3795 23.1525
113 2 7.28564 14.2829 25.0247
1185 2 5.31905 12.378 24.9575
2170 3 5.37457 14.1976 23.1671
2169 2 3.52198 12.3398 23.0782
2168 1 3.67003 14.2775 24.9618
2167 1 7.28694 12.3928 23.2532
1680 2 10.8205 14.238 24.9536
2171 1 10.923 12.4169 23.2708
2682 1 9.00078 14.5209 23.1148
2681 2 9.14916 12.5745 24.7948
114 1 14.4043 14.216 24.8898
1681 3 12.5842 12.4371 24.8455
2684 1 14.3113 12.5097 23.1262
2683 3 12.6108 14.4345 23.4113
557 3 17.8467 12.4727 23.2671
2173 2 16.0562 14.1467 23.2591
2685 1 16.1208 12.5843 25.0508
3183 1 17.715 14.316 24.9326
1684 2 1.98795 16.1444 24.9931
1683 1 2.01178 17.5931 23.2861
2688 3 0.126364 16.1576 23.2014
2687 2 0.171198 17.9564 25.2513
2175 2 6.99807 17.9223 25.1733
2174 2 5.41423 17.8882 23.2131
2689 1 3.59393 17.8141 24.9714
3187 3 5.49192 16.0837 24.9363
3186 2 7.15465 15.9167 23.1692
3185 2 3.60064 16.0261 23.0943
1687 2 9.05152 18.0767 23.2317
1686 2 8.6026 16.2228 24.9636
2177 2 10.5783 17.8587 25.0599
3675 3 10.8419 15.9769 23.4324
2178 1 14.2075 17.9581 24.9486
2690 2 12.517 18.0447 23.212
3188 2 12.8355 16.051 25.0715
3676 3 14.3424 16.1356 23.3112
1187 3 17.9061 16.0284 23.1257
1186 1 17.9362 17.6847 24.893
1689 2 16.149 16.2073 25.1085
3189 1 16.1224 17.8832 23.004
1188 2 -0.0628879 0.143673 28.5468
2180 1 1.74647 1.89515 28.3776
2668 1 1.61948 0.246936 26.6248
3657 2 0.147595 2.13011 26.7078
559 1 7.22077 0.16468 28.4932
94 2 7.16111 1.84672 26.662
1189 1 3.78232 0.304332 28.387
1666 1 5.24602 -0.0963783 26.613
2181 3 5.63454 1.93288 28.7425
2669 3 3.5086 1.91259 26.636
560 1 10.7841 0.0570669 28.4753
95 1 8.92226 0.0614028 26.7396
2182 1 8.95644 1.84549 28.3404
2672 3 10.8498 1.65502 26.8958
538 3 14.1985 1.9095 26.8965
1667 2 12.6694 -0.0096207 26.64
2184 3 12.4504 1.85492 28.4975
2183 3 14.2356 0.278146 28.5803
2159 3 17.8858 1.9389 26.749
3193 3 16.301 1.90487 28.7515
3679 2 17.8094 0.189158 28.5563
3664 2 16.158 0.166346 26.6856
1168 2 2.03268 3.81476 26.4838
1669 2 1.74351 7.16216 26.8447
2186 1 0.255377 7.20072 28.5405
2185 2 0.0197829 3.74918 28.5303
2674 1 0.0914209 5.34173 26.6894
3194 3 1.9892 5.38051 28.5968
544 3 3.73971 5.46075 26.8766
563 1 7.21228 7.19774 28.4247
1691 2 7.58698 3.5231 28.6129
1690 1 3.68821 3.46457 28.3806
2676 3 7.15711 5.48642 26.6631
3196 3 3.69742 7.27869 28.5572
3195 1 5.54876 5.43507 28.5181
3176 2 5.40635 3.63123 26.89
3174 1 5.27692 7.21604 26.5675
545 2 10.7697 5.40527 26.9173
1171 1 8.89721 3.64931 26.5813
1169 1 8.89647 7.26423 26.7524
2694 1 10.6933 3.63169 28.5185
3197 1 9.0959 5.40158 28.5379
3681 2 10.815 7.15119 28.6281
104 3 12.3421 3.67341 26.8119
103 1 14.2617 5.35519 26.8205
2695 3 14.4669 3.58108 28.4909
3178 2 12.6228 6.97488 26.6962
3684 2 14.3338 7.31859 28.4179
3683 1 12.5431 5.49008 28.6645
622 2 17.8813 3.84803 28.5461
1004 1 17.9168 7.0879 28.6283
1174 1 16.2763 7.16561 26.7511
1173 2 18.0248 5.55355 26.8521
3180 1 16.1811 3.58935 26.9254
3685 2 16.1049 5.54776 28.5287
1673 2 0.0929524 9.03385 26.8323
2161 1 1.75226 10.8506 26.7567
2696 2 0.125296 10.6728 28.5818