ITEM: TIMESTEP
5000
ITEM: NUMBER OF ATOMS
4000
ITEM: BOX BOUNDS pp pp pp
6.7359813458779172e-02 3.5666700186541249e+01
6.7359813458779172e-02 3.5666700186541249e+01
6.7359813458779172e-02 3.5666700186541249e+01
ITEM: ATOMS id type x y z
563 3 0.0306373 0.0661709 0.122022
1064 3 1.94994 1.9245 0.0750428
1563 1 1.7812 0.0957697 1.98786
2064 3 -0.0201423 1.92119 1.90409
1 1 3.82418 2.00637 1.94706
565 3 7.3317 0.163146 -0.0257355
2065 2 7.28301 1.89856 1.90062
2565 3 3.76648 0.253902 0.0746619
3064 3 5.57408 1.87975 0.0607351
3564 2 5.63593 -0.0398377 1.94745
2 2 10.7991 1.84303 1.84786
1066 2 8.90311 2.12247 0.229708
1564 2 8.87786 0.138758 1.59478
2566 3 10.6189 0.324084 -0.0925248
567 2 14.3517 0.17348 0.315653
2066 1 14.3759 2.02455 1.8065
3066 2 12.7327 1.93905 -0.00264109
3565 3 12.5295 0.227921 1.98214
751 1 17.9775 0.172847 0.0572174
1068 2 16.1334 1.72153 0.0210321
1565 3 16.0896 0.100381 1.78447
2001 3 17.687 1.94038 1.82776
3 3 0.211823 5.49677 1.93151
573 3 0.0925857 7.27433 0.145316
1568 3 1.84843 7.37078 1.83133
2569 2 0.138638 3.67147 0.195836
3068 1 1.8551 5.59548 0.0676323
3566 1 1.91272 3.58187 1.80102
4 1 7.52785 5.33936 1.9364
569 3 3.54935 3.63656 -0.0822276
577 2 7.10225 7.08681 0.0359991
1070 1 5.3615 5.42301 -0.00352398
1566 1 5.27934 3.67434 1.84483
2067 2 3.57006 5.40671 1.7631
2576 3 3.70369 7.18796 0.158769
2571 2 7.11061 3.72091 0.158378
3570 3 5.50538 7.17851 1.73319
570 2 10.938 3.61665 0.07644
1570 3 9.02701 7.49755 1.78136
2068 1 10.6391 5.57185 1.53617
2578 2 10.7459 7.105 -0.0232602
3070 2 9.02783 5.24795 -0.069687
3567 2 9.15816 3.63101 1.96449
5 2 14.3823 5.69801 2.12673
581 3 14.2778 7.13545 0.0461464
1072 1 12.5446 5.5399 -0.0116423
1567 2 12.5758 3.79853 1.83043
2573 2 14.419 3.46558 -0.156576
3572 3 12.4034 7.23915 1.68104
253 1 17.9683 5.57147 1.6752
761 2 18.1396 7.26177 0.0848729
1572 3 16.2791 7.21765 1.84752
2819 1 17.8847 3.76292 -0.0648646
3072 3 15.9509 5.67259 0.104158
3568 3 16.0653 3.83638 1.71802
1074 2 2.13651 9.30138 0.369871
2069 1 0.103258 9.05256 1.87365
2574 1 0.189656 10.7507 0.147616
3569 2 1.97018 11.1148 1.85373
6 1 3.71872 9.14453 1.97809
575 3 3.60143 10.891 0.0424025
1569 3 5.41655 10.7847 1.77583
2070 1 7.14376 9.00352 1.59527
2579 2 7.20528 10.8569 0.0479972
3074 3 5.18706 9.06708 0.152301
7 1 10.9103 9.13244 1.59512
578 3 10.7821 10.7361 -0.0789506
1076 2 9.15387 8.96838 -0.10221
3571 2 9.12327 10.6008 1.89352
1571 2 12.492 10.8908 1.64185
2071 1 14.3288 8.98798 1.74512
2582 3 14.5327 10.6519 -0.0477135
3076 3 12.5377 9.25317 -0.154788
1078 1 16.1462 8.92818 -0.174035
2006 1 18.1731 8.75352 1.71589
2825 2 17.8086 10.4832 0.149994
3573 1 16.119 10.7565 1.78974
8 1 0.238735 12.565 1.96962
583 2 0.219743 14.5239 -0.176152
1573 1 1.92727 14.1537 1.86905
3078 1 2.0615 12.7059 0.0637581
9 1 7.29656 12.6846 1.81192
585 1 7.25021 14.4444 0.0963222
1080 1 5.50164 12.7196 -0.0205471
2072 3 3.87095 12.6818 1.88366
2585 2 3.85683 14.4266 -0.0623619
3574 1 5.24793 14.4423 1.87481
1574 3 9.06818 14.408 1.86048
2073 2 10.7941 12.4443 1.77095
2586 1 10.7119 14.3516 0.056848
3080 1 9.12929 12.4183 -0.12229
10 3 14.15 12.5849 1.84108
587 1 14.2038 14.3803 0.165735
1082 3 12.4903 12.4621 -0.255551
3575 1 12.3881 14.4079 1.87054
258 2 18.0051 12.3522 1.68675
771 2 17.8713 14.4926 -0.041025
1575 3 15.7859 14.3472 1.88481
3082 1 16.2097 12.5701 0.196715
626 1 0.235133 17.9599 0.0165372
1084 2 2.00228 16.2359 0.106042
1688 3 1.79771 17.8607 1.73519
2074 3 0.078926 16.0165 1.96493
11 3 3.77685 16.1388 1.82708
630 3 7.33551 17.868 -0.111974
2075 1 7.209 16.4809 1.82823
2691 1 3.83999 18.0041 -0.0433104
3084 1 5.58293 16.072 -0.219256
3690 3 5.41979 17.9968 1.84401
12 2 10.5469 16.2391 2.01996
1086 2 9.28452 16.1854 -0.0983489
1690 2 9.02257 18.2471 1.82357
2693 3 10.8583 17.9835 0.153997
634 3 14.3372 17.8702 0.0790065
2076 1 14.269 16.2787 1.69305
3086 2 12.5268 16.0522 0.262527
3692 2 12.5983 18.1274 1.80899
876 2 17.9321 17.8235 0.0209257
1088 1 16.1147 16.0679 0.0731275
1692 3 16.0671 17.8696 1.83394
2011 2 17.8728 16.1818 1.75109
13 3 -0.276475 1.69406 5.39195
588 1 -0.0364425 -0.0133968 7.09111
1089 3 1.69213 1.94235 7.14191
2564 1 0.0275969 -0.0635126 3.74164
3063 1 1.66027 1.8243 3.51903
3576 3 1.75092 0.120909 5.48297
14 1 7.28398 1.89144 5.63859
564 3 3.66728 0.116883 3.55072
1065 2 5.41105 1.85877 3.82128
1577 3 3.56882 0.250932 7.25453
1576 1 5.23244 0.1516 5.42228
2078 2 5.4809 1.84009 7.3165
2077 1 3.54257 1.84904 5.37287
2589 2 7.25346 0.0374417 7.30228
2567 1 7.34024 0.458942 3.82772
566 3 10.7827 0.151765 3.64661
2079 2 10.6983 2.02514 5.56735
3065 1 9.0596 1.75239 3.419
3088 3 9.16982 1.74427 7.31442
3578 3 10.8801 0.24405 7.26427
3577 2 9.13719 0.337779 5.33073
15 3 12.6077 1.78984 7.16872
16 2 14.3194 2.09335 5.41713
589 1 14.241 0.0830137 7.2354
1067 2 12.5835 1.78376 3.73832
1578 1 12.5099 0.0957481 5.32216
2568 3 14.2711 0.0418525 3.77452
263 1 17.6471 1.92932 5.27456
776 1 17.8014 0.173715 7.16829
1090 3 16.0047 1.79132 7.16037
2815 2 17.8871 0.219043 3.74716
3067 1 16.02 2.08834 3.48469
3579 2 16.1288 0.0889606 5.50543
568 1 -0.290187 3.59024 3.36549
1069 1 1.95806 5.51556 3.46551
1580 2 -0.116222 3.48298 7.17084
1579 1 1.56039 3.45908 5.32556
2081 3 1.65518 5.31433 7.11372
2080 1 0.0402064 5.35578 5.3946
2591 2 0.0734395 7.02498 7.04966
2575 3 0.308826 7.11633 3.72796
3583 3 2.09881 7.19626 5.25052
17 1 3.72666 5.39233 5.35731
571 2 7.40665 3.60928 3.73906
592 3 7.13826 7.34404 7.19106
576 2 3.8562 7.1516 3.73333
1585 2 5.61557 7.11239 5.39871
2082 1 7.43897 5.41503 5.27113
2590 3 3.59983 3.56417 7.4665
2580 3 7.3217 7.26068 3.68603
2570 2 3.67065 3.68884 3.69004
3069 3 5.3417 5.31291 3.52311
3089 3 5.5068 5.32761 7.23442
3586 3 3.7524 7.24217 7.25151
3581 3 7.21623 3.76792 7.16012
3580 1 5.47225 3.81193 5.27723
18 3 10.7595 5.43479 5.36623
19 2 9.04539 5.63026 7.26343
590 3 10.7246 3.72447 7.26127
579 1 10.6177 7.64252 3.52446
1071 2 9.11253 5.32782 3.73233
1587 1 10.8324 6.94278 7.1898
1581 1 9.08907 3.61456 5.54381
2572 2 10.967 3.59491 3.61698
3587 3 9.03507 7.22772 5.54209
572 3 14.3203 3.72123 3.56839
1091 3 12.6057 5.35928 7.24955
1589 1 12.5411 7.27449 5.36123
1583 1 14.3299 3.57794 7.22639
2083 3 14.4646 5.43902 5.25975
2593 1 14.3687 7.14589 7.20922
2583 2 14.3775 7.47011 3.53807
3071 2 12.4069 5.46002 3.70064
3582 1 12.5179 3.60535 5.51533
757 3 17.9224 3.73717 3.52303
1073 1 16.2592 5.37434 3.69761
1768 3 18.0077 3.77785 7.14683
1582 2 16.13 3.74107 5.45208
2084 2 16.06 5.54761 7.01942
2017 1 17.9109 5.59347 5.4332
2841 3 17.8082 7.3341 7.1532
2826 3 18.033 7.06827 3.71505
3589 2 16.1272 7.47262 5.26689
20 3 -0.0462085 8.88456 5.61872
574 3 0.105285 10.6675 3.62148
1584 1 1.8774 10.6184 5.38411
3073 1 2.11653 9.16234 3.86573
3090 1 1.89401 9.05575 6.91713
3584 3 0.163679 10.931 7.24862
21 2 5.26821 9.15718 6.96458
22 1 7.10535 9.15312 5.31212
591 1 3.72938 10.8396 7.2266
580 1 7.14072 10.7016 3.47527
1075 1 5.48559 8.87437 3.50827
1588 2 7.21718 10.777 7.17687
2085 1 3.79809 9.10095 5.31547
2577 1 3.92687 11.0089 3.51818
3585 2 5.31788 10.8033 5.43125
1092 1 8.84987 8.96834 7.08712
1586 2 8.9795 10.8316 5.46613
2086 1 10.9319 9.10224 5.61281
2592 2 10.7987 10.7747 7.21845
2581 2 10.7941 10.7489 3.66894
3075 1 9.07864 9.08029 3.79702
23 2 14.1982 9.11122 5.53525
582 3 14.485 10.5874 3.42427
1077 1 12.4658 9.1964 3.44125
2087 1 12.3762 8.98264 7.4972
3590 1 14.0282 10.6947 7.21217
3588 2 12.4435 10.9556 5.47899
270 2 18.0742 9.16309 5.39879
764 2 17.9701 10.6281 3.46238
1590 3 16.1522 10.7565 5.17034
3091 2 15.9234 9.16546 7.06198
3077 1 16.0669 9.02996 3.66763
3835 1 18.0615 10.632 6.98443
24 3 1.89485 12.8064 7.21537
593 1 0.0163981 14.3418 7.34723
1079 3 1.89129 12.2422 3.81812
2088 3 0.244922 12.5384 5.44804
2584 2 0.190401 14.1439 3.64401
3591 1 2.01899 14.3684 5.31988
25 2 3.72346 12.6212 5.49956
584 3 3.79168 14.4415 3.62137
1093 3 5.5245 12.4965 7.05262
1592 2 3.93125 14.2614 7.08733
1591 1 5.5265 14.4481 5.40552
2089 1 7.2362 12.4482 5.40336
2594 2 7.21214 14.2011 7.02921
2587 3 7.14812 14.337 3.44498
3079 2 5.60234 12.5566 3.72927
26 3 10.8246 12.5802 5.16618
586 1 11.0799 14.469 3.73069
1081 1 8.96678 12.5238 3.47573
2090 2 8.92535 12.6988 7.01446
3593 2 10.6347 14.423 7.08528
3592 2 8.90157 14.2492 5.01446
594 2 14.2841 14.3634 7.19032
1593 1 12.5656 14.1393 5.49095
2091 3 14.5558 12.4139 5.25076
2588 2 14.1436 14.3932 3.76669
3092 2 12.4632 12.4752 7.43134
3081 2 12.5375 12.492 3.46921
27 3 15.9269 12.3496 7.09768
781 2 17.7734 14.3952 6.98895
1083 1 16.1591 12.41 3.37063
2025 2 17.807 12.5962 5.44097
2835 3 17.8835 14.4457 3.38947
3594 1 15.9595 14.2499 5.40201
28 2 0.270716 15.929 5.52128
651 3 0.0658491 17.8676 7.13473
1094 1 1.92345 15.9672 7.25749
2690 1 0.181732 17.9705 3.65083
3083 3 1.81516 16.127 3.55254
3701 2 1.83014 17.8601 5.29296
29 3 7.2957 16.0655 5.40098
629 1 3.73533 17.9157 3.5979
1085 3 5.58891 16.1218 3.55893
1704 3 3.77028 17.7824 7.0203
1703 1 5.68009 17.9347 5.40829
2093 1 5.48914 16.0581 7.14189
2092 3 3.65964 16.0216 5.33632
2715 2 7.36151 17.8419 7.06408
2695 2 7.35009 18.0182 3.64614
632 2 10.6349 18.0763 3.64489
2094 2 10.6531 16.1009 5.27832
3093 2 9.05541 16.1025 7.17014
3085 1 9.07566 16.1558 3.58954
3704 2 10.6095 17.8963 7.07919
3703 3 9.04509 17.8802 5.39928
30 1 12.7235 16.0813 7.20129
31 1 14.321 16.3503 5.40741
653 2 14.3471 18.0213 7.30644
1087 1 12.4885 16.3345 3.63478
1706 2 12.5049 17.8413 5.4075
2698 2 14.1169 18.0809 3.45112
278 1 17.7485 15.9907 5.50556
901 1 17.8369 17.9833 7.25205
1095 1 15.9793 16.3806 7.16036
2878 2 17.6833 18.0681 3.48828
3087 3 16.1266 16.1193 3.74309
3707 3 15.9383 18.1454 5.29474
1594 2 1.65025 0.0957822 9.08507
2095 3 -0.0587955 1.79632 9.024
2595 1 -0.00570333 -0.0583492 10.8708
3094 2 1.58953 1.73072 10.8432
33 3 7.17322 1.85147 9.04422
595 2 3.44388 0.0858317 10.6755
1096 1 5.43587 1.75725 10.8119
2597 1 7.246 0.07863 10.6853
2596 3 5.49009 0.138917 9.01606
3095 2 3.49633 1.78348 9.18822
596 2 10.7954 -0.0407064 10.6725
1097 3 10.7535 1.91119 8.94197
3096 1 9.12225 1.78058 10.7112
3596 3 8.97266 0.0475798 8.93831
597 3 12.6427 0.0749564 9.08493
1098 2 12.7037 1.74955 10.6917
2098 1 14.3155 1.8538 9.03425
2598 1 14.4428 0.0891257 10.7955
1597 2 16.2022 0.254029 9.13128
2032 2 17.9199 2.03127 8.89374
2845 1 17.7918 0.347993 10.7333
3097 3 15.9838 1.82028 10.6771
598 1 -0.0083393 3.54291 10.7099
1099 3 1.69178 5.55978 10.7189
2603 1 0.105677 7.5963 10.7005
2599 1 1.74268 3.50936 9.07151
3098 3 -0.136242 5.35592 9.04027
3602 3 1.84627 7.23946 8.91965
36 3 3.76194 5.32967 8.97228
605 3 3.81074 7.01422 10.7934
604 1 5.58516 7.16961 8.75398
600 1 7.27067 3.67072 10.7733
1100 3 7.2705 5.35676 9.04734
2606 2 7.0491 7.14289 10.7004
2600 3 3.56088 3.62893 10.9018
3099 2 5.48734 5.07607 10.7415
3599 3 5.4686 3.59775 8.97609
606 2 10.9128 7.24847 10.9573
599 3 8.80514 3.69524 9.00751
1101 1 9.05795 5.36837 10.8667
1605 2 9.00624 7.03696 8.97314
2100 1 10.837 5.32032 9.02346
2601 1 10.7957 3.49442 10.7146
601 1 14.1417 3.62924 10.793
1600 3 12.5256 3.67636 9.06916
2609 1 14.587 7.1577 10.6651
2608 2 12.5657 7.23542 9.02519
3101 3 14.3436 5.57122 8.9324
3100 3 12.6129 5.35889 10.7573
786 2 17.6904 3.57903 10.5177
1102 2 16.1176 5.37629 10.6057
2853 1 18.194 7.28228 10.7204
2602 2 15.9112 3.50933 8.90596
3348 1 17.7356 5.53818 8.74398
3608 1 16.3612 7.24397 8.94914
39 2 0.0676717 9.03468 8.88847
603 3 0.160318 10.6823 10.6547
602 3 1.81756 10.9275 8.97241
3102 1 2.16348 8.97422 10.9076
607 3 7.2304 10.7467 10.5814
1104 1 5.36967 9.00964 10.7003
1103 3 3.59642 8.99377 8.96236
1603 3 5.50127 10.7338 8.86226
2104 2 7.26048 9.08679 9.02846
2604 2 3.92857 10.8558 10.707
2607 2 10.5123 10.6416 10.994
2605 1 8.91755 10.9745 8.99537
3104 3 8.82022 8.82869 10.7723
3103 1 10.4967 8.74215 8.96732
42 3 14.3232 8.98387 9.01589
609 1 14.3619 11.021 10.521
1105 1 12.3634 9.04749 10.7907
3606 3 12.4095 10.6913 9.0943
289 2 17.8643 9.15176 9.05219
792 1 17.777 10.7895 10.83
608 3 16.0425 10.7268 8.87133
3105 3 16.0017 9.04916 10.7671
1107 2 2.11356 12.7274 10.696
1106 1 -0.0961616 12.5491 8.90279
1609 2 2.04221 14.1973 8.95244
2610 2 0.224155 14.4114 10.7598
610 3 4.12813 14.3336 10.606
2107 1 3.78987 12.4556 9.14845
2612 3 7.28617 14.394 10.7368
2611 1 5.64087 14.3641 8.88798
3107 1 7.09249 12.6128 8.74911
3106 2 5.71241 12.5389 10.5249
45 1 10.5981 12.4616 8.90685
611 2 10.5754 14.3932 10.8864
1108 3 8.95926 12.5698 10.6481
3611 1 9.04322 14.3014 8.88568
612 1 12.0702 14.2126 8.97367
1109 3 14.2931 12.6728 8.97994
2613 3 14.154 14.3183 10.6727
3108 2 12.2545 12.5656 10.7159
1293 3 17.7039 12.2686 8.7985
1110 2 16.2163 12.8064 10.8958
1612 1 16.1782 14.1823 8.85455
2860 3 17.8557 14.2314 10.8404
1719 2 2.10395 17.9453 8.76787
2110 3 0.160742 16.013 9.12238
2721 3 0.0513952 17.7273 11.0616
3109 1 2.00163 16.2138 10.6788
48 1 7.15289 16.0675 9.02709
659 2 3.67445 17.7307 10.7618
1111 2 5.49488 16.1538 10.8722
2724 2 7.25348 17.871 10.6994
2722 1 5.68067 17.717 8.84377
3110 3 3.90311 16.3408 8.81128
661 3 10.8012 17.8349 10.6415
1112 2 10.6485 16.2321 8.9913
3111 1 9.12996 16.2373 10.7401
3723 1 8.93263 17.9695 9.10543
663 1 12.5681 17.9972 8.85222
1113 1 12.4486 16.2247 10.56
2113 3 14.0526 16.0438 8.93507
2727 2 14.1234 17.8959 10.4523
1725 1 15.8885 17.7765 8.83828
2047 3 17.7062 16.213 8.93484
2908 2 17.6413 17.7992 10.6461
3112 3 15.8671 16.0078 10.7438
32 2 0.0401129 1.8596 12.5073
613 1 0.020228 -0.120745 14.5458
1114 2 1.82541 1.75686 14.4586
3595 3 1.97653 0.0409016 12.5248
34 1 7.1655 1.74362 12.4868
614 3 7.09361 0.186474 14.3333
1595 2 5.47735 0.294017 12.4238
2096 1 3.49528 1.84955 12.6403
2614 2 3.65669 0.250363 14.3126
3113 2 5.26524 1.88493 14.3936
1115 2 8.9568 2.12434 14.3279
2097 2 10.8199 2.02927 12.7682
2615 1 10.8131 0.1079 14.3555
3597 1 9.19825 0.14785 12.7768
35 2 14.3572 1.93223 12.6111
615 1 14.5941 -0.128827 14.2644
1596 3 12.6907 0.0132948 12.5131
3114 1 12.5283 2.0341 14.3858
282 2 17.8744 2.07055 12.5617
801 2 17.984 -0.0436375 14.0776
1116 3 16.2214 1.92054 14.2753
3598 1 16.1261 -0.00542841 12.7007
618 2 0.185343 7.11239 14.1171
1598 1 1.59086 3.66443 12.4254
2099 1 -0.0228877 5.59788 12.3331
2616 2 0.11492 3.5345 14.3384
3115 3 1.81284 5.35535 14.0825
3603 3 1.8161 7.17111 12.5431
37 1 3.81941 5.45766 12.7297
620 3 7.1331 7.28725 14.3554
616 3 3.58938 3.59665 14.2108
1117 3 5.35516 5.57463 14.5116
1604 1 5.31312 7.06068 12.5576
2101 1 7.19305 5.47186 12.6063
2620 2 3.64089 7.23619 14.3139
2617 2 7.09686 3.64755 14.5306
3600 3 5.57289 3.53487 12.6138
38 3 10.8999 5.27624 12.5114
617 3 10.6447 3.83877 14.3494
1599 1 8.74959 3.62695 12.5722
2621 2 10.6915 7.06265 14.253
3116 3 8.80068 5.34344 14.388
3605 2 8.8196 7.07597 12.5034
622 2 14.4361 7.21753 14.3487
1118 3 12.6161 5.36587 14.4211
1607 1 12.6895 6.92025 12.6296
2102 1 14.4186 5.57839 12.5255
2618 3 14.3645 3.65804 14.2191
3601 2 12.7193 3.54096 12.5291
806 2 17.7567 7.14701 14.284
1601 1 16.1681 3.69448 12.653
2036 1 17.8683 5.50812 12.5373
2866 3 18.0288 3.63941 14.157
3117 1 16.1022 5.40256 14.2986
3609 2 16.1197 7.31963 12.4922
40 3 0.155876 9.20638 12.734
1119 1 1.89719 8.9508 14.3546
1602 3 1.74081 10.8387 12.5489
2619 3 0.0984029 10.7698 14.5298
41 2 7.04042 8.83048 12.4922
619 3 3.62464 10.8435 14.2119
2103 1 3.72838 8.99086 12.5154
2622 3 7.0695 10.8039 14.2917
3118 1 5.35745 8.99333 14.1887
3604 1 5.64516 10.7759 12.4875
621 1 10.5285 10.8956 14.3755
1120 2 8.73745 8.98899 14.4177
1606 1 8.80908 10.4242 12.6693
2105 2 10.7749 9.0552 12.4667
43 2 14.3913 8.85399 12.5333
2623 3 14.3269 10.5557 14.2496
3119 1 12.5391 8.8857 14.2611
3607 2 12.5057 10.7162 12.4827
290 2 17.9746 8.89241 12.3871
1121 1 16.1333 8.97067 14.3078
1608 3 16.0141 10.5948 12.6227
2870 2 18.1004 10.4395 14.2094
623 2 -0.131428 14.2594 14.081
2106 2 0.105034 12.5756 12.3746
3120 3 1.86849 12.4642 14.3106
3610 3 1.80165 14.3241 12.5671
44 2 3.87949 12.4409 12.4625
624 1 7.20963 14.3725 14.4938
1122 2 5.49998 12.5191 14.2264
1610 2 5.56202 14.3298 12.4224
2108 3 7.14843 12.519 12.5225
2624 2 3.68418 14.1654 14.1847
46 3 10.7278 12.3956 12.7075
2625 1 10.6601 14.2437 14.2628
3121 3 8.71546 12.5254 14.2378
3612 3 9.02717 14.4856 12.5379
625 1 14.2273 14.1539 14.4296
1123 3 12.5251 12.3679 14.3147
1611 2 12.4098 14.3189 12.34
2109 1 14.1231 12.3254 12.51
811 2 18.0562 14.2274 14.2393
2044 2 17.8343 12.4175 12.57
3122 2 16.0924 12.4173 14.338
3613 1 15.9973 14.2038 12.4718
47 1 0.0467604 16.0486 12.58
676 1 -0.00690805 17.651 14.294
1124 3 1.83096 16.0129 14.262
3720 2 1.92722 17.7178 12.5925
49 1 7.14362 16.2668 12.4466
678 2 7.10058 17.586 14.4605
1721 2 5.46074 17.9732 12.5537
2111 3 3.80745 15.8502 12.6161
2740 1 3.59389 17.778 14.5493
3123 3 5.55278 16.0278 14.2503
1125 3 9.01313 16.2077 14.1416
2112 2 10.7412 16.1732 12.3408
2741 3 10.7757 17.8185 14.1889
3724 1 8.9772 18.0344 12.6021
50 3 14.1988 16.0514 12.4255
680 3 14.2241 17.8466 14.3996
1724 3 12.6038 17.9145 12.476
3124 3 12.6202 15.7697 14.3584
297 1 18.1558 16.0303 12.3168
926 3 17.835 17.7653 14.3306
1126 3 15.9986 16.0619 14.0844
3726 2 16.0685 17.7421 12.5703
1613 2 1.46203 0.0501757 16.1178
2114 1 -0.169703 1.8051 16.2138
2626 3 -0.197859 0.108519 17.7709
3125 3 1.74156 1.8018 17.8134
51 1 3.36844 1.76914 16.0736
502 2 3.42161 0.0623414 17.9237
1128 2 5.2815 1.86651 17.9172
2115 1 7.17235 1.95377 16.284
2628 1 7.08111 0.294574 17.8216
3614 1 5.20597 0.218704 15.9551
52 2 10.7314 1.76325 15.9661
503 1 10.762 -0.0336028 17.8678
1614 2 9.01447 0.0819505 16.0998
3127 2 8.86267 1.61587 18.1235
1130 1 12.6064 1.68172 17.9073
2116 3 14.4704 1.7284 16.2326
2630 1 14.4313 0.0678252 18.0136
3615 3 12.5977 0.191565 16.1545
1615 1 16.2955 0.161057 15.9056
2051 1 18.092 1.78135 15.9696
2501 2 18.0263 0.0428496 17.88
3129 2 16.4423 1.86057 17.7591
53 1 -0.00845251 5.59979 15.9273
506 3 -0.0861438 3.74221 17.7632
1132 3 1.93093 5.55463 17.8109
1618 1 1.78256 7.21559 15.9287
2636 2 -0.0447818 7.36465 17.9786
3616 1 1.73975 3.57508 16.0949
54 3 7.12343 5.40804 16.1566
508 1 7.15866 3.75265 17.88
513 1 3.48585 7.08959 17.8737
1616 1 5.35425 3.5259 16.017
2117 1 3.45358 5.37753 15.9896
2640 1 7.07469 7.1959 18.0131
2632 3 3.59756 3.55108 17.8773
3131 3 5.42645 5.4397 17.6535
3620 1 5.33091 7.23248 16.0689
515 2 10.6988 7.17918 18.1957
1134 3 8.89958 5.58545 18.0345
1620 1 8.85916 7.07286 16.0365
2118 3 10.7641 5.4081 16.2876
2633 3 10.7624 3.30606 17.9596
3617 2 9.03532 3.41385 16.3347
55 1 14.1845 5.39674 16.1511
510 3 14.3841 3.61453 18.0203
1617 2 12.7521 3.48343 16.1297
2644 2 14.2857 7.19043 17.9036
3133 3 12.6168 5.46388 17.9784
3622 1 12.5309 7.41509 15.9935
303 1 17.9661 5.42681 15.9717
819 2 17.9574 3.76264 17.7469
1136 1 16.0372 5.44629 17.7979
1622 3 15.8529 7.276 16.1728
2511 1 18.081 6.94567 17.9351
3618 1 16.1542 3.522 16.2606
511 3 0.035121 10.5546 17.6449
2119 1 -0.0524969 8.73804 15.8792
3135 1 1.99437 9.01535 17.7716
3619 2 1.98024 10.852 16.0292
56 3 3.61712 8.93861 16.0115
516 1 6.91922 10.6109 18.0069
1138 2 5.26464 8.92876 17.7088
1619 3 5.20457 10.7854 15.9601
2120 1 7.09843 8.97302 16.0659
2638 1 3.78585 10.6997 17.8291
57 1 10.5444 8.88226 15.8614
2641 3 10.627 10.6894 17.5764
3137 2 8.84172 8.81217 17.9474
3621 3 8.66824 10.7649 16.1464
519 1 14.2528 10.5479 17.8055
1140 1 12.2742 8.9358 17.8248
1621 2 12.4438 10.6414 15.9571
2121 3 14.163 9.12791 16.0853
825 2 18.0112 10.5548 17.7515
2056 2 17.9141 8.84952 16.2264
3139 2 16.0789 9.03964 17.9657
3623 1 16.2694 10.5339 16.0136
58 2 -0.0297931 12.5297 16.0868
1142 1 1.84031 12.6646 17.7086
1623 1 1.74999 14.1591 15.9572
2646 3 0.0451285 14.3673 17.7112
59 3 6.77854 12.3906 16.2
522 2 3.61382 14.4888 17.819
2122 3 3.5254 12.6791 15.9964
2648 1 7.35693 14.2483 17.8073
3141 3 5.09511 12.7287 17.8315
3624 2 5.32409 14.4297 15.8175
523 3 10.6799 14.1341 18.0163
1144 1 8.91391 12.4786 17.7533
1624 2 8.96874 14.2707 15.9243
2123 2 10.5014 12.5757 15.9992
60 1 14.1889 12.3692 16.139
2650 2 14.1542 14.1221 17.9022
3143 1 12.5164 12.3463 17.7822
3625 2 12.5381 13.9884 16.1656
308 3 17.9917 12.4098 15.9216
1146 1 16.2834 12.1864 17.8378
1625 2 16.132 14.1618 16.0028
2521 2 17.7765 14.3041 17.8234
1738 3 1.7142 17.8911 16.1641
2124 2 0.0947063 16.1225 15.989
2751 1 -0.225644 17.7367 17.7862
3145 2 1.82049 16.0763 17.8333
61 1 3.72351 15.9746 16.2188
691 1 3.75933 17.6698 17.8984
1148 2 5.49576 15.8625 17.6734
2125 2 7.16018 15.9392 16.07
2755 2 7.0372 17.7485 17.7151
3740 1 5.44237 17.9169 16.1196
62 1 11.0187 16.0502 16.12
693 2 10.7289 17.9034 17.9324
1740 1 9.079 17.4018 16.169
3147 1 8.97687 16.0308 17.7656
1150 1 12.4646 15.99 17.9586
2126 2 14.382 15.7819 15.9806
2759 1 14.3933 17.8023 17.8235
3742 2 12.6889 17.6386 16.0323
1742 2 15.866 17.6766 16.1482
2061 3 17.8481 15.9265 16.0113
2938 3 17.6981 17.8219 17.892
3149 2 15.9818 15.7783 17.8285
501 1 -0.0824224 -0.0171114 21.5652
63 1 -0.0200035 2.00207 19.5523
1127 2 1.94486 1.94659 21.4956
3626 3 1.74495 -0.0318408 19.9341
504 1 7.03563 0.222028 21.5714
64 2 7.1287 1.74158 19.7475
1626 2 5.20358 0.0736151 19.7676
2127 1 3.63459 1.71837 19.6044
2627 3 3.62532 0.299074 21.7192
3126 2 5.21355 1.89129 21.3623
1129 1 9.14223 1.63477 21.4004
2128 2 10.7862 1.71009 19.6897
2629 1 10.8808 0.101433 21.3511
3627 2 9.06285 -0.0267649 19.7358
505 2 14.4616 -0.00945761 21.526
65 3 14.3378 2.03231 19.7098
1627 1 12.5175 0.0335838 19.7871
3128 1 12.5002 1.82187 21.4707
815 3 17.725 0.173364 21.4894
313 1 18.0635 1.93628 19.4962
1131 1 16.1283 1.78431 21.4294
3628 3 16.2467 -0.0293666 19.7725
512 1 -0.213854 7.23852 21.3278
1628 1 1.70467 3.45131 19.6746
2129 2 -0.108795 5.46691 19.5775
2631 3 0.00652526 3.70967 21.3994
3130 1 1.77977 5.28324 21.3543
3631 1 1.88569 7.19542 19.488
507 3 3.58937 3.80195 21.4738
517 2 7.14755 7.45612 21.4481
66 3 3.57044 5.44118 19.7321
1133 2 5.26409 5.59558 21.4523
1632 1 5.39007 7.31438 19.7201
2130 1 6.98461 5.54085 19.7576
2639 2 3.4613 7.35266 21.3817
2634 1 7.13014 3.75171 21.0974
3629 3 5.21656 3.70601 19.5508
509 3 10.78 3.50399 21.4489
67 1 10.7755 5.29663 19.5852
1629 2 9.07332 3.60072 19.6546
2642 1 10.7137 7.3057 21.1692
3132 1 9.13061 5.44428 21.3812
3633 1 8.89173 7.26213 19.8808
520 2 14.307 7.16148 21.5245
1135 3 12.4819 5.40532 21.5194
1634 2 12.5033 7.25826 19.7076
2131 1 14.2851 5.45092 19.8682
2635 2 14.4169 3.6034 21.3685
3630 2 12.5915 3.81192 19.6617
826 1 17.8129 7.16193 21.566
1630 2 16.2728 3.73579 19.6161
2316 1 17.929 5.40792 19.6892
2507 3 17.736 3.58839 21.4178
3134 2 16.1576 5.51469 21.3445
3635 2 16.0202 7.31623 19.5944
68 2 0.147061 8.84198 19.6483
1137 1 1.86477 8.9521 21.1882
1631 3 1.70926 10.7626 19.5312
2637 3 -0.0137498 10.81 21.4208
514 1 3.40656 10.8059 21.4635
69 2 7.03777 9.01726 19.5577
2132 3 3.59133 9.08576 19.521
2643 3 7.13283 10.5896 21.5086
3136 3 5.33422 8.94132 21.515
3632 2 5.23366 10.6229 19.7572
518 1 10.8695 10.689 21.3825
1139 2 8.98701 9.08698 21.5223
1633 2 8.90644 10.9225 19.5068
2133 2 10.6056 9.13754 19.6678
70 1 14.2843 8.7749 19.5129
2645 3 14.2763 10.7883 21.3831
3138 2 12.6548 8.97455 21.4225
3634 2 12.2734 10.6789 19.5806
318 1 17.7722 8.81597 19.662
1141 2 16.1442 8.78162 21.5236
1635 2 16.2556 10.576 19.7669
2514 1 17.9101 10.4445 21.5696
521 3 -0.0884744 14.3255 21.4465
2134 1 0.0172422 12.4698 19.372
3140 1 1.66264 12.5513 21.6029
3636 2 1.73302 14.2912 19.5774
524 2 7.11662 14.3589 21.3048
71 2 3.44983 12.5068 19.5282
1143 2 5.32339 12.8326 21.3119
1636 2 5.25784 14.3383 19.7144
2135 2 6.82842 12.5068 19.7444
2647 2 3.38399 14.3291 21.3707
72 3 10.9234 12.3586 19.7236
2649 1 10.7383 14.1738 21.4078
3142 2 9.04148 12.5909 21.4831
3637 1 8.8696 14.1917 19.7273
525 3 14.3386 14.2759 21.707
1145 3 12.5562 12.5115 21.5647
1637 1 12.4424 14.3233 19.4533
2136 3 14.1197 12.4032 19.5997
835 1 18.0303 14.304 21.2174
2321 3 17.8649 12.4394 19.6885
3144 2 16.0852 12.4815 21.2742
3638 1 15.9161 14.301 19.7351
690 2 -0.0593664 17.6903 21.5367
73 2 -0.0458341 16.1241 19.674
1147 3 1.79542 16.2123 21.3645
3751 3 1.70136 17.6569 19.5356
695 3 7.35486 17.9286 21.4467
74 1 7.2102 15.9804 19.5244
1502 3 5.50815 17.9709 19.6084
2137 1 3.71576 16.1074 19.4185
2754 3 3.63648 17.926 21.2764
3146 2 5.33587 16.2233 21.1516
1149 3 8.96499 15.9269 21.3272
2138 3 10.681 15.984 19.5717
2757 3 10.6022 17.7152 21.355
3753 1 8.86409 17.7332 19.4496
698 1 14.3029 17.7135 21.5538
75 3 14.2221 16.0034 19.8105
1504 3 12.6276 17.811 19.693
3148 3 12.3948 16.0234 21.325
941 1 17.9487 17.9733 21.5663
323 2 17.7117 16.0294 19.6318
1151 3 16.0345 16.1204 21.6975
3755 2 16.2057 17.762 19.7566
1638 1 1.79569 -0.0267866 23.3182
2139 3 0.00236048 1.84764 23.2838
2651 2 0.13185 0.0144136 25.0021
3150 1 1.8676 1.86032 25.0881
526 1 7.26939 0.168336 25.066
77 1 5.43086 1.80809 24.9575
76 2 3.61218 2.10438 23.2839
2140 2 7.10455 2.06178 23.2095
3640 3 3.55105 -0.0783232 25.1475
3639 1 5.38358 -0.0599267 23.2607
78 2 10.9599 1.9624 23.2437
1152 3 9.10124 1.92077 24.8716
1640 2 10.9565 0.132184 24.7619
1639 1 9.22865 0.391763 23.1889
2142 1 14.4106 2.00511 23.1635
2141 1 12.5541 1.94598 25.0823
2652 3 14.2258 0.259249 24.8376
3641 2 12.7407 0.11528 23.0433
1641 3 16.0171 0.108578 23.2304
2326 1 17.8072 1.78011 23.2198
2526 1 17.7741 -0.0940413 25.1044
3151 3 16.1955 1.84826 24.8818
528 1 0.182087 7.13355 24.9252
80 3 2.02926 5.42897 25.0814
79 3 -0.0368181 5.65362 23.2363
1645 1 1.64606 7.38175 23.1007
3643 2 0.0850618 3.74566 24.9409
3642 1 1.7584 3.76101 23.0994
527 3 3.75569 3.64551 24.9788
81 3 7.24162 5.45792 23.098
1153 3 5.32895 5.35442 24.8515
1648 3 3.47381 7.37462 24.9374
1643 1 7.19412 3.57559 24.7996
1642 3 5.45626 3.68765 22.969
2143 1 3.3976 5.75938 23.1981
2655 3 7.21236 7.23293 25.0418
3648 1 5.41726 7.16206 23.1549
1649 1 8.80749 7.46522 23.1108
2145 2 8.98814 5.22492 25.1202
2144 2 10.6719 5.38927 23.1247
2653 2 10.8831 3.6443 24.8919
3650 3 10.9348 7.20646 25.0834
3644 2 8.74663 3.60634 23.0673
530 3 14.2825 7.09506 24.9995
82 1 14.3684 5.45488 23.142
1644 2 12.6885 3.6657 23.059
3152 3 12.686 5.39217 24.9443
3652 3 12.5287 7.04137 23.2115
3646 2 14.2629 3.69552 25.1534
841 3 18.0851 6.95535 24.7511
329 1 17.9718 5.32937 22.9698
83 3 16.2093 5.42614 24.9169
1651 1 15.9585 7.30343 23.2499
3893 3 17.7992 3.70636 25.0105
3645 2 16.111 3.84938 23.2025
1154 3 1.89035 8.80244 25.3218
1646 1 -0.0643525 10.4254 25.0097
2146 2 -0.100353 8.88117 22.96
3647 3 1.70785 10.4727 23.0939
84 3 3.40565 9.00141 23.1492
1647 3 5.36658 10.8926 23.2118
2148 2 7.14828 9.04975 23.375
2147 3 5.33302 9.02925 24.9559
2654 3 3.51623 10.6268 25.0229
3651 1 7.19541 10.8788 24.7414
529 1 10.8371 10.5182 24.9015
85 2 10.7556 8.93584 23.1334
3153 2 8.93699 8.97807 24.8871
3649 1 9.06985 10.666 23.1161
86 1 12.3619 8.97327 25.2613
1652 2 14.1736 10.6474 25.0046
1650 1 12.5378 10.6159 23.0346
2149 1 14.1102 8.91682 23.1917
1155 3 15.97 9.12611 24.8133
1835 1 17.6767 10.738 24.8963
2333 3 17.8621 8.84895 23.3615
3653 2 16.0736 10.6997 23.0163
87 3 -0.222791 12.4704 23.1955
1653 1 1.6637 14.2493 23.2085
2150 1 1.84439 12.62 24.8378
2656 3 -0.00796663 14.2098 25.0824
531 1 7.38192 14.4197 24.8441
88 1 7.14031 12.6164 23.0364
2151 2 3.83294 12.5698 23.0642
3154 2 5.48314 12.5821 24.9158
3655 3 3.6739 14.2678 24.9059
3654 1 5.4748 14.4292 23.274
89 1 9.03978 12.4602 25.026
1655 2 10.8383 14.4179 25.1551
1654 3 9.08036 14.3199 23.2705
2152 3 10.8257 12.3888 23.275
90 3 14.2189 12.3891 23.2312
1156 1 12.4892 12.5878 25.053
2657 3 14.3414 14.1895 25.1855
3656 2 12.4265 14.3833 23.2134
337 3 18.0894 12.2897 23.0603
1656 1 16.2483 14.2932 23.2087
2153 1 16.2507 12.4535 24.8882
2531 2 17.8759 14.4137 25.0149
1513 3 2.04285 18.0834 23.1759
2154 1 -0.196516 16.0146 23.2804
2776 2 -0.00413981 17.9977 24.7784
3155 2 1.64263 16.1069 25.0634
715 3 7.195 17.8296 25.0231
92 2 5.17402 16.2064 24.7833
91 3 3.3581 16.0431 23.2447
2155 1 7.17064 16.0644 23.0606
3767 1 3.7508 17.7322 25.0405
3766 3 5.27968 17.8258 23.1397
93 1 10.7177 15.9031 23.286
1157 2 9.12608 16.1606 25.1041
1515 2 9.03533 17.9023 23.3195
1516 1 10.8259 17.8169 24.8864
2157 1 14.3531 16.1336 23.2774
2156 3 12.5558 16.0189 24.9618
2778 3 14.206 17.9915 25.015
3769 2 12.4597 17.9007 23.2288
1519 3 16.1289 17.9619 23.3484
2341 1 17.833 16.1068 23.5398
2963 1 17.6103 17.714 25.1582
3156 2 15.8985 16.1371 25.0686
532 1 0.0841774 0.372549 28.7087
94 2 0.208735 1.77606 26.6319
1158 1 1.73701 1.80729 28.4471
3657 3 1.77976 0.0239011 26.946
533 1 5.471 0.165591 26.7907
534 1 7.37526 0.179397 28.5594
1159 2 3.48168 1.88602 26.7714
2159 2 7.05593 1.98992 26.681
2658 3 3.48452 0.111678 28.6973
3157 1 5.38118 1.64678 28.6065
1160 2 9.00852 1.91203 28.4588
1658 1 9.11659 -0.0247176 26.7754
2659 2 10.6057 0.0858488 28.5653
3158 1 10.7616 1.9553 26.7494
535 2 14.1609 0.184195 28.4872
97 2 14.2011 1.96261 26.9486
2660 3 12.2654 0.233647 26.8138
3159 1 12.5139 2.05467 28.6962
845 2 17.9256 0.231086 28.5078
344 2 17.9572 1.84923 26.6876
1161 2 16.2259 2.01297 28.4759
3660 3 16.1183 0.180876 26.8389
536 3 1.96157 3.57081 26.7995
540 2 -0.00102575 7.02449 28.7393
1162 3 0.25477 5.31081 26.8786
1664 1 1.98545 7.2643 27.0616
2661 1 0.107393 3.57517 28.6493
3160 3 1.84536 5.1601 28.7025
537 2 3.5494 3.47694 28.7579
543 3 7.05678 7.08931 28.4703
1163 2 5.2309 5.29886 28.4274
1661 1 5.29698 3.56243 26.874
2162 1 3.51944 5.34628 26.6661
2668 2 3.56952 7.21311 28.5553
2667 1 5.31056 7.18505 26.7271
2663 2 6.91476 3.69742 28.6
3161 3 7.249 5.35446 26.6823
538 3 10.7354 3.50954 28.4224
99 2 10.8501 5.46433 26.8089
2669 3 10.732 7.0563 28.4745
2662 3 9.03458 3.61607 26.8538
3162 1 8.80375 5.28881 28.6693
3668 3 8.93684 7.15072 27.0165
545 2 12.711 6.91341 26.8766
546 3 14.5948 6.99369 28.5113
1165 1 14.3825 5.38239 26.8935
1164 1 12.661 5.31754 28.8507
2664 2 14.3218 3.41136 28.6221
3663 3 12.5375 3.60934 26.9755
853 2 18.1152 7.2685 28.5944
539 1 16.1414 3.64664 26.6964
1349 1 18.0988 5.45699 26.7014
1670 1 16.2415 7.02256 26.8111
2536 3 17.9171 3.57959 28.3619
3163 2 16.1177 5.14807 28.5571
1166 3 1.8372 8.99951 28.8109
2165 3 0.0164728 8.69885 26.7616
2666 1 -0.0343627 11.0324 28.2604
2665 2 1.70496 10.5864 26.9279