ITEM: TIMESTEP
5000
ITEM: NUMBER OF ATOMS
4000
ITEM: BOX BOUNDS pp pp pp
1.1940823069286921e-01 3.5614651769307450e+01
1.1940823069286921e-01 3.5614651769307450e+01
1.1940823069286921e-01 3.5614651769307450e+01
ITEM: ATOMS id type x y z
1 1 0.0772583 2.06676 1.78881
1563 3 0.0777556 0.0173122 0.226391
2064 1 1.80338 1.84847 0.254587
3561 1 1.91946 0.0214621 1.90422
564 1 3.58669 1.90993 1.97118
565 2 7.07344 1.696 1.96462
1565 2 7.31994 0.0298555 0.0318338
2065 1 3.61207 0.173674 0.111307
3061 2 5.43832 1.90879 0.206518
3562 1 5.4023 0.10045 1.9989
566 2 10.661 1.89794 1.8669
1070 1 10.7261 0.205363 0.10357
3063 3 8.93247 0.0907654 1.90161
3062 3 8.85011 1.94476 0.0409609
567 1 14.2085 1.92747 1.84725
2566 2 14.2167 0.251485 0.181943
3064 3 12.4939 1.89711 0.061176
3563 3 12.5595 0.274606 1.85727
2 3 17.7326 0.0767717 0.0942089
3 3 16.0465 0.256078 1.91746
3066 1 17.9955 1.86531 1.79739
3065 3 16.1904 1.90548 0.050389
4 2 1.89515 5.47895 0.191764
5 2 2.00337 3.78979 1.79252
6 1 2.13591 7.23712 1.89992
1071 3 0.25464 5.55668 2.04656
3067 1 0.0945796 3.78928 0.14025
3565 1 0.0522176 7.07253 0.0696457
7 2 5.48473 5.51943 0.12161
8 3 3.83444 7.2963 0.107444
1072 2 7.09455 5.48171 1.95998
1075 1 5.51588 7.21878 1.88806
1074 2 3.83079 5.4702 1.89277
1567 2 7.16681 7.2374 0.125071
2570 2 7.03704 3.62204 0.14126
2569 2 3.69592 3.64619 0.204449
3569 2 5.37011 3.46558 1.92611
9 2 8.97122 5.78684 0.137694
10 3 8.94381 3.62544 1.86145
1077 2 10.8036 7.33945 0.0251481
1076 2 10.7549 5.38078 1.82763
1568 2 9.18827 7.3205 1.89895
3068 1 10.7015 3.5846 -0.0189517
11 3 12.6149 5.48211 0.20446
12 2 14.3788 3.56824 0.135864
570 1 12.5999 3.55109 1.969
1571 2 14.394 7.19114 0.0492692
1570 1 14.354 5.40075 1.93795
1569 2 12.5432 7.19681 1.76015
572 2 16.0725 3.6588 1.91496
1081 1 16.0357 7.20598 1.91195
1079 3 17.9026 5.38962 1.83495
1078 1 16.1757 5.46314 0.228607
1573 2 17.8725 3.66467 0.161967
2070 2 17.8828 7.2043 0.278078
575 2 1.81958 10.7129 1.89209
1082 2 1.87711 8.86177 0.0269471
1574 3 0.0375802 9.0075 1.92111
3070 2 0.150765 10.5605 0.189713
576 1 3.67869 10.7472 0.222611
1085 3 5.54227 9.16223 0.107264
1083 1 5.4789 10.8543 1.9976
1577 1 7.22889 10.9661 0.241306
1576 3 7.20383 8.96944 1.82297
1575 2 3.691 9.02242 1.79085
14 2 10.81 10.652 -0.0113036
1087 1 9.10614 10.8771 1.99907
1086 1 8.88032 9.05162 0.105717
2071 2 10.9015 9.04614 1.86117
580 1 12.5063 10.9132 2.06794
1088 3 14.366 10.7847 0.207877
2073 3 12.6588 9.07256 0.0988445
2074 3 14.2917 8.84739 1.88366
15 1 17.9714 9.12322 1.87937
1581 1 16.0061 10.6537 2.02858
2076 1 17.9784 10.7246 0.217333
2075 3 16.1292 9.00114 0.0547469
2079 3 1.89491 12.4546 0.185582
2078 3 1.81571 14.231 1.83878
2077 1 -0.0795942 12.4704 1.83049
2572 3 0.148623 14.429 0.113698
2082 2 5.44947 14.2334 1.94251
2081 2 3.58678 12.5152 2.0403
2080 3 5.39749 12.4766 0.082744
2576 2 7.03868 14.2045 0.266066
2575 2 7.18813 12.4493 1.96953
3071 1 3.69786 14.4073 0.321991
1583 3 8.94934 14.3585 2.07248
2084 2 10.8939 14.4247 0.0272442
2579 3 10.6378 12.6588 1.91493
3073 3 8.98159 12.6343 0.243723
2085 3 12.4989 14.1204 1.77892
2580 3 14.3054 12.4459 1.871
3074 1 12.539 12.3625 0.0428564
3574 1 14.2291 14.2613 0.0234096
581 3 17.7388 12.8315 1.81151
1089 1 17.7719 14.3262 -0.0559125
2583 3 16.0674 14.387 1.74366
3075 1 15.9284 12.6349 -0.0440943
16 1 0.0864846 17.9737 0.0463076
2086 2 1.74773 17.8581 1.64537
2584 2 0.125942 16.1434 1.88273
3076 2 1.92124 16.16 0.0259067
17 3 5.46774 16.2429 0.141784
1090 2 3.64538 17.9175 0.0475108
2585 1 7.16888 17.9782 0.221006
3079 2 5.43249 17.9612 1.94963
3078 3 7.13533 16.2133 1.96668
3077 2 3.77249 16.0379 1.82829
18 3 8.84739 16.0286 0.0539831
1585 1 10.8741 17.9001 -0.0189539
3080 1 10.7599 16.0296 2.0274
3578 3 9.09935 17.7525 1.82898
19 3 12.5226 16.0516 0.352738
2088 3 14.2896 17.9733 0.145678
3081 3 14.3407 16.1127 2.00668
3581 1 12.3781 17.8948 1.95331
20 3 15.9241 16.092 0.0141593
1586 1 17.7865 16.1604 1.91344
3083 1 16.0562 17.7012 1.90488
3082 1 17.9102 17.6251 0.0834848
584 2 1.85764 1.93945 7.16616
1564 3 0.0476807 0.203556 3.56735
2588 2 1.78707 0.0885672 5.58586
2563 3 1.86061 1.89745 3.50574
3084 2 -0.170303 0.148762 7.2777
3583 3 0.146758 1.97484 5.54485
22 2 5.36836 1.95003 7.41424
1069 1 3.67793 0.05069 3.75777
1566 2 7.21268 0.144645 3.81883
2089 3 5.38339 0.22047 5.54455
2590 1 3.68883 0.169227 7.3452
2564 1 5.44556 1.86613 3.80709
3085 1 7.10933 0.111536 7.28325
3585 3 3.50914 1.92674 5.48189
3584 2 7.17032 1.75934 5.54694
586 1 8.9848 2.0013 7.18557
2066 1 10.7302 0.00458846 3.81831
2593 2 9.00091 0.0844824 5.76297
2565 2 8.98826 1.76877 3.68467
3086 2 10.854 0.0794743 7.25714
3586 3 10.9116 1.88906 5.37179
23 2 12.5295 1.80047 7.14997
24 2 14.4378 0.0458242 7.09618
25 2 14.3037 1.95597 5.34463
2568 3 14.3764 0.0257811 3.60372
2567 1 12.6707 1.98578 3.77361
3087 3 12.6685 0.131209 5.45284
568 3 18.022 0.038465 3.58535
588 3 16.1289 1.85235 7.1877
1587 1 17.7408 0.0147664 7.18355
3088 3 16.0858 0.227861 5.41635
3588 3 17.9082 1.86265 5.43312
3564 3 16.1761 1.93941 3.52545
27 2 1.8868 5.34216 7.34338
28 2 1.96488 7.29166 5.45882
589 3 0.112892 5.53073 5.38405
2067 3 0.182475 3.70372 3.67432
3090 1 1.90599 3.82293 5.54089
3590 3 0.065296 7.23135 7.27725
3589 3 0.0904365 3.70177 7.38087
3567 1 0.106652 7.39431 3.78926
3566 2 1.99235 5.63046 3.69299
29 3 3.77288 3.60487 7.15984
593 2 3.56185 7.35607 7.27769
592 2 7.2679 5.35106 5.60068
591 2 7.30158 7.24838 7.22546
590 3 3.78578 5.56111 5.49315
1095 1 5.42057 5.57813 7.12124
1094 1 5.49695 7.29439 5.44078
1073 2 3.77445 7.26817 3.86222
2068 3 7.27103 7.28502 3.58058
2069 3 3.61649 3.72953 3.74495
3593 1 5.42337 3.5685 5.51934
3592 1 7.16723 3.69477 7.05458
3570 2 5.62496 5.51997 3.8163
3568 3 7.06934 3.54836 3.5959
31 1 9.08886 3.5178 5.29012
569 3 10.7359 7.15284 3.76918
594 1 10.63 5.32227 5.35826
1097 3 9.13525 5.29598 7.07164
1590 3 9.0239 7.03316 5.38142
1589 1 10.6367 7.18515 7.1742
3594 3 10.8619 3.69146 7.32739
3572 1 10.6516 3.68675 3.52207
3571 1 8.90536 5.4171 3.59658
33 1 12.7018 3.6499 5.4966
35 1 14.3992 3.54913 7.34958
571 3 12.475 5.32109 3.71298
595 2 14.2268 7.06764 7.14033
1100 1 14.3498 5.39309 5.51716
1099 3 12.4837 5.43466 7.20702
1592 3 12.5086 7.11812 5.40849
1572 2 14.2147 7.11481 3.67048
3069 2 14.261 3.80489 3.69887
573 3 16.1181 5.45468 3.734
1080 3 17.9295 3.70465 3.5432
1595 3 16.0785 7.16017 5.41244
1594 2 16.0407 5.40767 7.19324
2094 2 17.8823 7.24376 7.18472
2092 3 17.7748 3.73112 7.1349
2571 3 17.8826 7.18862 3.55813
3092 2 17.9245 5.35421 5.42674
3595 2 15.9499 3.69926 5.51192
13 1 0.0539103 10.7368 3.76546
597 3 0.112733 10.7533 7.39012
596 3 1.72478 10.7972 5.54422
574 3 1.90453 9.08642 3.59829
1102 3 1.89697 9.10484 7.26727
1101 1 0.0933508 9.0047 5.35137
38 1 3.57399 10.7413 7.20605
578 3 3.62341 10.7039 3.61369
577 3 5.56737 9.15253 3.60687
1106 2 7.3179 10.8588 7.49819
1104 3 5.5905 10.6723 5.38537
1103 1 3.70402 8.98569 5.3826
1084 3 7.37291 10.8274 3.74905
1597 2 7.28351 8.99718 5.47407
1596 3 5.4331 8.9398 7.31455
39 2 10.92 10.5858 7.19598
599 1 9.05889 10.8919 5.60224
579 3 10.6954 10.7718 3.79493
1107 2 8.95171 8.94841 7.19771
1578 3 9.06513 8.8851 3.82518
2097 1 10.7536 8.97324 5.44578
1108 3 12.5093 10.7042 5.47541
1598 2 12.5183 8.76583 7.07507
1579 2 12.4613 8.72748 3.64635
2072 1 14.3427 10.6909 3.70922
2099 3 14.2645 10.5616 7.16899
2098 1 14.3169 8.77178 5.67188
1599 1 16.2001 8.90047 7.11166
1580 1 16.0233 9.05013 3.74395
2100 3 16.0885 10.6249 5.46591
3093 3 17.9683 10.5758 7.09738
3597 2 17.832 8.93951 5.33116
3573 1 17.7353 10.7373 3.69053
1110 3 0.102218 14.1627 7.22686
1582 3 1.74622 12.4268 3.69861
2103 3 1.81586 12.4211 7.13621
2102 3 2.00774 14.2759 5.42547
2101 2 0.113219 12.5786 5.50081
2573 3 0.173094 14.236 3.63399
1112 1 7.07614 14.2175 7.14065
1600 3 5.48835 12.4145 7.1382
2104 1 5.35866 14.2398 5.46718
2083 2 3.59655 14.2285 3.54331
2601 3 7.25691 12.5089 5.50182
2600 2 3.64007 12.4218 5.39447
2599 3 3.59227 14.2052 7.18314
2577 1 7.13465 14.2504 3.79619
2574 2 5.41155 12.4876 3.70346
2604 1 9.10489 14.1258 5.47054
2603 3 10.8754 14.3495 7.28867
2602 2 10.7972 12.4764 5.63705
2578 3 9.05116 12.6697 3.80524
3097 1 9.14089 12.3695 7.36934
3072 2 10.8352 14.241 3.97279
602 3 14.4822 14.4024 7.17474
1603 3 12.5718 12.4847 7.28664
2605 3 14.3828 12.5511 5.50344
2581 1 12.6808 12.5854 3.64029
3098 3 12.6693 14.1641 5.55368
3575 3 14.2366 14.4538 3.69388
1114 3 17.8836 12.6099 5.42314
1584 2 17.9138 14.3624 3.68349
2582 2 16.0603 12.559 3.70937
3100 1 16.0712 14.1884 5.46004
3099 1 16.1485 12.5875 7.12822
3599 3 17.7755 14.3906 7.14772
582 2 0.229779 17.8044 3.70066
1605 1 1.95685 18.0034 5.39717
1604 2 1.902 16.1565 7.19695
3104 3 0.0523306 16.0185 5.44836
3103 3 0.0887844 17.8192 7.17082
3576 2 2.00839 16.2183 3.60676
2087 3 3.67754 17.9297 3.65431
2607 1 5.48764 17.9499 5.428
2586 2 7.25212 17.7186 3.75522
3107 3 7.13474 17.8758 7.23801
3106 3 5.50641 16.1585 7.13451
3105 3 3.66357 17.8984 7.09765
3602 3 3.63261 16.0765 5.4689
3601 2 7.15316 15.9905 5.34156
3577 3 5.31698 16.152 3.67387
1091 3 10.5874 17.9387 3.68861
2107 1 8.99075 15.8824 7.16725
2608 3 9.00853 17.8495 5.55771
3109 3 10.7429 17.9163 7.3334
3603 1 11.0592 16.1602 5.58656
3579 3 9.04721 16.032 3.7857
41 1 14.3234 16.1256 5.35994
2610 1 12.4785 18.0706 5.53424
2609 2 14.3069 17.8874 7.13113
2587 3 14.3572 17.8878 3.70921
3604 2 12.6247 16.1711 7.23619
3580 2 12.5068 16.0295 3.68865
583 3 16.0716 16.1412 3.86582
1606 2 17.9123 17.8867 7.18846
2109 1 16.1388 16.0871 7.25156
3112 2 16.0212 17.8405 5.46037
3110 3 17.8853 15.9821 5.53828
3582 3 17.8821 17.6841 3.67396
21 2 0.159991 1.99152 8.95667
604 1 0.103707 0.08078 10.6984
2110 3 1.93954 1.81907 10.7582
2589 3 1.93811 0.0447979 9.00813
585 1 7.2182 1.95731 8.99254
1092 1 5.46241 -0.00066538 8.97223
1608 2 7.41091 0.224799 10.7175
1607 2 3.71573 0.181784 10.7778
2111 2 5.4208 1.96304 10.8226
2591 2 3.58647 1.89848 9.01046
1116 3 10.628 0.307847 10.629
2612 3 8.96719 1.99089 10.915
2592 1 10.9273 1.92981 9.00292
3587 1 8.92837 0.237847 8.87647
587 3 14.2658 1.82117 8.95067
1609 3 14.36 0.0392656 10.7432
2090 3 12.5207 0.280445 8.9945
2613 3 12.6417 1.90015 10.7033
26 2 16.0262 0.0932945 8.95709
2594 3 17.8081 1.78385 8.98184
3116 3 15.9439 1.90607 10.7886
3115 2 17.8116 0.103 10.7736
1093 2 1.88687 7.21138 9.06051
2091 2 2.03599 3.67271 9.07329
2615 1 0.20536 3.56978 10.7928
3118 2 0.14838 7.1072 10.8194
3117 1 1.90621 5.5195 10.6492
3089 1 0.0272244 5.35994 9.0363
30 1 5.59918 3.72947 9.09535
45 2 7.18818 7.17537 10.8163
1096 2 3.63083 5.48831 8.92358
2112 2 7.19843 3.58379 10.8845
2616 2 3.72921 3.74704 10.8527
3091 1 7.28151 5.49472 8.93412
3608 2 3.65404 7.28092 10.7966
3607 3 5.54654 5.41019 10.903
3591 3 5.47368 7.0782 8.88979
46 2 10.74 7.13963 10.7506
1098 1 10.6524 5.38719 8.99107
1591 3 9.06496 3.5772 8.97063
1588 2 8.93853 7.20303 8.95092
2113 1 10.8957 3.65811 10.7078
3609 1 8.90656 5.4459 10.6881
32 3 12.505 7.05128 8.9672
34 2 12.5242 3.71764 9.05127
36 3 14.363 5.43511 8.92577
609 3 14.3165 7.26925 10.7525
3119 2 14.2267 3.66669 10.6311
3611 1 12.5005 5.37263 10.6995
1120 3 17.7463 3.53479 10.6371
1615 3 17.9579 7.31507 10.8282
1593 3 17.8953 5.5437 8.85527
2093 1 16.2325 7.10887 8.94722
2595 1 16.0287 3.72082 8.95389
3612 3 16.1589 5.44979 10.6748
48 3 1.83806 8.88574 10.8423
2095 3 0.198289 8.87397 9.15246
2596 1 1.83982 10.796 9.00785
3120 2 0.103076 10.7846 10.6574
37 2 3.60182 8.93017 8.97059
49 3 5.39576 8.92948 10.796
612 1 7.11104 10.6873 10.8199
1105 1 5.20519 10.6179 9.03695
2096 3 7.13644 8.92635 9.09582
3121 2 3.81242 10.7642 10.7131
613 1 9.05324 8.75881 10.8618
598 1 10.7516 8.86987 9.10493
3613 3 11.0134 10.8155 10.8283
3596 1 8.85369 10.6868 9.2163
50 1 14.3641 10.6806 10.5028
614 3 12.475 8.93294 10.8936
2598 1 12.5632 10.6101 8.9859
2597 1 14.5073 8.84346 8.95095
51 2 17.8339 10.8023 10.7458
600 2 18.02 8.92094 8.92277
1122 2 16.2956 8.89128 10.6076
1109 3 16.2883 10.7074 8.88082
616 2 0.0181658 14.4006 10.7111
601 1 -0.0163427 12.5424 9.04382
1123 2 1.98891 12.5534 10.7279
3094 3 1.85283 14.6016 9.01995
1124 1 5.31306 12.6137 10.7211
1111 1 5.32855 14.2422 8.95432
1619 1 7.18526 14.3783 10.6803
1618 2 3.63994 14.3181 10.7892
1601 1 7.17365 12.537 8.98106
3095 2 3.66974 12.4819 8.84836
617 1 10.7033 14.3708 10.5612
1125 3 8.83615 12.5927 10.733
3096 3 8.99082 14.3024 9.08027
3598 1 10.7976 12.4513 9.01949
1126 2 14.3999 14.305 10.7086
1113 3 12.5869 14.2339 8.97331
1620 3 12.6762 12.4429 10.6389
1602 2 14.3544 12.411 8.86993
1621 3 15.9654 12.4654 10.9075
3126 2 17.8188 14.2741 10.7266
3102 1 16.0808 14.4386 9.02351
3101 2 17.9262 12.6645 9.08516
1623 2 0.115479 17.707 10.7624
2119 2 2.00651 16.1143 10.8298
2606 3 1.92324 17.8128 8.98155
3600 2 0.0766425 16.208 8.98682
40 2 7.19302 16.1615 8.92045
619 2 3.56688 17.8461 10.6979
1127 2 7.15669 17.8139 10.6905
2120 2 5.344 16.0553 10.7347
2106 1 3.70986 16.1275 8.85431
2105 3 5.34733 17.8634 8.97056
1624 2 10.8818 17.9773 10.7507
2108 2 10.7612 16.0577 9.01918
2625 2 8.85012 15.9351 10.7904
3108 3 9.05628 17.6493 9.06648
603 2 14.3392 16.1453 8.99496
1115 1 12.5724 17.975 8.90808
2626 1 12.6432 16.0408 10.7823
3620 3 14.2245 17.7851 10.6611
2628 1 16.169 16.1171 10.7363
2611 3 18.0368 16.1195 8.95273
3127 2 17.7341 17.8467 10.4959
3111 3 16.143 17.9382 8.85339
42 2 0.123393 1.79065 12.4878
2121 2 0.141801 0.000747574 14.2879
2629 1 1.85456 1.7109 14.4641
3113 1 1.89446 0.167199 12.6096
43 3 3.68779 1.96712 12.6646
605 1 7.16311 1.99652 12.5116
1625 3 7.25303 0.252883 14.3006
2123 2 3.65026 0.127416 14.2896
3128 1 5.32098 2.00409 14.4134
3605 1 5.37882 0.263481 12.439
606 1 10.7909 1.7327 12.6074
1627 1 10.8642 -0.0241024 14.2225
3129 2 9.01105 1.95714 14.1377
3606 2 8.95728 0.0893248 12.5132
1117 3 14.3428 1.9091 12.5772
2632 1 14.2761 0.134029 14.173
3131 1 12.5149 1.8551 14.388
3114 2 12.5389 -0.0264844 12.5194
44 3 16.0871 0.177571 12.5329
501 3 17.8969 0.029215 14.2413
2614 3 17.6881 2.05022 12.5015
3132 3 16.1635 1.87535 14.3372
607 3 1.88865 3.60175 12.5609
1119 2 1.86946 7.13959 12.4958
1118 2 0.109313 5.4737 12.6628
2634 2 0.179597 7.24941 14.2694
2633 1 0.258643 3.54821 14.3654
3624 2 1.97884 5.55098 14.3721
60 1 7.32848 7.23263 14.1942
608 3 5.43551 3.73824 12.5415
1612 1 7.2788 5.52215 12.5169
1611 2 5.4756 7.1688 12.5917
1610 1 3.61478 5.52897 12.5956
2128 3 7.1803 3.73194 14.3219
2126 2 3.5756 3.73583 14.349
3136 3 3.78228 7.16722 14.3773
3626 1 5.3834 5.34934 14.3241
1613 2 10.8467 5.4505 12.3929
2114 3 8.96027 7.19359 12.5715
3137 3 10.7901 3.75139 14.2752
3629 3 9.03332 5.48132 14.2693
3628 2 10.8035 7.16784 14.2007
3610 2 8.97733 3.70753 12.6216
610 2 12.5633 3.52301 12.4422
1614 3 14.2225 5.48778 12.4731
2617 2 12.5182 7.08731 12.6529
3138 3 14.3261 3.5986 14.1563
3631 3 14.3126 7.23614 14.2733
3630 3 12.6031 5.46478 14.4686
47 3 17.9439 5.50223 12.5259
65 2 15.9679 5.50477 14.3679
1138 3 17.8447 3.8416 14.3298
1121 3 16.0375 3.76872 12.4558
2618 1 16.089 7.3155 12.4386
3140 1 17.9006 7.14386 14.4012
67 3 1.85614 8.60247 14.2404
611 3 1.94889 10.6385 12.4634
2115 2 0.00691185 9.02602 12.6008
2636 2 0.160119 10.6691 14.3127
69 1 7.38121 10.7861 14.3862
70 1 5.43314 9.06602 14.3402
1616 1 5.50919 10.6542 12.6986
2116 2 3.66751 8.91402 12.4479
2619 3 7.33945 9.04675 12.5467
3633 3 3.61978 10.6534 14.2857
71 3 9.06006 8.97242 14.3715
2117 1 9.03469 10.9031 12.5867
2620 3 10.771 8.91426 12.4207
3141 3 10.839 10.7642 14.2028
510 1 12.4622 8.91963 14.3242
1617 3 12.7155 10.8202 12.4787
3122 3 14.2873 8.944 12.419
3635 2 14.2178 10.7409 14.1901
511 2 16.0551 8.99935 14.2339
615 3 17.7837 9.03403 12.6141
1639 3 17.7503 10.733 14.2592
2118 1 16.0208 10.7219 12.5385
513 2 0.188963 14.3246 14.3082
514 3 1.91289 12.567 14.1543
2621 3 0.0319767 12.6945 12.4477
3123 1 1.83221 14.5263 12.3843
72 2 7.22703 14.2496 14.2301
515 1 5.52849 12.5352 14.1644
516 1 3.69561 14.5475 14.283
3125 1 7.18153 12.6161 12.5333
3124 3 3.80783 12.5751 12.4811
3614 1 5.38351 14.449 12.3747
73 2 10.7847 14.2398 14.2336
1145 1 9.04965 12.5482 14.2144
3616 1 10.8571 12.5304 12.3278
3615 3 8.96792 14.3332 12.4838
1147 3 12.5335 12.493 14.2749
1146 2 14.2745 14.4314 14.233
2622 2 12.5314 14.3379 12.4102
3617 1 14.336 12.7024 12.6769
1149 1 15.9831 12.4964 14.1844
1622 1 17.8887 12.5423 12.5303
3146 3 17.6536 14.3246 14.2608
3618 2 16.1566 14.3513 12.3916
52 2 0.157007 16.0766 12.5614
518 2 0.165498 17.9222 14.2167
1150 3 1.91193 16.1487 14.3222
2623 2 1.87796 17.6801 12.6634
53 2 3.68138 16.1539 12.4597
618 3 7.16363 16.1493 12.5933
1151 1 3.69154 17.6446 14.2803
1642 1 5.41527 15.9008 14.4231
2142 3 7.31008 17.8801 14.1297
2624 1 5.65781 17.8803 12.3471
54 2 10.8822 16.1734 12.438
1643 2 8.97965 15.9591 14.2424
2649 3 10.7439 17.8094 14.347
3619 1 9.01078 17.9064 12.4033
55 2 12.6159 18.0434 12.5733
620 3 14.3564 16.1271 12.4722
1646 1 12.5514 16.1564 14.3298
1644 2 14.4433 17.968 14.1605
56 2 16.1142 17.9484 12.2515
1647 3 16.1587 16.2062 14.3178
2627 3 17.8688 16.151 12.3103
3644 1 17.8108 17.9129 14.3444
57 2 1.83044 0.0722164 16.0421
621 1 0.0619567 2.01042 16.3241
1128 3 -0.0213793 0.127747 18.0141
2122 1 1.73263 1.90391 17.7102
58 1 5.4612 0.117715 15.9432
1132 3 7.17019 0.00475489 17.8368
1131 3 7.26867 1.92196 16.0132
1130 3 3.66444 0.143095 17.7737
1129 1 3.52065 1.89132 16.0953
2630 2 5.49366 1.8983 17.7614
1133 3 10.9659 1.84367 16.0529
1626 1 10.6356 0.15065 17.8504
2631 2 9.03265 2.00847 17.9586
3621 3 8.98392 0.249255 16.0721
59 2 12.5191 -0.0415778 16.0601
1134 3 14.2677 1.96116 16.0457
2124 3 14.2335 0.0510048 17.934
3130 3 12.6702 1.80502 18.0189
502 1 15.9707 0.00928612 16.0828
3133 2 16.0119 1.83038 17.7826
3623 2 17.9029 0.215095 17.8277
3622 2 17.9429 2.03538 15.906
503 1 2.01959 3.81172 16.1043
504 2 1.94749 7.08945 16.2346
1628 1 0.046423 5.40715 15.8957
2125 3 0.214001 3.86381 17.8735
3134 1 0.0690583 7.2633 18.0096
3625 1 1.9713 5.437 17.9146
61 2 5.46793 3.76269 16.0774
505 1 3.56936 7.30364 17.9001
1135 3 7.05711 7.2722 17.9319
1631 3 5.58479 7.2025 16.1125
1630 2 3.69637 5.48066 16.0955
1629 2 7.34523 5.49003 16.1601
2127 2 3.77602 3.71417 17.8681
3135 2 7.1865 3.70001 17.7787
3627 3 5.39711 5.39291 17.9886
62 2 8.94491 5.58628 17.8516
63 1 10.7421 7.17577 17.9089
506 3 9.00588 3.73246 16.1643
1632 3 10.8253 5.54932 16.1307
2129 2 9.03705 7.23881 15.9492
2635 1 10.9726 3.65748 17.797
64 3 12.5459 5.43169 17.7609
1137 3 14.2566 7.22054 17.8181
1136 3 12.7162 3.68019 15.9106
2131 1 14.4214 5.26428 16.0605
2130 1 12.5589 7.32653 16.1121
3139 3 14.2562 3.6995 17.9258
66 3 17.682 5.37454 16.2355
507 1 16.0289 5.36548 18.0053
1140 1 17.8127 3.42672 17.8162
1139 1 16.0959 3.46692 15.9729
1634 2 17.7846 7.31771 17.8411
1633 2 16.1763 7.11504 16.2002
508 2 1.85436 8.84983 17.9039
1141 2 1.95525 10.581 16.0266
2132 1 0.276969 9.01918 16.0182
3632 1 0.187389 10.7961 17.8703
68 3 3.60427 10.9051 17.8838
509 3 7.33365 10.7333 17.872
1142 1 5.35374 9.06478 17.8602
1635 2 5.4413 10.7368 16.1029
2134 2 7.23996 9.09011 15.9985
2133 3 3.75701 9.02713 16.2201
1143 1 8.93047 8.87932 17.8468
1636 2 9.09326 10.8042 16.0517
2637 2 10.8165 8.79835 16.1749
3634 2 10.6878 10.7989 18.0294
1144 1 12.3979 10.8157 16.2265
1638 2 12.5641 8.99467 17.7907
1637 2 14.2714 10.7802 17.8092
2638 3 14.2419 9.01324 16.0175
512 2 17.7963 8.98999 15.9833
1640 3 15.9782 8.97371 17.7885
2135 3 16.0669 10.7593 16.05
2639 3 17.8089 10.7061 17.6047
2137 2 0.0805555 14.3715 17.8901
2136 3 1.77393 12.5862 17.9137
2641 3 1.85909 14.2257 16.1097
2640 1 0.170244 12.4943 16.0309
2140 1 7.29282 14.3996 17.9714
2139 3 3.54271 14.3372 17.7764
2138 2 5.41695 12.5631 17.7766
2643 1 5.47135 14.2563 16.0595
2642 3 3.61779 12.5537 15.8927
3142 2 7.29281 12.4979 16.0722
2141 1 8.95967 14.2807 16.1804
2645 1 9.20968 12.3917 17.8335
2644 1 10.7763 14.2493 17.9236
3143 2 10.7656 12.524 16.0495
2647 1 12.5415 14.1837 16.1224
2646 2 12.6093 12.4939 17.7207
3145 3 14.2006 14.3393 17.8483
3144 3 14.3246 12.5476 15.9641
517 3 17.7591 14.2414 17.9225
1148 3 17.7456 12.548 15.9889
3148 2 16.1509 14.417 16.0398
3147 3 16.1419 12.5503 17.9705
2648 2 1.85136 17.846 16.1725
3150 1 1.77128 16.1401 17.9297
3149 1 0.026572 15.9883 16.0206
3636 1 -0.0314629 17.8396 17.8768
1641 2 3.71278 17.8701 17.7829
2143 1 7.19756 17.7574 17.9383
3640 3 5.54945 17.7496 16.0681
3639 3 7.24956 16.0552 16.1231
3638 2 5.464 16.0405 17.85
3637 1 3.55603 16.0359 16.3237
74 3 8.98635 17.7343 16.0798
519 3 10.8635 17.7597 17.8493
3642 1 9.03462 16.2067 18.0108
3641 1 10.6869 15.8828 15.9979
75 2 12.5671 16.0985 17.7184
76 1 12.5005 17.8845 16.1125
1645 2 14.2512 17.8668 17.817
3643 3 14.3036 16.0818 16.1058
77 1 15.9655 16.0791 17.846
2144 2 17.921 16.0422 16.0598
2650 2 17.8147 17.9108 17.8764
3645 1 16.0699 17.9934 16.0464
520 1 0.0369707 0.275621 21.2762
78 3 0.0688987 2.06637 19.6886
2145 1 1.87691 2.10075 21.5324
3151 3 1.92702 0.287408 19.5376
521 3 3.80049 0.0401432 21.4949
80 1 3.60329 1.88661 19.6024
79 3 7.14026 1.64109 19.629
2147 3 5.48777 1.82398 21.2611
2146 3 7.25438 0.0624453 21.4109
2651 2 5.46023 0.0365511 19.6036
81 1 10.8746 1.90669 19.7326
1648 1 10.7557 0.172251 21.58
2652 2 8.97396 1.87328 21.3426
3152 2 9.21588 0.177147 19.7281
522 1 14.2429 1.99216 19.6551
1649 2 14.3999 0.200831 21.5565
2653 1 12.6511 1.97058 21.6267
3646 1 12.4977 0.185567 19.7661
82 2 17.8306 0.103702 21.4108
2654 2 17.9742 1.84672 19.5533
3153 3 16.2091 1.94858 21.5444
3647 2 16.0403 -0.0767004 19.8031
523 1 -0.0324836 5.57503 19.7913
84 1 2.17567 6.98975 19.7394
83 2 0.0378397 7.16342 21.3749
1650 3 -0.0562078 3.72687 21.5166
3155 2 2.02573 5.4221 21.4106
3154 1 1.87607 3.76647 19.6991
524 1 3.8563 5.42151 19.6417
525 1 7.33017 5.46841 19.5729
526 2 3.78228 7.40357 21.3179
1153 2 7.24911 7.36571 21.5553
1152 3 5.43909 7.19145 19.6159
2655 2 3.69903 3.59008 21.2887
3156 2 7.27938 3.74244 21.4812
3649 3 5.76226 3.60562 19.5688
3648 1 5.42349 5.44891 21.6189
86 2 10.7036 7.27666 21.364
85 1 9.04196 3.70412 19.4232
1155 1 10.5473 5.56346 19.7923
1154 2 8.94311 7.22474 19.6051
2656 3 10.709 3.63699 21.4096
3650 3 8.89843 5.51008 21.3484
527 2 12.549 7.39677 19.6888
88 3 12.4998 5.49581 21.4002
87 1 12.4901 3.62057 19.5995
1156 1 14.2668 5.54494 19.6378
2148 3 14.2652 7.12322 21.4252
2657 2 14.2094 3.789 21.2634
528 2 17.8853 3.70632 21.4651
89 3 15.9172 5.51374 21.3921
1157 1 16.0391 7.2789 19.5459
3158 1 17.7877 5.56664 19.6415
3157 2 17.7908 7.08018 21.4426
3651 1 16.1561 3.77442 19.633
529 3 1.7375 8.93648 21.4196
530 1 1.91747 10.7347 19.7545
1158 3 0.0325902 9.07341 19.574
3652 3 0.0547031 10.8152 21.3771
531 1 5.42163 9.0172 21.3879
532 1 5.4164 10.6238 19.6029
533 3 7.31869 10.8343 21.5879
1159 3 3.72368 9.03345 19.77
1651 2 7.27804 9.01168 19.5937
3653 3 3.69041 10.7182 21.4494
90 3 8.89504 10.5737 19.7266
1161 3 9.02526 9.0029 21.4079
1160 1 10.9222 10.7023 21.5824
1652 1 10.8787 8.97866 19.5438
534 3 12.6035 10.7978 19.6478
1162 2 12.5496 8.98612 21.3962
1654 2 14.4394 10.7189 21.3471
1653 1 14.31 9.01978 19.5556
1656 3 16.0779 10.8021 19.4711
1655 2 16.2803 9.07939 21.2848
3159 1 17.9917 10.7769 21.3364
3654 3 17.9902 9.02413 19.4197
1660 2 0.150715 14.2977 21.4167
1659 2 1.91667 14.3513 19.6043
1658 1 1.97207 12.5214 21.5255
1657 3 -0.0169233 12.5323 19.596
1163 2 5.573 14.2503 19.5839
1661 3 3.70539 14.2164 21.323
2151 3 7.25021 12.4471 19.4853
2150 1 5.46685 12.4754 21.4029
2149 2 3.73477 12.4025 19.7397
3160 1 7.20078 14.0371 21.3445
1662 1 8.93642 14.3322 19.6136
2153 3 9.09809 12.5483 21.3641
2152 1 10.8747 12.5698 19.7869
2658 3 10.7467 14.5459 21.4499
2155 2 14.3391 12.4401 19.5048
2154 1 12.7379 14.3566 19.607
2660 2 14.3941 14.3831 21.5344
2659 1 12.6299 12.5981 21.3024
535 1 17.9207 12.4806 19.6157
1164 1 17.8255 14.2014 21.3347
2156 3 16.0751 14.2633 19.791
2661 3 16.0044 12.637 21.4614
1165 2 0.217926 17.8107 21.4743
2157 1 1.91331 17.903 19.4093
2662 2 0.159271 16.1578 19.6341
3161 1 2.14944 15.9723 21.1855
1664 3 7.29725 17.9402 21.4562
1663 3 3.56633 17.9795 21.2845
2664 2 3.87673 15.9363 19.5266
2663 3 7.28475 16.0379 19.7104
3163 1 5.53004 16.2215 21.2567
3162 3 5.29973 18.035 19.6678
536 2 10.6806 17.6546 21.4592
2665 2 10.7217 15.9063 19.6783
3164 2 8.91753 17.9272 19.6642
3655 1 8.98233 16.0813 21.3595
2666 3 12.6462 17.8339 19.6026
3166 1 14.3922 16.1784 19.6917
3165 2 14.2867 17.8573 21.4914
3656 2 12.6439 16.092 21.3522
92 3 16.161 16.1425 21.4025
91 3 17.8953 17.9914 21.3656
1166 3 17.8521 16.2042 19.6504
3167 2 16.1255 17.8568 19.6694
93 3 1.98548 1.81811 24.8557
1665 3 1.98649 0.124726 23.1741
2667 3 0.176156 0.212506 24.8932
3168 1 0.18988 1.90622 23.167
2158 1 5.5368 0.0866094 23.1359
2670 2 3.65995 0.264595 24.736
3170 3 7.26562 1.91689 23.2341
3169 1 3.63771 1.90623 23.1185
3659 1 7.11059 0.0423336 25.0374
3658 3 5.50195 1.86512 24.8819
537 1 9.07586 2.03917 24.9141
2671 3 8.98116 0.192543 23.3307
3171 2 10.7905 0.00751348 24.9743
3660 1 10.7761 1.96504 23.2286
2673 2 12.5727 0.169449 23.1279
3663 2 14.2948 1.70179 23.1699
3662 1 14.3497 0.187409 25.1621
3661 3 12.4211 1.80205 24.9607
539 2 15.9442 2.05072 24.9327
1167 1 17.7634 0.20781 25.0749
1668 1 17.8601 1.96571 23.2082
2160 1 16.2747 0.204564 23.1843
99 2 1.86039 5.50215 24.9806
98 3 1.74691 7.21126 23.2522
97 3 -0.0696054 7.23511 24.9828
96 1 -0.104401 5.48074 23.2673
3173 2 1.90399 3.58625 23.2029
3172 2 0.18541 3.61321 24.855
540 3 3.72647 7.16486 24.8931
541 2 5.45204 7.24663 23.2352
542 2 7.04353 5.45963 23.2615
543 1 5.44159 5.39117 24.9272
101 2 7.14214 7.31237 25.0238
100 1 3.53654 5.47842 23.1414
2675 2 7.21581 3.69411 24.9449
3175 1 3.73928 3.5242 24.9497
3665 1 5.27741 3.68769 23.0272
546 3 8.9967 7.42546 23.2814
547 3 8.98005 5.62847 25.0976
102 2 10.6961 5.56283 23.1607
1170 3 10.7304 7.32014 24.9036
3177 1 10.6871 3.83231 24.9475
3666 3 9.07188 3.68159 23.0653
548 2 14.2713 5.50678 23.1376
549 3 12.5346 5.61807 25.1684
105 2 14.0809 3.66204 24.9198
1670 1 12.5087 7.28505 23.1908
3179 2 12.5257 3.8561 23.1222
3667 3 14.5623 7.28461 24.8913
1172 1 15.9726 5.31562 24.6944
1672 2 17.8221 3.58482 24.9365
1671 3 16.1967 7.31257 23.1839
2678 2 17.7722 7.37038 24.8864
2677 1 17.8934 5.46264 23.0988
3668 3 16.0518 3.6945 22.9447
550 3 0.0956995 9.05946 23.116
106 3 1.9653 10.4889 23.2543
1175 3 1.93967 8.75604 24.971
3669 3 0.0229841 10.8026 24.9482
108 3 5.60061 10.7343 23.3125
1180 3 7.29137 10.8436 25.0035
1178 3 7.29432 9.0451 23.4361
1177 2 3.64566 8.96939 23.2686
1176 1 5.45059 8.81992 25.0064
3670 2 3.80104 10.7278 24.8945
551 1 10.8382 10.8524 24.8803
552 1 9.0445 10.7684 23.2416
1181 1 9.11152 8.96729 25.1287
1674 3 10.914 9.09846 23.3911
1182 2 12.532 10.7814 23.1891
1676 2 12.6997 9.01633 25.0804
1675 2 14.3385 9.15637 22.9752
2163 3 14.3791 10.8144 24.8925
1183 2 16.0146 9.07783 24.9623
1677 3 16.0693 10.7958 23.1113
2165 2 18.0244 10.6048 25.0231
3671 2 17.9491 9.03954 23.1154
555 1 -0.105829 14.3632 25.0425
1184 1 1.91634 14.3926 23.3085
1678 1 1.71209 12.5435 24.8242
2166 2 0.137765 12.664 23.2204
113 3 7.18702 14.4037 24.972
1185 2 5.45249 12.6961 24.8785
2170 2 5.40386 14.3617 23.0403
2169 1 3.51891 12.5491 23.3957
2168 2 3.86424 14.3981 25.0207
2167 2 7.26337 12.7089 23.1957
1680 1 10.8333 14.3995 24.9542
2171 1 10.9371 12.7398 23.1186
2682 1 8.96676 14.4424 23.081
2681 2 9.1462 12.8163 24.8439
114 1 14.2945 14.1601 24.9822
1681 1 12.619 12.5304 24.8834
2684 1 14.3623 12.4168 23.1535
2683 2 12.5865 14.4009 23.1813
557 3 17.8156 12.5514 23.247
2173 2 16.178 14.3317 23.0734
2685 3 16.2344 12.4465 25.0753
3183 3 17.7643 14.3091 24.9026
1684 1 1.83608 16.1299 24.9611
1683 2 1.88462 17.8231 23.1959
2688 2 0.21938 16.0035 23.0437
2687 2 0.172461 17.8903 24.8679
2175 3 7.18728 17.9179 24.9438
2174 1 5.36358 17.8734 23.041
2689 3 3.54758 17.8699 24.8467
3187 3 5.67472 16.1883 24.9837
3186 3 7.21484 16.0476 23.1413
3185 3 3.83219 16.0327 23.1551
1687 1 8.9346 17.8867 23.2095
1686 2 8.73276 16.2985 25.0654
2177 3 10.8719 17.7137 25.1181
3675 1 10.9747 16.0912 23.3241
2178 1 14.3496 17.8785 24.9165
2690 2 12.5143 17.659 23.1754
3188 3 12.6018 16.0786 25.0055
3676 2 14.3831 16.0493 23.1918
1187 1 17.8925 16.0451 23.1517
1186 3 17.7939 17.7718 24.9265
1689 3 16.0706 15.9714 24.971
3189 1 16.1158 17.7904 23.042
1188 2 0.0769671 -0.0663827 28.4953
2180 1 2.21428 1.91495 28.5808
2668 3 1.96789 0.237871 26.6151
3657 2 0.154474 1.93664 26.8677
559 2 7.2638 0.137689 28.4746
94 3 7.28044 1.92641 26.7739
1189 2 3.60772 0.188322 28.6326
1666 1 5.32422 0.161708 26.9527
2181 2 5.42777 1.98214 28.6233
2669 1 3.76495 1.78462 26.6174
560 3 10.7573 0.119181 28.4005
95 3 9.03657 -0.014174 26.7789
2182 1 8.95451 2.09148 28.3909
2672 2 10.6798 2.10092 26.6652
538 1 14.1486 1.96736 26.7643
1667 1 12.4624 0.0778053 26.7837
2184 2 12.3954 2.05926 28.5167
2183 3 14.2605 0.0671141 28.5011
2159 3 17.6682 1.96563 26.7773
3193 2 15.9496 1.99911 28.563
3679 2 17.7703 0.0310357 28.4467
3664 1 16.0905 0.126072 26.732
1168 3 1.90636 3.72754 26.7644
1669 3 1.90297 7.36323 26.6949
2186 1 0.121089 7.17707 28.4479
2185 1 0.0747302 3.5127 28.5141
2674 1 0.135177 5.45506 26.7967
3194 1 1.9501 5.42075 28.5456
544 1 3.68423 5.41409 26.845
563 2 7.23491 7.23436 28.4535
1691 2 7.23189 3.67309 28.4517
1690 2 3.6151 3.71115 28.6452
2676 3 7.14385 5.47943 26.6246
3196 2 3.51324 7.16046 28.4438
3195 3 5.4455 5.44874 28.4667
3176 3 5.45681 3.77119 26.8667
3174 3 5.34319 7.22085 26.95
545 3 10.7908 5.29845 26.8554
1171 2 8.96899 3.86022 26.8048
1169 1 8.99779 7.09989 26.8387
2694 2 10.7987 3.64043 28.6559
3197 2 9.01286 5.47393 28.5089
3681 3 10.7032 7.10725 28.4158
104 1 12.7563 3.58513 26.7209
103 1 14.4104 5.43401 26.7181
2695 2 14.4005 3.74926 28.4811
3178 2 12.4915 7.23874 26.7104
3684 1 14.3947 7.44239 28.5924
3683 2 12.6707 5.42305 28.3794
622 2 17.7082 3.68674 28.6455
1004 2 17.9207 7.24327 28.5941
1174 1 16.3134 7.3814 26.7322
1173 1 17.7213 5.52492 26.6407
3180 1 15.8657 3.86023 26.5807
3685 1 16.0307 5.68063 28.7301
1673 2 -0.0236904 8.96474 26.7805
2161 2 1.973 10.7161 26.72
2696 3 0.0909403 10.7716 28.4487
3687 3 1.95113 8.94798 28.7082
122 2 7.3064 10.7928 28.6042