ITEM: TIMESTEP
5000
ITEM: NUMBER OF ATOMS
4000
ITEM: BOX BOUNDS pp pp pp
1.5427674714395323e-02 3.5718632325285753e+01
1.5427674714395323e-02 3.5718632325285753e+01
1.5427674714395323e-02 3.5718632325285753e+01
ITEM: ATOMS id type x y z
1 1 0.0021618 1.82768 1.66879
1563 3 0.138419 -0.0327457 0.203285
2064 2 1.95429 1.90937 0.0179041
3561 2 1.91142 0.162971 1.92742
564 1 3.59415 1.91636 1.68238
565 3 7.28673 1.62641 1.90125
1565 3 7.03125 -0.034665 0.141689
2065 1 3.83463 0.0316107 -0.0915489
3061 1 5.48745 1.88399 0.256102
3562 3 5.27152 0.111654 1.90048
566 2 10.5923 1.82304 1.92495
1070 1 10.8107 0.040559 -0.236389
3063 1 9.11981 -0.0369085 1.83956
3062 1 9.0595 1.65918 0.138028
567 2 14.3544 1.7316 1.69708
2566 1 14.1653 -0.379501 -0.0559604
3064 3 12.6277 1.68919 -0.121808
3563 1 12.474 0.0500073 1.75777
2 1 17.7739 -0.124842 -0.0195544
3 3 16.1862 0.0393397 1.51782
3066 2 17.8628 1.99746 1.89744
3065 1 16.0816 1.96616 -0.113836
4 1 1.88128 5.8417 -0.0914235
5 3 1.70005 3.96745 1.80125
6 1 1.95129 7.09654 1.97448
1071 1 -0.265138 5.64271 2.05172
3067 1 -0.237981 3.77259 0.0706009
3565 2 -0.209965 7.19319 0.0501877
7 2 5.46737 5.36203 0.145106
8 1 3.69632 7.11193 0.0923048
1072 2 7.2865 5.40973 1.86189
1075 1 5.56098 7.22124 1.92895
1074 3 3.76013 5.4697 2.09138
1567 1 7.5664 7.09518 0.0746188
2570 2 7.24135 3.55519 0.235226
2569 1 3.54367 3.76024 0.0672623
3569 1 5.38798 3.66768 1.87375
9 2 8.93179 5.12232 0.209137
10 1 8.95431 3.57055 1.84266
1077 1 10.6692 7.06355 0.0755667
1076 2 11.0138 5.20459 1.8633
1568 3 9.23959 7.03599 1.80304
3068 2 10.8283 3.61594 0.0189956
11 1 12.4825 5.45557 0.0879721
12 1 14.4452 3.54797 0.0974472
570 1 12.433 3.37573 1.7995
1571 3 14.1723 7.25243 -0.193761
1570 1 14.0567 5.33429 1.8537
1569 2 12.556 7.26838 1.61716
572 2 15.8907 3.68759 1.85371
1081 1 15.9374 7.12295 1.46729
1079 3 17.5782 5.41801 1.7722
1078 2 15.8411 5.21227 -0.148814
1573 3 17.9215 3.69385 -0.211046
2070 1 17.7391 7.30558 0.0174102
575 3 1.92829 10.8387 1.75381
1082 3 1.67415 8.63547 0.113902
1574 3 -0.0486551 8.95553 1.7971
3070 2 0.0848964 10.8321 0.100894
576 1 3.88047 10.5769 0.211666
1085 3 5.70356 8.81734 -0.0243329
1083 2 5.75283 10.4755 1.62956
1577 3 7.32271 10.8643 -0.103755
1576 2 7.41197 8.89581 1.69369
1575 2 3.60433 8.83805 1.53377
14 3 10.7683 10.9106 -0.16434
1087 1 8.74808 10.8685 1.65639
1086 2 9.18667 8.86318 0.00520452
2071 2 10.6731 8.98252 1.86587
580 3 12.3843 10.7394 1.75043
1088 1 14.2273 10.5172 -0.0393561
2073 1 12.3009 8.96746 -0.183871
2074 2 14.46 9.01911 1.53881
15 2 18.111 8.52453 1.92119
1581 1 15.8927 10.6347 1.91872
2076 2 17.8227 10.6087 0.0477617
2075 3 16.2113 9.14245 -0.100171
2079 2 1.73224 12.462 -0.058846
2078 2 1.95984 14.1399 1.77039
2077 2 0.00324995 12.4123 1.96236
2572 1 -0.136038 14.3616 -0.011975
2082 3 5.38256 14.2882 1.85475
2081 3 3.68541 12.3685 1.91375
2080 1 5.57068 12.5626 0.0404864
2576 2 7.37421 14.3908 0.0172948
2575 3 7.25505 12.689 1.81192
3071 1 3.822 14.1734 0.0589921
1583 1 9.08889 14.3721 1.5585
2084 3 10.7967 14.4286 -0.0866265
2579 2 10.6179 12.3203 1.77297
3073 1 9.05753 12.6025 -0.0997263
2085 2 12.4423 14.3173 1.87914
2580 3 14.2537 12.456 1.9047
3074 1 12.6215 12.552 -0.110241
3574 1 14.2627 14.2933 -0.078679
581 2 17.7942 12.3988 1.83229
1089 1 17.6058 14.4792 -0.0963438
2583 2 15.9486 14.2213 1.60458
3075 2 15.9579 12.4765 -0.0630981
16 3 -0.13477 17.7548 -0.0359577
2086 1 1.96779 17.928 2.05799
2584 2 0.033594 15.9223 1.72769
3076 3 1.7925 15.9317 0.114251
17 3 5.42259 16.0582 0.0277509
1090 3 3.47739 17.7808 -0.190536
2585 2 7.1299 18.0055 0.120551
3079 3 5.25425 17.9576 1.70155
3078 2 7.23974 15.9678 1.75443
3077 3 3.43896 16.1626 1.80532
18 2 9.21523 16.191 -0.0796346
1585 1 10.7617 17.9726 0.041623
3080 2 10.7687 16.1838 1.82606
3578 3 8.98889 17.6781 1.87091
19 1 12.4551 16.2184 -0.0873393
2088 1 14.6122 17.911 0.0579436
3081 2 14.1373 15.9529 1.73179
3581 1 12.4194 17.821 1.93419
20 2 15.9888 16.0574 0.0178294
1586 3 17.6456 16.0438 1.72631
3083 2 15.8806 17.7793 1.84723
3082 3 17.5943 17.7602 0.0255739
584 3 1.90414 1.82778 7.18433
1564 1 0.0270802 0.0507964 3.3283
2588 3 1.9378 0.0980524 5.15527
2563 1 1.65867 2.0091 3.601
3084 2 0.194651 0.0484984 7.26059
3583 1 0.17025 1.91471 5.28061
22 1 5.49885 2.11803 7.30871
1069 3 3.70735 0.0902232 3.44816
1566 3 7.24108 -0.0381201 3.74559
2089 3 5.42672 0.123481 5.45091
2590 2 3.63729 0.230572 6.96705
2564 3 5.44044 1.93229 3.63014
3085 1 7.19292 0.207292 7.18212
3585 3 3.5446 1.91339 5.45625
3584 2 7.19898 1.82995 5.39725
586 2 9.0108 1.9017 7.34155
2066 3 10.8367 0.128829 3.73345
2593 3 8.90211 0.105057 5.48446
2565 1 8.78666 1.7709 3.65733
3086 2 10.7046 0.0675832 7.20566
3586 1 10.459 1.66531 5.44251
23 1 12.5168 1.7589 7.54066
24 1 14.3589 0.00992394 7.42904
25 2 14.3367 1.72051 5.38086
2568 1 14.6577 0.148936 3.72925
2567 1 12.5955 1.98821 3.58707
3087 1 12.7373 -0.0632441 5.56413
568 2 17.8119 0.176779 3.53639
588 3 16.0982 1.83338 7.43862
1587 3 17.9091 0.241545 7.22148
3088 2 16.3199 0.0965315 5.64235
3588 2 17.9394 1.79033 5.36203
3564 1 16.1099 1.90278 3.5068
27 2 1.6955 5.38931 7.1816
28 2 1.85775 7.07867 5.42408
589 2 -0.0445232 5.46886 5.60745
2067 3 0.00115644 3.67177 3.61071
3090 1 1.94387 3.75818 5.56445
3590 3 0.0980426 7.13849 6.98876
3589 2 0.016621 3.76416 7.03625
3567 2 0.316307 7.27146 3.65089
3566 1 2.01856 5.31404 3.6425
29 2 3.69668 3.70175 7.16824
593 2 3.73284 7.02836 7.32204
592 3 7.15158 5.40755 5.46852
591 1 7.23566 7.02675 7.08425
590 3 3.68974 5.43411 5.2976
1095 1 5.45677 5.452 7.10225
1094 3 5.41652 7.15579 5.46917
1073 1 3.78232 7.19084 3.64894
2068 2 7.19133 7.12905 3.63757
2069 3 3.55617 3.60803 3.48524
3593 3 5.32342 3.70816 5.3765
3592 2 7.07461 3.78157 7.42918
3570 3 5.43347 5.41774 3.75137
3568 3 7.1302 3.48225 3.62022
31 3 8.95223 3.56955 5.37246
569 2 10.8747 7.24243 3.51898
594 3 10.6728 5.25147 5.4302
1097 2 8.76428 5.39879 6.94926
1590 1 9.15469 7.15675 5.21418
1589 3 10.7068 7.11047 7.09439
3594 1 10.9573 3.69564 7.27715
3572 2 10.7107 3.40894 3.61335
3571 3 9.18277 5.39971 3.35246
33 1 12.306 3.45453 5.46535
35 1 14.2583 3.6531 7.29691
571 1 12.4768 5.4038 3.31654
595 3 14.3648 7.00937 7.18732
1100 1 14.3667 5.49209 5.23608
1099 2 12.6786 5.3098 6.99336
1592 3 12.483 7.15584 5.24556
1572 3 14.3727 7.25954 3.47859
3069 2 14.5174 3.54758 3.72881
573 3 15.9945 5.40305 3.53082
1080 3 17.8906 3.54755 3.70529
1595 2 15.9133 7.23002 5.43577
1594 2 16.1329 5.46702 7.0122
2094 1 17.9941 7.01652 7.16696
2092 1 17.8871 3.64883 7.01932
2571 3 17.7735 7.06405 3.93038
3092 2 17.8574 5.1383 5.26041
3595 3 16.1155 3.45171 5.44658
13 2 0.0721382 10.4847 3.65487
597 3 0.130852 10.8831 7.44862
596 2 1.86754 10.9256 5.28239
574 1 2.01329 9.12131 3.68003
1102 3 1.78185 8.85582 7.24122
1101 1 0.0925497 8.89366 5.41978
38 1 3.43818 10.74 7.38526
578 2 3.84872 10.7403 3.78392
577 3 5.43162 8.91848 3.49788
1106 3 7.14361 10.7228 7.15283
1104 1 5.29218 10.7078 5.52229
1103 2 3.56428 9.13948 5.6319
1084 3 7.2816 10.5754 3.56904
1597 1 7.09037 8.97551 5.38356
1596 2 5.45436 8.8772 7.13869
39 1 10.7356 10.4684 7.26043
599 2 8.68688 10.6795 5.42946
579 2 10.8181 10.7033 3.55875
1107 2 8.97243 9.02803 7.17442
1578 3 9.17155 8.89978 3.76297
2097 1 10.8463 8.84208 5.51584
1108 1 12.2131 10.6313 5.49867
1598 1 12.4703 8.73648 7.1835
1579 3 12.6642 9.12523 3.38569
2072 1 14.2673 10.7799 3.70424
2099 3 14.2762 10.7766 7.24036
2098 1 14.382 8.93818 5.42344
1599 1 16.1097 9.03693 7.09302
1580 3 16.179 8.894 3.63049
2100 1 16.0082 10.9021 5.14546
3093 3 17.9456 10.8813 7.028
3597 1 17.7159 8.97898 5.27044
3573 2 17.5308 10.7783 3.49507
1110 3 0.0568673 14.2549 7.08164
1582 3 1.82084 12.392 3.66032
2103 2 1.83827 12.5872 7.53773
2102 3 2.0447 14.1442 5.57058
2101 1 -0.0673454 12.4777 5.42678
2573 3 0.104151 14.2708 3.7247
1112 1 7.09128 14.1232 6.97852
1600 3 5.30994 12.3188 7.46101
2104 2 5.56148 14.2981 5.5304
2083 3 3.45053 14.4685 3.63472
2601 1 7.27013 12.4506 5.4306
2600 3 3.78765 12.5501 5.28695
2599 1 3.95593 14.1116 7.40961
2577 3 7.36816 14.4383 3.59209
2574 3 5.72149 12.3956 3.49396
2604 3 9.11665 14.1913 5.55954
2603 1 10.7846 14.0879 7.32255
2602 1 10.6888 12.5559 5.56899
2578 2 9.01418 12.4993 3.5925
3097 1 8.98085 12.3742 7.21946
3072 2 10.9796 14.2578 3.58476
602 1 14.3742 14.3247 7.20611
1603 1 12.405 12.408 7.34009
2605 3 14.2201 12.3189 5.5021
2581 2 12.4515 12.4961 3.53553
3098 3 12.5806 14.229 5.35455
3575 1 14.3624 14.3944 3.62635
1114 1 17.7852 12.5133 5.40737
1584 3 17.9648 14.2426 3.47143
2582 1 16.0936 12.7119 3.63863
3100 2 15.9214 14.2994 5.47027
3099 1 16.0188 12.5824 7.22019
3599 1 17.7885 14.2536 7.20138
582 1 0.199481 17.9162 3.74177
1605 2 1.82472 17.826 5.09475
1604 3 2.04182 15.87 7.30573
3104 2 0.111667 16.2065 5.54764
3103 2 0.261537 17.7825 7.20001
3576 3 1.72225 15.9157 3.63106
2087 1 3.81536 17.7022 3.74477
2607 3 5.7981 17.8287 5.29731
2586 2 7.24699 17.7698 3.39161
3107 1 7.24744 17.9256 7.24767
3106 1 5.53191 16.27 6.99594
3105 2 3.38177 17.8657 7.0071
3602 2 3.64992 16.1083 5.34576
3601 2 7.37907 16.0013 5.49474
3577 3 5.54487 16.0204 3.66396
1091 3 10.846 17.9411 3.58976
2107 1 8.9886 16.2237 7.05265
2608 3 9.06416 17.8862 5.22691
3109 3 10.5484 17.892 7.27409
3603 2 10.8548 16.1282 5.41227
3579 3 9.14622 16.0989 3.81602
41 3 14.2946 16.1085 5.56101
2610 2 12.5565 17.9265 5.55514
2609 1 14.1266 17.9339 7.01404
2587 3 14.2257 17.8158 3.81719
3604 2 12.4478 16.0173 7.24805
3580 3 12.4947 15.9757 3.63069
583 1 16.0936 15.8183 3.61625
1606 2 17.9544 17.9759 7.38371
2109 3 16.1475 16.1777 7.1667
3112 3 16.1107 17.8558 5.53028
3110 1 17.9397 15.9176 5.2677
3582 2 17.8293 17.8783 3.68352
21 1 0.127385 1.95795 8.90116
604 1 0.132944 0.104474 10.5213
2110 3 1.81226 1.78925 10.6457
2589 2 1.80494 -0.034635 8.96939
585 2 6.78288 1.72157 9.14562
1092 3 5.11378 -0.0497391 8.8837
1608 1 7.17288 0.171818 11.0025
1607 2 3.60681 0.062079 10.8938
2111 3 5.22119 2.01527 10.823
2591 2 3.71573 1.70776 8.87615
1116 3 10.4776 0.398559 10.8461
2612 3 8.75443 1.87703 10.7938
2592 2 10.6787 1.80533 9.01954
3587 1 8.86918 0.101722 9.03755
587 1 14.51 1.7496 9.21928
1609 2 14.3012 -0.100966 10.6954
2090 3 12.46 -0.108821 8.99469
2613 3 12.7368 1.89616 10.7705
26 2 16.1277 0.0242127 9.11504
2594 1 18.0306 1.52674 9.04149
3116 1 16.2707 1.70908 10.8408
3115 3 17.8815 -0.207179 10.9192
1093 1 1.69665 7.07611 8.92823
2091 2 1.85699 3.44168 8.89373
2615 1 -0.16991 3.5237 10.9441
3118 2 -0.0436193 7.12119 10.9936
3117 2 1.72913 5.10348 10.6203
3089 1 0.101522 5.2266 9.0084
30 2 5.20859 3.63073 9.10528
45 2 7.21095 7.00335 10.7516
1096 3 3.57503 5.26079 9.01939
2112 3 7.14005 3.69928 10.77
2616 2 3.50682 3.43941 10.7628
3091 2 7.31341 5.35297 9.01515
3608 1 3.54306 7.16088 10.8273
3607 3 5.13748 5.09109 10.8579
3591 2 5.40449 7.26927 9.09812
46 2 10.7409 6.98236 10.4597
1098 2 10.7782 5.23962 8.86843
1591 1 8.80783 3.66169 8.92221
1588 3 8.87984 6.96731 8.69731
2113 3 10.8981 3.56718 10.7582
3609 3 9.0371 5.41331 10.6423
32 2 12.567 6.78437 8.95207
34 1 12.7031 3.66473 8.94562
36 2 14.4657 5.31154 9.02581
609 2 14.4343 7.09416 10.7942
3119 2 14.355 3.59121 10.7035
3611 3 12.639 5.37821 10.7342
1120 3 17.9539 3.75744 10.8304
1615 1 18.0134 7.25614 10.3903
1593 2 17.8664 5.53397 8.83045
2093 2 16.0926 7.28809 8.80607
2595 1 16.322 3.64911 9.22502
3612 1 16.2075 5.50139 10.5515
48 2 1.86471 8.98729 11.0386
2095 2 -0.0760604 8.88154 8.86685
2596 2 1.79556 10.6357 9.03311
3120 3 0.0413255 10.4839 10.7798
37 3 3.51634 8.74284 9.09674
49 2 5.44381 8.68902 10.7782
612 1 7.39787 10.6635 10.5808
1105 1 5.38802 10.4664 9.07773
2096 3 7.39417 8.81765 8.7387
3121 2 3.6662 10.5553 10.7085
613 3 9.04719 8.63243 10.4557
598 2 10.8455 8.74347 8.90329
3613 3 10.7428 10.7952 10.7618
3596 2 9.14976 10.6113 9.0324
50 1 14.1733 10.9093 10.7134
614 2 12.9851 8.74285 10.7649
2598 2 12.3967 10.5826 8.95427
2597 3 14.3359 8.99724 8.81699
51 2 17.6466 10.6437 10.7867
600 2 17.8414 8.79589 8.7871
1122 1 15.9963 8.93588 10.3989
1109 1 16.1084 10.6633 9.09464
616 2 -0.133214 14.2296 10.6897
601 1 -0.0509285 12.5157 9.10213
1123 2 1.84308 12.5262 10.6814
3094 1 2.0243 14.6331 9.13919
1124 3 5.46488 12.3364 10.5452
1111 2 5.30982 14.1565 9.10669
1619 3 7.24615 14.0432 10.594
1618 1 3.69531 14.276 11.0126
1601 1 7.292 12.5298 8.74339
3095 1 3.46456 12.5047 9.11473
617 2 10.7531 14.3047 10.6345
1125 2 8.9227 12.601 10.7297
3096 1 9.00617 14.3172 9.02728
3598 1 10.6873 12.4777 8.92649
1126 1 14.2275 14.1887 10.7254
1113 3 12.5813 14.5351 9.02405
1620 3 12.5377 12.6908 10.8409
1602 2 14.1317 12.5351 8.94835
1621 1 15.9076 12.6879 10.7862
3126 2 17.5326 14.3241 10.7872
3102 3 15.9928 14.3031 8.95419
3101 3 17.6273 12.507 8.90198
1623 3 -0.0832434 17.7984 10.8277
2119 1 1.81945 16.0352 10.8993
2606 1 1.83747 17.7148 9.06721
3600 1 0.135212 15.9909 9.20913
40 1 7.05269 15.9442 8.91532
619 1 3.62305 17.9685 10.7806
1127 1 7.30476 17.9161 10.7677
2120 1 5.57404 16.0309 10.7622
2106 1 3.703 16.1494 9.00773
2105 3 5.38091 17.8109 9.07048
1624 1 10.719 17.9279 10.6498
2108 2 10.7406 15.983 9.19177
2625 1 8.94029 16.1646 10.6976
3108 2 8.86381 17.8597 9.07506
603 1 14.347 16.0956 9.02571
1115 2 12.6525 17.9307 8.96901
2626 3 12.6944 16.1753 10.7308
3620 1 14.2556 17.8755 10.7274
2628 2 16.1224 16.1906 10.6916
2611 2 17.7942 15.9506 8.6761
3127 1 18.0666 17.725 10.6901
3111 1 16.0382 18.0426 9.04402
42 1 -0.028072 1.69299 12.4396
2121 2 -0.15053 -0.0342838 14.2021
2629 3 1.66117 1.87962 14.1842
3113 2 1.82623 0.161172 12.6168
43 2 3.72814 1.85517 12.6002
605 2 6.89207 1.71347 12.6465
1625 1 6.96169 0.110928 14.3863
2123 2 3.40155 0.225014 14.479
3128 2 5.25548 1.71844 14.2373
3605 1 5.07923 0.0570567 12.7154
606 3 10.8465 1.89591 12.608
1627 1 10.7009 0.409296 14.2567
3129 2 8.84066 2.0856 14.2176
3606 1 8.94042 0.157071 12.6139
1117 3 14.2894 1.68957 12.4308
2632 3 14.373 0.0550215 14.3554
3131 2 12.6101 1.91569 14.3529
3114 1 12.4388 -0.0884668 12.438
44 3 15.9806 0.101137 12.5847
501 3 17.981 0.170593 14.3633
2614 3 18.1508 1.86506 12.4035
3132 3 16.2572 1.94727 14.1951
607 1 1.80735 3.62848 12.5218
1119 2 1.8119 7.1532 12.4384
1118 2 -0.00682 5.31834 12.6972
2634 3 0.179033 7.20196 14.5414
2633 1 0.038246 3.68462 14.4449
3624 3 1.9401 5.51093 14.4099
60 1 7.00287 6.95267 14.222
608 1 5.17877 3.47289 12.5711
1612 3 7.07996 5.30778 12.619
1611 2 5.46566 7.02896 12.5247
1610 3 3.58428 5.34443 12.3799
2128 1 7.06835 3.6084 14.4914
2126 3 3.48459 3.55618 14.1578
3136 2 3.61766 7.07446 14.2623
3626 2 5.34235 5.43551 14.4006
1613 2 10.7913 5.51827 12.26
2114 3 8.77953 7.03265 12.6022
3137 3 10.7921 3.69266 14.1981
3629 1 8.83844 5.17604 14.1875
3628 1 10.4721 6.93567 14.2248
3610 1 8.98755 3.73503 12.245
610 3 12.6267 3.73895 12.5255
1614 2 14.5039 5.26075 12.4825
2617 2 12.3634 7.28605 12.5924
3138 3 14.4423 3.5196 14.26
3631 3 14.2304 6.90601 14.1263
3630 2 12.2964 5.42621 14.1463
47 2 17.9734 5.44664 12.594
65 1 16.2017 5.3344 14.1483
1138 1 17.9782 3.513 14.1437
1121 3 16.1796 3.56847 12.5483
2618 1 16.26 7.12723 12.4989
3140 1 17.7237 7.13661 14.3538
67 3 1.82857 8.97285 14.4911
611 1 1.57645 10.5752 12.7757
2115 3 0.0819904 8.78242 12.7803
2636 2 -0.0587943 10.6196 14.3878
69 3 7.06092 10.7742 14.6493
70 1 5.46422 8.70975 14.1327
1616 1 5.51733 10.7528 12.2705
2116 1 3.60082 8.84176 12.7764
2619 1 7.33611 8.8762 12.4037
3633 2 3.76082 10.6722 14.1221
71 1 8.97735 9.08417 14.571
2117 3 8.85166 10.6919 12.55
2620 2 10.3416 8.93717 12.5677
3141 2 10.8765 10.6123 14.2529
510 1 12.456 8.71917 14.3246
1617 1 12.736 10.5649 12.5366
3122 2 14.4772 8.73178 12.674
3635 3 14.2555 10.7181 14.4633
511 3 16.1614 8.89981 14.4015
615 1 17.68 8.97591 12.3471
1639 1 18.0292 10.8063 14.2098
2118 2 15.9461 10.8391 12.6452
513 1 0.0689106 14.0971 14.2579
514 3 1.81246 12.532 14.3066
2621 1 0.057731 12.4187 12.3796
3123 1 1.71907 14.2392 12.3587
72 2 7.27822 14.1702 14.2059
515 1 5.506 12.5799 14.43
516 1 3.68646 13.945 14.3854
3125 3 7.09853 12.4553 12.5446
3124 1 3.45847 12.2316 12.2662
3614 2 5.27576 14.1901 12.7121
73 1 10.491 14.7477 14.2011
1145 1 9.04271 12.5209 14.1608
3616 3 10.599 12.8213 12.5631
3615 1 8.91917 14.3223 12.3131
1147 3 12.5095 12.5974 14.4444
1146 1 14.0808 14.3699 14.4926
2622 3 12.4518 14.3797 12.7558
3617 3 14.3649 12.334 12.7454
1149 1 16.1294 12.4913 14.3693
1622 2 17.8918 12.4272 12.4296
3146 1 18.0063 14.3811 14.2163
3618 3 15.9136 14.3472 12.6762
52 2 0.10172 16.0579 12.3717
518 3 0.0483194 17.8665 14.151
1150 2 1.89214 15.8984 14.3088
2623 2 2.1114 17.8945 12.6348
53 1 3.62281 16.0098 12.5361
618 3 7.13159 15.661 12.323
1151 1 3.81933 18.0415 14.1635
1642 1 5.49475 15.9779 14.293
2142 1 7.0154 17.7638 14.2832
2624 2 5.42529 17.8387 12.4111
54 1 10.7494 16.1655 12.1427
1643 1 9.02875 16.2034 14.205
2649 2 10.8323 17.936 14.4004
3619 2 8.9754 17.8532 12.549
55 1 12.567 18.1586 12.44
620 3 14.2273 15.9704 12.5913
1646 3 12.4322 16.212 14.3223
1644 2 14.5141 17.9035 14.4128
56 1 16.0946 17.9522 12.3686
1647 1 15.9511 16.0907 14.5692
2627 3 18.0017 16.0545 12.4518
3644 3 17.7824 17.7216 14.27
57 3 1.61101 0.113106 16.1343
621 1 -0.00772117 1.80717 16.1886
1128 2 -0.226707 0.0827069 17.7628
2122 2 1.73387 1.7329 18.0188
58 2 5.21357 0.152942 15.9851
1132 1 6.99845 0.0509493 17.8767
1131 3 7.0877 1.79689 16.1932
1130 2 3.40997 0.0668292 17.9473
1129 1 3.48672 1.86047 16.2466
2630 2 5.02408 1.72323 18.1321
1133 2 10.5954 1.83577 16.1484
1626 1 10.6991 0.175183 17.8282
2631 1 8.97709 1.60486 18.0942
3621 3 8.97345 -0.0532538 16.0893
59 3 12.449 0.128185 15.9898
1134 1 14.4612 1.70799 16.2295
2124 3 14.1318 -0.00899366 17.7108
3130 1 12.5306 1.87002 17.7082
502 3 16.2591 0.111151 15.9001
3133 1 16.0642 1.70736 18.1781
3623 3 17.8506 -0.0804811 17.9074
3622 1 17.9987 1.73072 16.1968
503 3 1.68944 3.51888 15.9923
504 1 1.85124 7.00254 16.3031
1628 2 -0.00385458 5.28431 16.4002
2125 1 -0.0495307 3.48202 17.7805
3134 1 -0.0481731 7.13538 17.967
3625 3 1.80353 5.20057 18.1042
61 3 5.27713 3.45566 16.2134
505 2 3.56311 7.14306 17.684
1135 3 7.1072 7.01481 18.0231
1631 3 5.41175 7.10615 16.0531
1630 3 3.68116 5.27085 16.1041
1629 1 7.03485 5.28054 16.3937
2127 3 3.33952 3.57013 18.1609
3135 3 7.03684 3.49429 18.0337
3627 1 5.24945 5.25554 18.0535
62 3 8.89365 5.39506 17.8766
63 2 10.7205 7.40197 17.912
506 2 8.94822 3.43261 16.1862
1632 2 10.7118 5.33976 15.9694
2129 2 8.76 6.88856 15.9813
2635 3 10.7967 3.64672 17.753
64 3 12.4644 5.3915 17.7689
1137 3 14.1628 6.99012 18.0143
1136 2 12.4211 3.69926 15.9689
2131 2 14.3549 5.05266 16.0795
2130 1 12.5148 7.23316 16.057
3139 2 14.4441 3.54899 18.0843
66 1 17.8279 5.27513 16.1771
507 2 16.1882 5.41477 17.9035
1140 1 17.9861 3.53333 18.0448
1139 2 16.1478 3.44716 16.2858
1634 1 17.84 7.07106 18.0593
1633 3 16.2317 7.03003 15.8596
508 3 1.94403 8.84149 18.0349
1141 2 1.71707 10.6435 16.1817
2132 3 -0.00938018 8.94473 16.3416
3632 2 0.0868741 10.6797 17.8919
68 3 3.52636 10.7467 17.9484
509 2 7.38807 10.6552 17.8229
1142 1 5.24816 8.95595 17.8892
1635 1 5.3954 10.7178 16.2424
2134 1 7.29094 8.7252 16.2819
2133 2 3.69104 8.98389 15.8482
1143 2 9.04534 9.04278 17.8679
1636 3 9.06846 10.8172 16.1833
2637 2 10.6006 8.90719 16.1513
3634 1 10.817 10.6012 17.9589
1144 1 12.33 10.7137 15.9016
1638 3 12.6294 8.90105 17.8477
1637 2 14.2214 10.9128 17.9942
2638 1 14.2079 8.82324 16.2155
512 3 17.7671 8.99226 16.0716
1640 3 15.9759 8.92657 18.0163
2135 3 15.9646 10.5981 16.1273
2639 2 17.7581 10.7421 17.7931
2137 3 -0.00917325 14.5335 17.9345
2136 1 1.53167 12.6508 17.9403
2641 2 1.67885 14.2559 16.1004
2640 1 0.0110932 12.5172 16.1416
2140 1 7.01467 14.257 17.8594
2139 1 3.39741 14.3536 17.8984
2138 3 5.27894 12.2291 17.9123
2643 3 5.05119 14.3097 16.462
2642 1 3.3222 12.3238 16.1598
3142 3 7.29375 12.6297 16.0098
2141 3 8.98019 14.3061 15.9607
2645 1 9.06509 12.535 17.9781
2644 3 10.8308 14.29 17.9171
3143 2 10.5838 12.5713 15.9071
2647 1 12.5034 14.1426 16.2936
2646 1 12.488 12.4823 17.9745
3145 1 14.3386 14.4563 17.8403
3144 2 14.2785 12.5827 16.1657
517 3 17.9184 14.2921 18.083
1148 1 17.5757 12.3373 16.0635
3148 3 16.067 14.2849 15.9991
3147 3 15.9292 12.8295 17.8813
2648 3 1.59241 17.7307 16.0325
3150 2 1.95425 16.1038 17.977
3149 2 -0.0653917 16.0522 16.121
3636 2 -0.117431 17.8019 17.9735
1641 2 3.58179 18.0483 17.9743
2143 1 7.3452 17.9587 18.1762
3640 3 5.44152 18.0048 16.2856
3639 2 7.23024 16.0865 15.9926
3638 2 5.47703 16.4002 18.0322
3637 3 3.49279 16.1847 16.0557
74 3 8.80614 17.8651 15.9509
519 3 10.751 17.7085 17.9123
3642 2 8.87102 16.2085 17.8247
3641 1 10.8054 16.1971 16.1943
75 2 12.5742 16.0849 17.8839
76 3 12.6511 17.9284 16.2142
1645 1 14.2706 17.8752 17.9958
3643 2 14.1805 15.9125 16.1415
77 2 16.2033 16.02 17.8324
2144 2 18.1125 15.9137 16.1589
2650 2 17.7988 17.977 17.6097
3645 1 16.1415 17.7992 16.1883
520 1 -0.151574 -0.25548 21.3958
78 3 -0.332625 1.95055 19.6615
2145 3 1.68393 1.83796 21.6204
3151 3 1.54981 0.16225 19.652
521 1 3.48696 0.0077869 21.628
80 2 3.51896 1.75129 19.8627
79 3 7.0315 1.54832 19.6632
2147 1 5.30202 1.80618 21.4865
2146 1 6.7937 -0.0707263 21.7569
2651 2 5.24804 0.103746 19.6027
81 2 10.8162 1.70553 19.5651
1648 2 10.5254 -0.0278552 21.6307
2652 3 8.86947 1.66978 21.154
3152 1 8.88874 -0.0466645 19.6496
522 3 14.1882 1.58128 19.6129
1649 1 14.4244 0.107991 21.4059
2653 3 12.5022 1.82152 21.3714
3646 3 12.4148 -0.0851292 19.5718
82 1 17.9294 -0.150373 21.5098
2654 3 17.9141 1.69804 19.8766
3153 1 16.0534 2.00165 21.2476
3647 2 16.1235 -0.0929968 19.5165
523 3 0.0751495 5.28321 19.8006
84 1 1.86071 6.99264 19.6548
83 2 -0.182382 7.19738 21.4277
1650 3 -0.00598639 3.50688 21.7925
3155 1 1.71904 5.25521 21.7002
3154 2 1.70703 3.42061 19.8483
524 2 3.37339 5.4058 19.8315
525 1 7.22006 5.31222 19.9148
526 2 3.57866 7.15866 21.6219
1153 2 7.19412 7.02392 21.5367
1152 3 5.33582 7.08696 19.6553
2655 3 3.44945 3.42146 21.6604
3156 2 7.09684 3.46724 21.4998
3649 1 5.19572 3.68714 19.7137
3648 3 5.25034 5.29788 21.3694
86 3 10.5745 7.02937 21.6473
85 2 9.08333 3.85012 19.577
1155 1 10.9527 5.29893 19.7676
1154 2 9.0245 7.19713 19.7989
2656 2 10.7092 3.62736 21.3501
3650 2 8.97354 5.08726 21.465
527 3 12.369 7.14182 19.6796
88 2 12.6496 5.03465 21.3984
87 2 12.6088 3.48213 19.396
1156 2 14.261 5.69975 19.7745
2148 3 14.1604 7.28923 21.4075
2657 1 14.3732 3.4653 21.3335
528 2 17.9445 3.62001 21.3964
89 3 16.073 5.39396 21.7172
1157 3 15.9669 7.20031 19.6445
3158 1 17.7856 5.22437 19.7038
3157 1 17.7898 7.02085 21.4081
3651 2 16.0238 3.70795 19.5676
529 1 1.84489 8.73806 21.5638
530 1 1.85171 10.6379 19.6446
1158 1 0.1564 8.84166 19.6232
3652 3 -0.0351102 10.6764 21.2942
531 3 5.21373 8.72774 21.8652
532 1 5.34166 10.6362 19.6483
533 3 7.02827 10.7481 21.4481
1159 1 3.69039 8.81274 19.6259
1651 3 7.03773 8.85773 19.6343
3653 3 3.70951 10.52 21.4802
90 3 9.02535 10.783 19.9238
1161 1 8.9895 8.90741 21.6329
1160 3 10.8323 10.8449 21.4715
1652 2 10.7897 9.13121 19.7559
534 2 12.4041 10.7898 19.5687
1162 1 12.2375 8.86434 21.7786
1654 1 14.2191 10.7919 21.4135
1653 2 14.1839 8.96178 19.5795
1656 1 15.9495 10.9326 19.9177
1655 3 15.9784 8.81095 21.4483
3159 1 17.9714 10.6507 21.3526
3654 2 17.531 8.96503 19.8026
1660 2 -0.12712 14.3326 21.5485
1659 1 1.85297 14.2118 19.6529
1658 2 1.85048 12.5384 21.5778
1657 3 -0.00615658 12.4247 19.8191
1163 2 5.39609 14.2561 19.594
1661 2 3.57549 14.3096 21.3962
2151 3 7.30746 12.5977 19.6908
2150 2 5.10441 12.4839 21.3843
2149 3 3.36601 12.3429 19.6727
3160 2 7.04892 14.2206 21.3132
1662 2 8.84187 14.4185 19.737
2153 3 9.1611 12.7328 21.4937
2152 1 10.7116 12.5926 19.4969
2658 2 10.791 14.5201 21.6397
2155 3 14.0663 12.6179 19.7885
2154 3 12.4365 14.2327 19.5449
2660 1 14.3449 14.3897 21.5805
2659 2 12.2979 12.5711 21.4633
535 2 17.9788 12.4323 19.5163
1164 1 17.9402 14.4108 21.413
2156 3 15.903 14.4084 19.7222
2661 3 16.0197 12.7204 21.6047
1165 3 0.0296106 17.6764 21.4457
2157 1 1.76643 17.9843 19.6678
2662 3 -0.0616657 15.9269 19.6703
3161 2 1.71201 15.8585 21.4074
1664 3 7.34261 17.8747 21.5121
1663 3 3.727 18.0498 21.2136
2664 3 3.47928 16.2534 19.8247
2663 2 7.20866 16.1146 19.6917
3163 1 5.345 16.2481 21.2458
3162 3 5.49726 18.1165 19.6266
536 2 10.7312 17.7516 21.4761
2665 1 10.4529 15.9532 19.6525
3164 3 9.06752 17.8184 19.5421
3655 2 8.85734 16.2785 21.4431
2666 3 12.3583 17.7747 19.5982
3166 2 14.3211 16.1783 19.639
3165 1 14.2259 17.6744 21.4086
3656 3 12.4241 16.1434 21.469
92 3 16.1787 16.3673 21.416
91 2 17.8846 17.9387 21.3189
1166 3 17.8356 16.0914 19.6086
3167 3 16.1991 17.9576 19.4604
93 2 1.74204 1.58448 25.2088
1665 2 1.76458 -0.075484 23.007
2667 2 -0.226428 -0.0838808 24.9216
3168 3 -0.0727066 1.71611 23.5154
2158 2 5.32478 0.20084 23.4379
2670 2 3.32544 -0.099863 25.0022
3170 1 7.20105 1.74611 23.2628
3169 2 3.47754 1.70979 23.5667
3659 3 7.02741 -0.119125 24.9644
3658 2 5.5236 1.70095 25.1097
537 1 8.94212 1.67221 25.3939
2671 1 9.08325 0.00216779 23.3684
3171 1 10.7445 0.0289738 24.9211
3660 1 10.4342 1.93636 23.2312
2673 1 12.4676 -0.0576986 22.8313
3663 2 14.097 1.76286 23.0465
3662 3 14.1014 -0.0595309 24.9903
3661 2 12.2394 1.44244 24.81
539 1 15.8994 1.79566 24.9094
1167 1 18.0503 0.0348487 25.217
1668 1 17.8758 1.90209 23.1963
2160 3 16.0365 0.0533891 23.095
99 3 2.04448 5.34846 24.8736
98 2 1.73922 7.39649 23.3619
97 1 -0.0742508 7.09739 24.8897
96 1 0.0382907 5.35828 23.3291
3173 3 1.65383 3.4559 23.3955
3172 1 -0.071025 3.47109 25.2074
540 3 3.32588 7.12644 25.157
541 3 5.27268 6.99219 23.4834
542 1 7.00591 5.22728 23.2071
543 1 5.36905 5.16239 24.9984
101 3 7.1467 7.08622 25.1832
100 3 3.70389 5.05068 23.3691
2675 2 7.20921 3.55502 25.1973
3175 1 3.54023 3.41429 24.8788
3665 2 5.48192 3.43677 23.3196
546 3 8.78997 7.16455 23.4763
547 3 8.82374 5.41666 25.0009
102 3 10.6753 5.48629 23.261
1170 2 10.6723 7.25995 25.0625
3177 3 10.3564 3.57362 24.963
3666 1 8.69733 3.61055 23.343
548 1 14.121 5.29518 23.2185
549 1 12.4138 5.41412 24.958
105 3 14.2108 3.47993 24.5852
1670 1 12.6037 7.00895 23.2972
3179 2 12.1378 3.47793 23.3749
3667 2 14.1325 7.25624 24.8135
1172 1 16.002 5.21292 24.8209
1672 1 17.9211 3.50587 24.9898
1671 1 15.8155 7.39393 23.3721
2678 1 17.7016 7.03887 24.861
2677 1 18.1719 5.34838 23.0629
3668 1 16.1258 3.3926 23.1068
550 2 0.0125938 9.17862 23.345
106 2 1.87811 10.7393 23.0123
1175 2 1.75609 9.06715 25.1449
3669 1 -0.0562914 10.6832 25.0116
108 2 5.39544 10.7303 23.2168
1180 2 7.15189 10.998 24.9753
1178 1 7.20436 9.11829 23.5296
1177 1 3.50081 8.71807 23.5946
1176 2 5.40924 8.97633 24.9869
3670 1 3.54483 10.7366 24.8486
551 2 10.4607 10.8888 25.0354
552 2 9.06171 10.9147 23.0007
1181 2 8.83331 8.97604 25.1176
1674 1 10.5462 9.01399 23.4928
1182 2 12.5011 10.8878 23.2924
1676 3 12.4168 8.86855 24.9698
1675 3 14.1425 9.05345 23.221
2163 1 14.365 10.675 24.9969
1183 2 16.0208 8.7431 25.184
1677 2 16.0244 10.6975 23.0634
2165 2 17.7095 10.8472 25.165
3671 3 17.595 8.91121 23.2453
555 2 0.0144617 14.3464 25.043
1184 1 1.88392 14.375 23.2865
1678 2 1.76183 12.5737 24.9349
2166 3 0.110093 12.5585 23.1943
113 3 7.05542 14.4115 24.9416
1185 1 5.45496 12.5145 25.0022
2170 3 5.44925 14.3817 23.0522
2169 1 3.65019 12.4701 23.1563
2168 1 3.57703 14.5305 24.8045
2167 3 7.10408 12.5662 23.1278
1680 3 10.746 14.4208 25.0239
2171 3 10.7895 12.4744 23.3138
2682 1 9.04001 14.4662 23.1659
2681 2 8.67504 12.6825 24.927
114 1 14.4885 14.4727 24.9158
1681 1 12.5816 12.5175 25.0167
2684 3 14.2354 12.5742 23.3345
2683 2 12.5328 14.3652 23.3947
557 2 17.8701 12.4859 23.3359
2173 2 16.3098 14.4003 23.0417
2685 2 15.9167 12.5892 24.7668
3183 3 17.8771 14.59 24.9716
1684 3 1.62371 16.2847 24.9368
1683 2 1.85627 17.8935 23.2093
2688 1 0.143528 15.9285 23.2374
2687 3 -0.162689 17.9351 25.0519
2175 2 7.07801 17.9379 25.1823
2174 3 5.56839 17.8714 23.2179
2689 2 3.6367 17.8146 24.9792
3187 3 5.32821 16.3276 25.1816
3186 1 7.3363 16.1153 23.2901
3185 1 3.64836 16.1671 22.9249
1687 1 8.83554 18.033 23.2585
1686 2 8.76947 16.1506 25.0114
2177 2 10.7019 17.9235 24.7433
3675 2 10.6785 16.2613 23.1949
2178 2 14.3036 18.0695 24.8169
2690 2 12.5997 18.0727 23.0402
3188 2 12.6199 16.2507 24.8861
3676 2 14.3125 16.2902 23.1794
1187 1 17.7983 16.4179 23.2751
1186 1 17.6691 18.206 24.9991
1689 2 15.9801 16.2041 24.7944
3189 3 15.9837 18.0466 23.0663
1188 2 -0.0329641 -0.0606884 28.8668
2180 3 1.57325 1.82429 28.4062
2668 3 1.69894 -0.202659 26.965
3657 1 -0.0633819 1.65114 26.898
559 2 7.27232 -0.317562 28.5975
94 3 7.06526 1.59537 26.9693
1189 1 3.66213 -0.279283 28.7201
1666 3 5.2815 0.0231303 26.6496
2181 3 5.22897 1.59612 28.7485
2669 3 3.43838 1.52052 26.8537
560 3 10.7679 -0.0216464 28.5467
95 2 8.71789 -0.0426538 26.8688
2182 2 8.90651 1.73446 28.7819
2672 2 10.5628 1.74238 26.8419
538 3 14.2099 1.90177 26.5618
1667 2 12.488 0.0716602 26.8522
2184 2 12.5247 1.71135 28.6274
2183 1 14.2977 0.234782 28.7095
2159 3 17.9225 1.81955 26.8074
3193 1 16.0857 1.80159 28.3526
3679 1 17.6851 0.036422 28.379
3664 1 15.9042 0.124918 26.7967
1168 3 1.97072 3.49742 26.7701
1669 1 1.78943 7.2727 26.8721
2186 3 0.221236 7.22516 28.9397
2185 1 0.0779762 3.73913 28.3612
2674 1 0.0819509 5.3461 26.7326
3194 1 1.85046 5.21615 28.6357
544 2 3.52608 5.08116 26.7222
563 3 7.11812 7.10361 28.6769
1691 2 7.35545 3.59329 28.742
1690 3 3.69339 3.4559 28.7231
2676 3 7.15232 5.35919 26.8699
3196 3 3.67741 7.02856 28.45
3195 2 5.30606 5.27687 28.5825
3176 2 5.22208 3.37335 26.8892
3174 3 5.29254 7.10723 26.7673
545 1 10.6834 5.36988 26.8221
1171 2 9.1142 3.50281 27.0057
1169 1 9.14089 7.42829 26.8689
2694 2 10.8389 3.33441 28.5863
3197 2 8.99007 5.30347 28.5325
3681 3 10.5606 7.24773 28.639
104 2 12.5454 3.60221 26.5821
103 1 14.1141 5.24154 26.5633
2695 1 14.0838 3.25845 28.5885
3178 3 12.376 7.0646 26.7177
3684 1 14.1723 7.12922 28.6882
3683 3 12.5096 5.53203 28.5683
622 2 17.9822 3.53635 28.8215
1004 3 17.6752 6.81023 28.44
1174 2 15.9485 6.89377 26.6066
1173 3 17.7579 5.33382 26.5083
3180 1 16.0156 3.45801 26.6641
3685 1 15.9984 5.01346 28.4268
1673 1 0.11194 9.00699 26.7935
2161 2 2.04598 10.8646 26.8171