ITEM: TIMESTEP
5000
ITEM: NUMBER OF ATOMS
4000
ITEM: BOX BOUNDS pp pp pp
2.3054614621965897e-02 3.5711005385377760e+01
2.3054614621965897e-02 3.5711005385377760e+01
2.3054614621965897e-02 3.5711005385377760e+01
ITEM: ATOMS id type x y z
1 3 0.0893751 1.96267 1.53668
1563 1 0.00141709 0.0234855 -0.127363
2064 2 1.65166 1.68634 -0.0142034
3561 1 1.93048 -0.0824441 1.88298
564 2 3.65494 1.8224 1.81474
565 1 7.18626 1.99427 1.8854
1565 2 7.23649 0.0181847 0.112834
2065 2 3.65943 0.0359244 -0.106049
3061 1 5.38155 1.63262 0.157212
3562 3 5.43295 0.0245955 1.75017
566 3 10.7123 1.95266 1.79179
1070 3 10.4871 0.362413 0.0997738
3063 3 8.78511 0.0641187 1.90897
3062 2 8.87919 1.90232 -0.0253979
567 2 14.3182 1.81538 1.89355
2566 3 14.2953 -0.0575093 0.390175
3064 3 12.5718 2.00444 -0.22137
3563 2 12.3864 0.209472 1.74093
2 1 17.6761 -0.0420162 -0.12525
3 1 16.1116 -0.126862 1.92619
3066 3 17.8791 1.8041 2.1449
3065 1 16.1186 1.75503 -0.196976
4 1 1.84358 5.20627 -0.156479
5 3 1.81877 3.53451 1.65467
6 1 1.87645 7.15013 1.74177
1071 1 0.259693 5.64117 1.51507
3067 2 0.0609903 3.59883 -0.225813
3565 2 -0.0383123 7.5004 0.0869215
7 1 5.20777 5.19631 -0.0656672
8 2 3.57016 7.38283 -0.0777688
1072 2 7.18836 5.48226 1.75045
1075 2 5.41211 7.22501 1.6712
1074 2 3.42472 5.45823 1.8289
1567 1 6.91321 6.9932 -0.0739037
2570 3 7.28532 3.55216 0.0147524
2569 3 3.63461 3.49875 -0.17649
3569 2 5.31137 3.63559 1.58059
9 2 9.09971 5.5057 -0.00334025
10 1 9.04808 3.84217 1.76694
1077 3 10.7878 7.08826 -0.166193
1076 3 10.7748 5.40725 1.65351
1568 1 8.96499 7.25929 1.42813
3068 1 10.7705 3.71395 -0.0985193
11 1 12.4609 5.20851 -0.0234051
12 2 14.512 3.52749 0.0286584
570 3 12.8158 3.60922 1.77333
1571 1 14.2169 7.01473 0.00308083
1570 3 14.1735 5.44183 1.76762
1569 2 12.4631 7.00367 1.51889
572 1 15.7959 3.64507 1.83568
1081 3 16.178 7.28861 1.65906
1079 2 17.8976 5.33225 1.78389
1078 2 16.111 5.24681 -0.0398382
1573 1 17.7747 3.46263 0.0605771
2070 3 17.7744 7.21947 -0.0671705
575 2 1.77866 10.8058 1.82214
1082 2 1.65398 8.97379 0.0564722
1574 2 -0.113785 9.09702 1.75663
3070 1 -0.0684204 10.8503 0.0837706
576 2 3.55239 10.74 -0.124844
1085 1 5.3874 9.07036 -0.0290088
1083 1 5.16751 10.7521 1.66697
1577 2 7.02617 10.826 0.0564202
1576 1 7.08506 8.95474 1.50849
1575 3 3.50177 8.99982 1.57821
14 3 10.8743 10.9264 -0.10272
1087 1 8.91494 10.6477 1.71971
1086 1 8.9697 8.87126 -0.0579555
2071 1 10.9047 9.14833 1.60953
580 2 12.5606 10.9457 1.65585
1088 3 14.6604 10.6933 -0.112807
2073 3 12.8031 9.12397 -0.26971
2074 2 14.3609 9.17347 1.54591
15 1 17.8322 8.85 1.9137
1581 2 16.2777 10.6834 1.70422
2076 2 17.8177 10.6509 -0.136814
2075 1 15.89 8.79071 -0.232333
2079 3 1.7008 12.348 0.00751812
2078 1 1.97999 14.3465 1.99254
2077 2 -0.0337339 12.4834 1.91908
2572 1 -0.171179 14.1648 0.375163
2082 1 5.55022 14.2951 1.73999
2081 1 3.43741 12.3374 1.8455
2080 3 5.26377 12.495 -0.0906665
2576 3 7.30233 14.0478 -0.180026
2575 2 7.17176 12.4911 1.76772
3071 3 3.57537 14.3652 -0.0693589
1583 2 8.96304 14.1839 1.74547
2084 1 10.7223 14.3129 -0.0478438
2579 1 10.608 12.5432 1.59136
3073 1 8.99107 12.6308 0.103301
2085 3 12.3701 14.1919 1.72712
2580 1 14.4973 12.5697 1.62508
3074 3 12.5668 12.643 -0.0309218
3574 3 14.396 14.453 -0.186725
581 2 17.817 12.5549 1.95487
1089 2 17.9782 14.2427 0.0455866
2583 1 16.2484 14.4354 1.88186
3075 1 16.358 12.5575 0.0672414
16 1 0.106314 17.797 0.103952
2086 1 1.88117 17.8736 2.01557
2584 3 -0.034317 16.0667 1.78619
3076 3 1.72805 16.0067 0.137031
17 2 5.41483 16.0263 0.00572428
1090 3 3.62693 17.8411 0.0407922
2585 1 7.13387 17.9749 0.11263
3079 1 5.48662 17.7268 1.81963
3078 2 7.26036 16.0075 1.81192
3077 3 3.59149 16.1556 1.77653
18 3 8.89559 16.1825 -0.228582
1585 2 10.6811 17.8691 -0.00807534
3080 3 10.5745 16.0519 1.86962
3578 2 9.06474 17.8643 1.77277
19 2 12.576 15.9801 0.196472
2088 3 14.2528 17.752 -0.0715377
3081 3 14.3294 16.1646 1.9204
3581 2 12.5295 17.7123 1.71652
20 3 16.1282 16.247 0.166479
1586 1 18.2157 15.8804 1.72842
3083 3 16.1613 17.7501 1.91652
3082 2 18.0038 17.9401 0.00331285
584 1 1.72425 1.86644 7.09644
1564 2 0.0138917 0.0855277 3.44692
2588 2 1.90385 0.239146 5.51583
2563 2 1.83448 1.61523 3.6805
3084 2 -0.0239445 -0.188081 7.0998
3583 3 0.0143216 1.79033 5.31357
22 3 5.50765 1.84336 7.16242
1069 2 3.60878 -0.0436795 3.8116
1566 3 7.18972 0.0429273 3.73891
2089 1 5.27944 -0.0880497 5.60008
2590 2 3.67724 0.0592707 7.11477
2564 1 5.49344 1.55488 3.4584
3085 2 7.04275 -0.0590464 7.13081
3585 3 3.96124 1.79699 5.38096
3584 1 7.37547 1.86126 5.46617
586 2 8.9803 1.67402 7.36275
2066 3 10.5185 0.0135948 3.46684
2593 1 8.74888 0.0585364 5.49462
2565 2 8.8781 1.92365 3.54226
3086 1 10.7595 0.118865 7.12936
3586 3 10.6378 1.86559 5.2761
23 1 12.4482 1.84857 6.98382
24 1 14.3102 0.239268 7.10243
25 1 14.5186 1.87917 5.34603
2568 1 14.4029 0.106862 3.44763
2567 2 12.4669 1.64714 3.58323
3087 2 12.4131 0.0863117 5.33698
568 3 17.715 0.121094 3.67909
588 1 16.2684 1.93301 7.12331
1587 1 17.8574 0.221668 6.97817
3088 2 16.092 0.105848 5.46909
3588 3 17.9434 1.97573 5.30955
3564 2 16.1639 1.88265 3.59122
27 3 1.66362 5.16041 7.29253
28 2 1.70857 7.06665 5.47449
589 3 -0.137366 5.28113 5.47764
2067 2 0.177359 3.40108 3.48663
3090 3 2.06935 3.64228 5.36296
3590 3 0.0348789 7.24003 7.44199
3589 1 0.0679097 3.5304 7.32719
3567 1 0.0908506 7.08376 3.70686
3566 1 1.77064 5.18925 3.37717
29 1 3.59327 3.6592 7.28532
593 2 3.65867 7.28199 7.24069
592 3 7.25062 5.44075 5.50805
591 3 6.99627 7.25397 7.13895
590 3 3.5001 5.40251 5.32775
1095 2 5.44707 5.42336 7.29282
1094 2 5.18133 6.92454 5.53979
1073 3 3.67969 6.94992 3.64259
2068 1 7.29247 7.20751 3.53359
2069 3 3.48555 3.41623 3.42454
3593 1 5.57204 3.65223 5.31889
3592 3 7.3599 3.48402 7.12471
3570 3 5.65051 5.4956 3.54983
3568 2 7.11501 3.73057 3.55373
31 1 9.02597 3.59221 5.29073
569 2 10.8252 7.24482 3.55146
594 2 10.7332 5.30339 5.49716
1097 1 9.02059 5.41195 7.19826
1590 3 8.90603 7.21516 5.36748
1589 3 10.7343 7.15299 7.25732
3594 1 10.7069 3.58337 7.25556
3572 2 10.6649 3.68573 3.74215
3571 1 9.0832 5.2362 3.7363
33 1 12.4236 3.52637 5.24989
35 1 14.3173 3.72373 6.97468
571 3 12.4224 5.28097 3.53811
595 2 14.3226 7.03499 7.08115
1100 2 14.2011 5.30801 5.13789
1099 3 12.3874 5.19052 6.88886
1592 2 12.6001 7.0408 5.32219
1572 2 14.0908 7.2604 3.48002
3069 1 14.3985 3.66176 3.67671
573 2 16.1703 5.4341 3.39748
1080 3 17.9184 3.62676 3.60753
1595 2 16.0974 7.1423 5.43088
1594 1 16.1497 5.39474 7.16722
2094 1 17.8865 7.11385 7.20191
2092 1 18.1236 3.65735 7.32894
2571 2 17.8109 7.14063 3.66045
3092 1 18.0318 5.41099 5.4889
3595 2 16.1622 3.61063 5.13516
13 3 0.0116243 10.5375 3.53147
597 3 0.15103 10.7856 7.12323
596 2 1.72063 10.6734 5.15953
574 2 1.64066 8.87001 3.59934
1102 1 1.80324 8.95518 7.16274
1101 3 -0.0582375 8.96416 5.39526
38 3 3.31612 10.736 7.26503
578 2 3.38866 10.6916 3.53963
577 3 5.16491 8.91596 3.61599
1106 3 7.26097 10.612 7.07787
1104 1 5.26102 10.6124 5.53264
1103 3 3.52013 8.78835 5.45737
1084 3 6.85715 10.6214 3.4785
1597 3 7.08234 8.91429 5.223
1596 1 5.22387 9.05599 7.01638
39 3 10.6828 10.7588 6.78565
599 2 8.98676 10.8538 5.10539
579 1 10.6864 10.8076 3.26636
1107 2 9.13995 9.03364 7.14182
1578 1 8.96341 8.98724 3.37126
2097 1 10.5657 8.91777 5.18859
1108 2 12.4595 10.6326 5.23735
1598 1 12.3036 8.97814 6.96827
1579 3 12.3942 8.9603 3.39561
2072 1 14.3359 10.7645 3.45118
2099 3 14.284 10.6155 7.082
2098 2 14.3013 8.87761 5.14115
1599 2 15.9708 8.87095 7.12333
1580 3 16.0681 8.84508 3.54827
2100 1 15.9685 10.6038 5.34811
3093 3 17.8782 10.5094 7.23299
3597 1 17.8552 8.81706 5.39589
3573 1 17.7617 10.6511 3.76933
1110 3 0.0556404 14.4017 7.24888
1582 3 1.94258 12.5229 3.74356
2103 3 1.75939 12.6701 7.18562
2102 1 1.69023 14.3076 5.42956
2101 3 0.00961805 12.4053 5.47282
2573 2 -0.10999 14.26 3.76317
1112 2 7.245 14.2441 7.17383
1600 2 5.32932 12.3738 6.93273
2104 1 5.19601 14.1793 5.34259
2083 1 3.60479 14.3451 3.48885
2601 3 7.08746 12.4623 5.22683
2600 3 3.57958 12.5211 5.45451
2599 2 3.74665 14.2277 7.08143
2577 3 6.99898 14.328 3.49177
2574 2 5.31624 12.4496 3.4933
2604 1 8.84534 14.1481 5.28464
2603 2 10.6798 14.305 6.92902
2602 1 10.6153 12.5727 5.31181
2578 2 8.84146 12.566 3.53502
3097 3 8.86178 12.3784 6.91613
3072 1 10.6196 14.3 3.76081
602 3 14.1739 14.3118 7.02263
1603 3 12.4012 12.6093 6.97999
2605 2 14.3979 12.3676 5.45568
2581 3 12.6014 12.4053 3.45874
3098 3 12.5558 14.2298 5.26343
3575 2 14.3005 14.2412 3.42889
1114 1 17.802 12.2727 5.4511
1584 1 17.9612 14.2408 3.59081
2582 2 15.9984 12.5999 3.67029
3100 1 16.0835 14.2386 5.37955
3099 1 15.9965 12.6225 6.99681
3599 3 18.0454 14.0543 7.18145
582 2 0.0858435 17.7978 3.70446
1605 3 1.85255 17.7502 5.38468
1604 3 2.06733 16.117 7.15976
3104 1 -0.0406616 16.0243 5.40552
3103 2 0.266162 17.6619 7.25662
3576 2 1.70447 16.0683 3.66049
2087 2 3.5753 17.777 3.54077
2607 1 5.49538 17.8957 5.42592
2586 2 7.02895 17.757 3.71021
3107 2 7.25107 17.7981 7.13326
3106 3 5.58814 15.9586 6.95901
3105 1 3.80499 17.9162 7.08019
3602 1 3.44059 15.9883 5.31298
3601 3 7.22354 16.0674 5.30269
3577 2 5.48354 16.0929 3.56087
1091 1 10.7694 17.4407 3.55852
2107 1 8.77544 15.9624 7.2809
2608 3 9.19955 17.8118 5.49802
3109 2 10.8015 17.8608 7.19302
3603 2 10.5071 16.0215 5.48676
3579 3 8.80236 16.1066 3.65616
41 3 14.6388 16.2552 5.31242
2610 1 12.4748 17.6585 5.23429
2609 3 14.3522 17.85 7.14275
2587 2 14.3557 17.9797 3.62353
3604 1 12.5087 16.1538 6.93831
3580 2 12.6561 15.9584 3.43607
583 3 16.3145 15.9691 3.51443
1606 1 17.7681 17.7849 7.1808
2109 2 16.1884 15.656 7.44792
3112 2 16.1243 18.1779 5.36608
3110 3 17.8246 16.0916 5.48154
3582 3 17.8553 17.8811 3.61311
21 3 0.0264888 1.81396 8.93098
604 3 -0.0150669 -0.0917607 10.7066
2110 3 1.71575 1.854 10.5793
2589 1 1.68898 -0.18241 8.94719
585 2 7.15046 1.7758 8.93531
1092 2 5.3389 -0.126764 8.82183
1608 3 7.00835 0.00348113 10.8161
1607 1 3.58089 -0.145082 10.7531
2111 2 5.28085 1.80079 10.6515
2591 1 3.58063 1.64887 8.88722
1116 2 10.8064 0.0645875 10.7064
2612 3 8.92453 1.60584 10.8993
2592 1 10.7373 1.60041 8.91094
3587 1 8.76904 -0.0953752 9.08745
587 1 14.321 2.12068 9.0062
1609 2 14.4382 0.299194 10.7546
2090 2 12.627 0.225761 8.90263
2613 1 12.6327 1.73092 10.8448
26 1 16.2611 0.208578 8.83726
2594 3 17.9588 1.91509 9.0751
3116 1 16.128 1.80796 10.8856
3115 3 17.8898 -0.155456 10.9406
1093 3 1.92401 7.06578 8.94385
2091 3 1.58408 3.62489 9.15366
2615 2 -0.271622 3.52095 10.7833
3118 2 -0.127835 7.25803 10.8251
3117 3 1.59325 5.51339 10.7206
3089 2 -0.141954 5.33275 9.16624
30 3 5.5867 3.55714 8.8269
45 3 7.33154 7.3369 10.9004
1096 2 3.63479 5.33299 8.93198
2112 3 7.21812 3.54899 10.6768
2616 1 3.58467 3.63971 10.6352
3091 2 7.31569 5.53667 8.88402
3608 3 3.62896 7.02167 10.7776
3607 3 5.54238 5.47044 10.5088
3591 1 5.33982 7.11418 8.87719
46 1 10.5184 7.24945 10.6876
1098 2 10.7116 5.28971 8.98003
1591 3 9.05094 3.55964 9.10826
1588 2 8.99761 7.39253 8.93779
2113 1 10.8104 3.38967 10.6627
3609 2 8.87455 5.25051 10.6047
32 3 12.3865 7.09278 8.91252
34 1 12.5392 3.63219 8.94783
36 3 14.3288 5.17662 8.93655
609 1 14.3464 6.9726 10.7951
3119 2 14.0716 3.70466 10.7791
3611 1 12.484 5.32393 10.7771
1120 1 17.9988 3.77755 10.8202
1615 1 17.9077 7.1198 10.5882
1593 2 17.9757 5.28757 8.96628
2093 2 15.9935 7.01472 9.03611
2595 2 16.2485 3.59417 8.97659
3612 2 16.2566 5.43355 10.6909
48 1 1.81201 8.9271 10.8292
2095 1 0.0511465 8.92066 9.08787
2596 2 1.69033 10.2769 9.12284
3120 1 0.123595 10.7219 10.8519
37 3 3.49042 9.0282 9.11007
49 1 5.42387 9.08516 10.7464
612 2 7.06601 10.7802 10.7191
1105 3 5.37919 10.7395 8.79785
2096 3 7.11018 8.99436 8.71591
3121 2 3.6385 10.7832 10.7099
613 1 8.84029 9.32328 10.7172
598 2 10.6928 8.95708 8.89297
3613 1 10.7418 10.4898 10.5726
3596 2 8.84007 10.6999 8.83698
50 2 14.2292 10.6448 10.499
614 1 12.6926 8.99663 10.7458
2598 3 12.5529 10.64 8.89809
2597 1 14.3533 8.92352 8.98917
51 1 17.7071 10.7557 10.5237
600 2 17.9372 8.9611 9.17125
1122 1 15.8879 9.03099 10.6906
1109 2 15.9875 10.8387 8.94355
616 1 0.283244 14.032 10.7678
601 1 0.250264 12.5033 8.97913
1123 2 1.90176 12.2659 10.7161
3094 3 1.80189 14.3291 8.87079
1124 1 5.32074 12.5332 10.6497
1111 2 5.33109 14.2356 8.97693
1619 1 7.19219 14.0458 10.5539
1618 1 3.36202 14.2574 10.6752
1601 3 6.97124 12.5683 8.64802
3095 3 3.44529 12.551 8.92081
617 3 10.965 14.3181 10.5325
1125 1 9.16703 12.5912 10.7344
3096 2 9.14262 14.0713 8.93511
3598 3 10.7331 12.415 8.90792
1126 2 14.2966 14.3009 10.6432
1113 3 12.4399 14.3201 8.77924
1620 3 12.3801 12.3691 10.767
1602 2 14.1988 12.4881 8.80437
1621 3 15.7767 12.6429 10.6201
3126 1 18.1113 14.0434 10.7289
3102 2 15.976 14.1051 8.98871
3101 3 17.8648 12.3907 8.76946
1623 1 0.137849 18.1115 10.762
2119 3 1.90587 16.1388 10.6352
2606 2 1.87442 17.7939 8.99567
3600 3 0.0403436 16.0465 8.92387
40 2 6.98623 16.0796 8.82443
619 2 3.72082 17.799 10.6996
1127 1 6.94964 17.8101 10.8127
2120 1 5.25626 15.7385 10.6191
2106 1 3.89349 16.3396 8.90971
2105 1 5.82655 17.95 8.85406
1624 1 10.5379 17.9216 10.7278
2108 3 10.6953 16.1325 8.87906
2625 1 9.03926 15.805 10.81
3108 3 8.83246 17.7473 8.71373
603 2 14.0636 15.9602 8.90318
1115 1 12.6514 17.829 9.01119
2626 3 12.4307 16.0324 10.7063
3620 1 14.4167 17.7384 10.6279
2628 2 15.994 16.0532 10.5915
2611 3 17.9503 15.9183 8.92538
3127 2 17.9973 17.8075 10.6642
3111 1 16.2722 17.7181 8.9151
42 3 -0.122122 1.67479 12.4021
2121 1 -0.0796813 -0.123216 14.4107
2629 1 2.12337 1.84719 14.2588
3113 3 1.71311 0.130643 12.4926
43 3 3.58092 1.90964 12.3253
605 1 7.1693 1.82568 12.365
1625 3 7.33759 -0.0507435 14.3126
2123 2 3.6147 -0.0113205 14.1861
3128 2 5.3624 1.64696 14.3149
3605 1 5.2809 -0.00317377 12.6035
606 3 10.6074 1.78243 12.592
1627 3 10.7299 -0.219684 14.4271
3129 3 8.98397 1.83502 14.3679
3606 3 9.03824 -0.248939 12.568
1117 3 14.2772 1.83006 12.5577
2632 3 14.211 -0.0573027 14.2608
3131 2 12.2949 1.86592 14.3828
3114 3 12.4356 0.0875977 12.7535
44 3 16.2169 0.124812 12.3903
501 3 17.6131 0.0851786 14.3099
2614 2 17.8206 1.96704 12.4935
3132 1 15.9478 1.90664 14.4908
607 2 1.70173 3.57475 12.2859
1119 1 1.59086 7.08819 12.5312
1118 2 -0.130856 5.22848 12.5639
2634 2 -0.0451905 7.13288 14.3228
2633 3 0.0535767 3.40077 14.2212
3624 1 1.70853 5.47552 14.2007
60 2 7.24734 7.24401 14.1871
608 1 5.35035 3.53251 12.2877
1612 3 7.18377 5.2608 12.6315
1611 3 5.53156 7.2301 12.6337
1610 1 3.69627 5.11775 12.2715
2128 1 7.05527 3.29907 14.1388
2126 1 3.74644 3.60739 14.3673
3136 3 3.63149 7.04416 14.3259
3626 1 5.40545 5.48552 14.375
1613 1 10.6459 5.36051 12.2006
2114 2 8.99966 7.14487 12.3882
3137 1 10.6117 3.61698 14.1772
3629 2 8.9611 5.18901 14.2302
3628 2 10.5864 7.0527 14.1686
3610 1 8.98364 3.57755 12.3414
610 2 12.5979 3.66161 12.6721
1614 2 14.6217 5.42336 12.684
2617 2 12.4981 7.18764 12.4969
3138 1 14.0226 3.65417 14.3371
3631 3 14.4733 7.25608 14.2003
3630 1 12.4761 5.58891 14.1748
47 2 17.8877 5.65077 12.3109
65 1 16.2709 5.44452 14.4215
1138 3 17.6299 3.62842 14.2029
1121 1 15.9802 3.6131 12.4481
2618 3 16.1296 7.27328 12.3204
3140 2 17.7498 7.121 14.4076
67 2 1.71099 8.81928 14.3483
611 3 2.03713 10.7571 12.5346
2115 1 0.182784 9.13485 12.6455
2636 3 0.340321 10.7724 14.448
69 3 7.01232 10.9692 14.2363
70 2 5.39496 9.14109 14.244
1616 1 5.17898 10.5942 12.4531
2116 1 3.64594 8.79426 12.6034
2619 3 7.18003 9.04842 12.5002
3633 2 3.48038 10.5125 14.2529
71 3 8.93474 9.11131 14.2415
2117 3 9.05198 10.9586 12.3247
2620 3 10.7326 9.03201 12.4339
3141 3 10.777 10.7429 14.3761
510 3 12.2278 8.73767 14.1428
1617 1 12.5593 10.5519 12.401
3122 2 14.3046 8.7822 12.5765
3635 2 14.1462 10.5719 14.1422
511 3 16.0395 9.10629 14.4687
615 1 17.8105 8.79851 12.4319
1639 3 17.7601 10.8832 14.3421
2118 3 16.0786 10.9903 12.3583
513 3 0.0164996 14.0738 14.2545
514 3 2.09228 12.3857 14.4039
2621 2 0.137426 12.5097 12.6176
3123 2 1.88171 14.1467 12.6748
72 3 7.24727 13.9236 14.1701
515 3 5.30011 12.4943 14.1911
516 3 3.52991 14.0319 14.4287
3125 1 6.97895 12.3434 12.3003
3124 2 3.6025 12.5482 12.6051
3614 3 5.38775 14.267 12.4509
73 2 10.8207 14.4296 14.366
1145 3 9.07555 12.4722 14.2649
3616 1 10.7558 12.6915 12.5267
3615 1 8.93141 14.3552 12.4764
1147 3 12.4955 12.5612 14.2735
1146 3 14.1948 14.3804 14.1888
2622 2 12.5561 14.4587 12.6442
3617 3 14.1921 12.5292 12.4877
1149 3 16.1082 12.6237 14.23
1622 3 18.1898 12.1993 12.4802
3146 2 17.8442 14.2622 14.2081
3618 2 16.0457 14.2479 12.3969
52 3 0.129197 16.042 12.4165
518 3 0.124574 17.6908 14.1477
1150 2 2.03471 15.8446 14.481
2623 1 2.08594 17.6533 12.4014
53 1 3.60733 16.1441 12.5932
618 3 7.0714 16.016 12.6081
1151 2 3.6553 17.699 14.4214
1642 1 5.22248 16.0166 14.3613
2142 2 7.1185 17.9926 14.5538
2624 3 5.49847 17.6829 12.7906
54 3 10.6793 16.0536 12.4032
1643 1 8.93336 16.1825 14.3017
2649 2 10.8157 17.7396 13.9813
3619 3 8.72274 17.7753 12.5876
55 2 12.3938 17.9068 12.3852
620 1 14.3048 16.0206 12.4043
1646 2 12.5107 16.1104 14.1202
1644 2 14.3434 17.7197 14.2187
56 3 16.0753 17.7152 12.4019
1647 3 16.0511 16.0541 14.3467
2627 3 17.9026 16.1188 12.4394
3644 3 17.8831 17.8899 14.2843
57 3 1.83141 0.0224558 16.2246
621 3 0.102969 1.7874 15.9326
1128 2 0.031181 -0.0989111 18.032
2122 3 1.66586 1.79785 17.8653
58 3 5.56731 -0.0866255 16.049
1132 1 7.12138 -0.232449 17.8196
1131 2 7.32996 1.69481 16.1205
1130 2 3.69362 -0.0750183 17.8412
1129 2 3.43811 1.68561 16.0837
2630 2 5.47338 1.64768 17.8764
1133 1 10.5441 1.73546 15.9906
1626 1 10.7699 -0.191301 17.7457
2631 1 9.0488 1.69758 17.9046
3621 2 8.91382 -0.117853 16.189
59 3 12.6219 -0.102804 16.0429
1134 2 14.2038 2.01278 16.1368
2124 3 14.207 0.168975 17.6136
3130 3 12.3064 1.87249 17.6715
502 2 15.9086 0.0352131 16.0053
3133 3 16.1413 1.85125 17.9041
3623 1 17.9199 0.00738172 18.0809
3622 1 17.7486 1.88439 15.911
503 3 1.80912 3.79063 16.0077
504 3 1.90564 7.31931 16.1014
1628 1 0.133156 5.21118 16.0903
2125 1 0.154086 3.63285 17.771
3134 1 0.159662 7.24315 17.7094
3625 3 1.87622 5.56099 17.8482
61 1 5.33442 3.7449 16.4301
505 3 3.72919 7.29918 17.9644
1135 1 7.03331 7.16115 17.8437
1631 3 5.39927 7.2095 16.1259
1630 3 3.60023 5.57266 16.1507
1629 3 7.28062 5.36504 15.9064
2127 2 3.45915 3.58456 17.8489
3135 3 7.23701 3.65869 17.9476
3627 2 5.22811 5.35078 17.7835
62 2 9.01302 5.62778 17.836
63 2 10.8245 7.27693 17.8087
506 1 8.92377 3.59387 16.1681
1632 2 10.8588 5.54119 15.9439
2129 3 8.81655 7.15654 16.1468
2635 2 10.5614 3.68161 17.781
64 2 12.3635 5.35444 18.0598
1137 3 14.296 7.21831 18.0786
1136 1 12.3674 3.75814 15.9905
2131 1 14.1584 5.61676 16.2456
2130 1 12.3463 7.19538 16.1116
3139 3 14.0468 3.67863 17.8529
66 1 17.9301 5.30791 16.1619
507 2 16.1736 5.64547 17.8285
1140 3 17.8095 3.58894 17.7926
1139 3 15.9227 3.68902 16.2334
1634 2 17.7113 7.34703 17.9061
1633 1 15.8529 7.33218 16.228
508 3 1.84948 8.92933 18.2122
1141 2 1.87574 10.5455 16.4305
2132 1 0.120478 8.94265 16.1964
3632 1 -0.151195 10.5426 17.9882
68 1 3.74195 10.5998 18.1534
509 1 7.2645 10.7353 18.0324
1142 1 5.26758 8.93097 18.1438
1635 2 5.60529 10.9064 16.1991
2134 2 7.15317 8.96446 16.0277
2133 3 3.80061 8.96933 16.0479
1143 1 8.7829 8.83522 17.8034
1636 1 8.80674 10.7417 15.9578
2637 1 10.7413 8.83871 16.0427
3634 1 10.5712 10.5896 17.876
1144 3 12.5107 10.9521 16.2142
1638 3 12.6555 9.16834 17.865
1637 1 14.4504 11.1056 18.0191
2638 3 14.3 9.10438 16.175
512 2 17.7829 9.00563 16.0452
1640 1 15.8699 8.99125 18.0519
2135 2 16.2185 10.8096 16.2384
2639 3 17.8727 10.6996 17.9636
2137 3 0.134888 14.2394 18.0895
2136 2 1.75747 12.5046 18.0177
2641 3 1.71303 14.3028 16.2367
2640 3 0.186627 12.4317 16.2759
2140 1 7.12083 14.2044 17.9932
2139 3 3.4961 14.1477 18.2312
2138 2 5.31906 12.4199 18.0331
2643 3 5.24229 14.1279 16.4789
2642 1 3.5339 12.2701 16.3263
3142 3 7.18423 12.6332 16.197
2141 2 8.97063 14.1555 16.0346
2645 1 8.88741 12.5821 17.8733
2644 3 10.7573 14.3933 17.9316
3143 3 10.6938 12.6022 16.2398
2647 1 12.4579 14.1563 16.0526
2646 3 12.661 12.7048 18.1571
3145 3 14.4207 14.3341 17.7724
3144 3 14.4523 12.6163 16.0464
517 3 17.8938 14.6402 17.7668
1148 3 17.9882 12.6076 16.0503
3148 1 16.122 14.3553 16.0276
3147 1 16.3879 12.5849 17.9235
2648 3 1.75569 17.8554 16.0211
3150 1 1.84964 16.0034 17.9357
3149 3 -0.103874 15.8912 16.0606
3636 1 0.0145846 18.0468 17.7578
1641 2 3.56831 17.7663 18.1682
2143 1 7.25542 17.6832 18.0182
3640 3 5.60529 17.7248 16.4755
3639 1 7.09544 16.0402 15.8621
3638 2 5.54077 15.8887 18.0381
3637 3 3.8712 16.1715 16.324
74 2 9.06586 17.8488 15.8148
519 1 10.7526 17.918 17.7604
3642 3 9.01686 15.9342 17.7962
3641 1 10.9426 15.9433 16.2321
75 1 12.6048 15.8888 17.8355
76 2 12.3262 17.8567 16.0727
1645 2 14.1102 17.9255 17.8272
3643 2 13.9542 16.1628 16.0261
77 3 15.8712 16.1497 17.7135
2144 1 18.2536 16.0206 15.7936
2650 3 17.7806 17.722 17.6529
3645 2 15.9858 17.6998 16.0315
520 1 0.0567405 -0.0482071 21.3105
78 1 0.171362 1.73978 19.8982
2145 1 1.96258 1.61361 21.6227
3151 1 1.9539 -0.0674794 19.7071
521 3 3.52326 -0.140003 21.5464
80 2 3.6041 1.77376 19.5341
79 1 7.12931 1.67114 19.5207
2147 3 5.34151 1.89089 21.4402
2146 3 7.25744 -0.131327 21.2673
2651 2 5.2937 0.0877435 19.8142
81 3 10.7645 1.79142 19.5951
1648 1 10.6409 0.0292105 21.5597
2652 2 9.00591 1.83845 21.3738
3152 1 9.03361 -0.0195162 19.5399
522 3 14.1707 1.79425 19.2915
1649 3 14.1582 0.107892 21.2891
2653 3 12.4272 1.67595 21.3648
3646 1 12.5296 0.023571 19.7212
82 2 18.0051 0.124929 21.3857
2654 3 17.7413 2.0417 19.6912
3153 1 16.0691 1.81022 21.4343
3647 1 15.9959 0.102302 19.6786
523 1 -0.00988223 5.37405 19.5695
84 3 1.84579 7.02928 19.7567
83 3 -0.210295 7.26437 21.2506
1650 1 0.121743 3.5265 21.4825
3155 3 1.78813 5.43948 21.535
3154 3 1.7747 3.61321 19.6766
524 2 3.57879 5.29656 19.7641
525 3 7.01481 5.42703 19.7088
526 3 3.59214 7.17412 21.8452
1153 2 7.03304 6.98191 21.5234
1152 3 5.22059 7.126 19.8377
2655 2 3.57609 3.51473 21.3296
3156 2 7.16905 3.49741 21.648
3649 1 5.32733 3.52679 19.6307
3648 2 5.32267 5.25979 21.4427
86 2 10.765 7.15654 21.3263
85 3 8.9796 3.50405 19.6314
1155 1 10.6171 5.35337 19.5782
1154 2 8.97326 7.15943 19.6066
2656 3 10.6907 3.74757 21.5227
3650 2 9.01102 5.30533 21.4712
527 2 12.3797 7.35107 19.5662
88 1 12.3589 5.39879 21.2759
87 2 12.2952 3.64852 19.7429
1156 1 14.0285 5.44945 19.7296
2148 2 14.2859 7.38083 21.4003
2657 3 14.0806 3.3962 21.4478
528 1 17.9425 3.66017 21.4626
89 3 16.1969 5.22766 21.3904
1157 2 16.0808 7.2354 19.7542
3158 1 17.9497 5.38849 19.6269
3157 3 17.9705 7.06487 21.3111
3651 3 15.9999 3.85366 19.5764
529 2 1.6779 8.92166 21.5487
530 1 1.50864 10.6338 19.8438
1158 1 -0.0661856 8.81628 19.7917
3652 2 -0.208544 10.4772 21.5208
531 1 5.48791 9.02899 21.6554
532 3 5.53198 10.6833 19.7458
533 2 7.29793 10.4858 21.6293
1159 3 3.48923 8.97707 19.8501
1651 3 7.07207 8.69587 19.711
3653 3 3.59747 10.6866 21.6669
90 2 8.82572 10.63 19.6076
1161 2 8.81135 8.81952 21.483
1160 3 10.8468 10.9526 21.384
1652 3 10.6027 8.99164 19.6419
534 1 12.3643 10.8094 19.5935
1162 3 12.5142 8.89091 21.252
1654 2 14.1324 10.7477 21.4517
1653 2 14.2855 9.078 19.746
1656 2 16.0228 10.9009 19.6674
1655 3 16.0494 9.24618 21.3282
3159 2 18.0344 10.7629 21.5797
3654 1 17.9322 9.03907 19.5525
1660 2 0.054435 14.2376 21.4939
1659 2 1.84426 14.3073 19.9766
1658 2 1.50245 12.3056 21.6597
1657 2 -0.224648 12.3236 19.7578
1163 2 5.55878 14.3609 19.9284
1661 3 3.69149 14.1811 21.5444
2151 2 7.34531 12.4023 19.7632
2150 3 5.56087 12.3299 21.7113
2149 1 3.57546 12.5221 19.7521
3160 1 7.25964 14.1336 21.5266
1662 3 8.79042 14.3129 19.5994
2153 3 8.97155 12.4688 21.4815
2152 2 10.7415 12.4186 19.6887
2658 3 10.5656 14.2926 21.4147
2155 2 14.3734 12.6641 19.7576
2154 2 12.4653 14.2962 19.5681
2660 3 14.4031 14.5405 21.4389
2659 1 12.4368 12.7384 21.384
535 2 17.902 12.7302 19.8054
1164 3 17.7654 14.317 21.3752
2156 3 16.0661 14.4839 19.7659
2661 1 15.9754 12.3345 21.5625
1165 2 0.223945 17.8941 21.4519
2157 2 1.8176 17.8576 19.633
2662 1 0.103455 16.1133 19.6528
3161 1 1.98987 16.1286 21.6064
1664 1 7.22373 17.6612 21.6619
1663 1 3.63326 18.0547 21.4377
2664 1 3.58187 15.9867 19.7208
2663 2 7.13451 16.1223 19.722
3163 1 5.3891 15.9702 21.6805
3162 1 5.53531 17.9707 19.7947
536 2 10.5445 17.7204 21.4541
2665 1 10.6234 16.062 19.5863
3164 1 8.69145 17.8021 19.7395
3655 2 8.94225 15.9532 21.378
2666 3 12.438 17.677 19.5255
3166 2 14.2784 16.1411 19.6098
3165 3 14.096 17.8094 21.5122
3656 1 12.4249 16.0651 21.4256
92 2 16.1563 16.1713 21.5888
91 1 18.0722 17.9481 21.5845
1166 1 17.7861 16.1857 19.5296
3167 1 16.0002 17.7073 19.7541
93 1 1.85885 1.77984 24.7145
1665 2 1.69292 -0.0645 23.2305
2667 2 0.0355851 0.0725473 24.9792
3168 1 -0.0472114 1.58677 23.0864
2158 3 5.29561 0.0466259 23.2377
2670 3 3.4655 -0.0596553 25.2384
3170 2 7.16691 1.63781 23.1187
3169 3 3.68653 1.83512 23.254
3659 3 6.96829 0.184504 24.9324
3658 2 5.10608 1.70891 25.1491
537 3 8.84884 1.84757 25.028
2671 2 8.70679 -0.039708 23.2469
3171 1 10.5089 0.052791 24.8339
3660 1 10.8231 1.61011 23.1682
2673 2 12.595 0.109729 23.4036
3663 2 14.2646 1.85831 23.3441
3662 2 14.2749 -0.131888 24.9222
3661 2 12.4595 1.71948 25.2051
539 1 16.2766 1.68598 24.9083
1167 3 18.0738 0.0118775 25.0272
1668 3 18.002 1.94031 23.0638
2160 1 16.0704 0.0380357 23.1874
99 2 1.73222 5.23937 25.2869
98 2 1.81415 7.1517 23.6897
97 2 0.037475 7.02924 25.199
96 2 0.00785066 5.66126 23.158
3173 1 1.88644 3.67615 23.3602
3172 1 0.114975 3.52449 24.7103
540 3 3.86818 7.28053 25.1457
541 1 5.35862 7.18902 23.3088
542 2 7.06025 5.32171 23.2083
543 2 5.46762 5.20883 24.8576
101 2 7.17594 7.11839 25.0645
100 3 3.41487 5.47238 23.5281
2675 2 7.17843 3.46752 25.0362
3175 2 3.29622 3.40926 25.1996
3665 2 5.36362 3.59189 23.3563
546 3 8.92543 7.02032 23.0743
547 1 9.03248 5.26284 24.8093
102 2 10.9653 5.44051 23.2267
1170 3 10.75 7.07996 24.9655
3177 3 10.7879 3.49847 24.9275
3666 1 9.00858 3.55151 23.3227
548 3 14.5946 5.18338 23.2271
549 2 12.604 5.4424 25.0674
105 1 14.2766 3.54135 25.1123
1670 2 12.5865 7.0381 23.0094
3179 1 12.4857 3.46731 23.3139
3667 1 14.3063 7.02936 24.7943
1172 1 16.2121 5.14702 24.9035
1672 1 18.0147 3.54539 24.8589
1671 2 16.1553 6.98763 23.2436
2678 3 17.9081 7.16533 25.1023
2677 2 17.8647 5.3017 23.2762
3668 2 16.2183 3.31288 23.0633
550 3 0.0633531 8.96526 23.1404
106 1 1.70115 10.8606 23.1933
1175 2 1.75207 8.92548 25.2333
3669 1 0.00908988 10.7006 25.2997
108 3 5.48878 10.6754 23.347
1180 3 7.4121 10.5978 24.9496
1178 2 7.1843 8.86026 23.367
1177 3 3.78935 8.95888 23.3474
1176 2 5.53049 8.85487 25.2394
3670 3 3.5224 10.6291 24.8622
551 1 10.6852 10.7961 25.2035
552 2 9.12839 10.5549 23.2075
1181 1 8.91916 8.78926 24.9655
1674 2 10.8914 8.745 22.9798
1182 1 12.2906 10.8114 23.0673
1676 2 12.4272 8.94534 24.8877
1675 3 14.2574 9.08749 23.2127
2163 1 14.4581 10.6755 25.1582
1183 1 16.0911 9.00692 25.0078
1677 3 16.0949 10.7117 23.3085
2165 2 17.7417 10.5765 25.1942
3671 3 17.5973 8.70492 22.9992
555 2 0.0391217 14.4551 24.877
1184 3 1.93357 14.2225 23.3227
1678 3 1.90993 12.4623 25.0568
2166 3 0.00598975 12.4795 23.3146
113 3 7.15649 14.3519 24.9851
1185 2 5.59511 12.4664 25.0537
2170 2 5.38391 14.1097 23.1746
2169 1 3.59208 12.5907 23.4242
2168 2 3.73718 14.3409 24.9576
2167 2 7.24815 12.3437 23.2239
1680 3 10.8354 14.2255 25.0609
2171 3 10.5383 12.5594 23.3393
2682 2 8.78319 14.2344 23.2701
2681 2 8.93809 12.5147 25.0256
114 1 14.3674 14.3253 25.2017
1681 1 12.7101 12.3619 25.0171
2684 2 14.4034 12.5949 23.3429
2683 2 12.5984 14.2705 23.4228
557 1 17.7617 12.8818 23.3988
2173 1 16.2737 14.4401 23.277
2685 2 16.141 12.6146 25.004
3183 2 17.7203 14.487 25.1731
1684 3 1.80043 16.1762 24.9933
1683 2 1.90419 18.0246 23.3371
2688 1 0.200449 16.2622 23.1559
2687 2 0.140414 17.9357 25.0934
2175 1 7.10533 17.8004 25.0744
2174 2 5.43533 17.84 23.3265
2689 2 3.67702 17.7622 25.0704
3187 2 5.32136 16.1348 24.765
3186 2 7.25963 16.0714 23.3583
3185 1 3.74391 15.9993 23.1364
1687 2 8.97341 17.8879 23.2033
1686 1 8.90007 15.9925 24.9103
2177 2 10.854 17.8145 25.256
3675 2 10.7261 15.9248 23.1815
2178 2 14.1444 17.65 25.0049
2690 2 12.3941 17.9914 23.3225
3188 2 12.4817 16.2954 25.3066
3676 1 14.2011 15.9955 23.3935
1187 3 18.0607 16.1352 23.1248
1186 1 17.9184 17.5924 24.8826
1689 3 16.1614 16.127 25.2902
3189 1 16.0546 17.7427 23.1867
1188 1 0.147483 -0.210327 28.9033
2180 1 1.89902 1.78148 28.6262
2668 2 1.69815 -0.114275 27.0311
3657 3 0.344041 1.90901 26.6165
559 2 7.06149 -0.0992023 28.5622
94 2 6.83855 1.72235 26.9034
1189 2 3.5138 0.0170287 28.7157
1666 1 5.35741 -0.00396951 26.8256
2181 2 5.30724 1.62779 28.5669
2669 1 3.42959 1.6959 26.9299
560 3 10.5216 -0.0355042 28.6856
95 3 8.79999 -0.023654 26.6737
2182 2 8.90368 1.61789 28.3964
2672 2 10.6721 1.80865 26.6699
538 2 14.5777 1.67822 26.8157
1667 1 12.1607 -0.101083 26.577
2184 1 12.4413 1.88453 28.4238
2183 1 14.2593 -0.0819031 28.7078
2159 3 18.1578 1.87904 26.8197
3193 1 16.2229 1.69641 28.6642
3679 3 18.1202 0.249101 28.4721
3664 3 16.0817 -0.00207212 26.7964
1168 3 1.89198 3.58858 27.1761
1669 2 2.08161 7.09457 26.5616
2186 2 0.0203399 7.42016 28.959
2185 1 0.0787056 3.64966 28.7791
2674 2 0.0727222 5.44981 27.1658
3194 2 1.91432 5.51702 28.6594
544 2 3.73782 5.20105 26.8052
563 1 7.10517 7.18408 28.5059
1691 3 7.08241 3.51785 28.5319
1690 1 3.90371 3.60736 28.6291
2676 3 7.19892 5.34533 26.7007
3196 3 3.69519 7.25349 28.5711
3195 3 5.42337 5.35039 28.3635
3176 1 5.37735 3.6486 26.646
3174 3 5.52183 7.32933 27.0483
545 1 10.7275 5.46937 26.6181
1171 2 8.98889 3.72168 26.7994
1169 1 8.74512 7.00018 26.8655
2694 2 10.6108 3.58618 28.4549
3197 1 8.83587 5.21925 28.6238
3681 1 10.1888 7.13181 28.5849
104 2 12.4022 3.41841 26.8742
103 3 14.3556 5.56741 26.7517
2695 1 14.5329 3.49129 28.439
3178 2 12.5755 7.23326 26.7072
3684 1 14.2223 7.28095 28.6544
3683 2 12.3837 5.54757 28.431
622 3 17.9503 3.59661 28.5085
1004 3 17.901 7.0732 28.4989
1174 1 16.1079 7.04555 26.5821
1173 3 17.8548 5.14117 26.6835
3180 3 16.3622 3.34997 26.7602
3685 2 16.0184 5.36456 28.4982
1673 3 -0.0503799 8.70873 26.9539