ITEM: TIMESTEP
5000
ITEM: NUMBER OF ATOMS
4000
ITEM: BOX BOUNDS pp pp pp
9.5958067961195326e-02 3.5638101932038623e+01
9.5958067961195326e-02 3.5638101932038623e+01
9.5958067961195326e-02 3.5638101932038623e+01
ITEM: ATOMS id type x y z
1 3 0.194397 1.72024 1.60895
1563 1 0.164089 0.0637478 0.0206639
2064 2 1.86324 1.89168 0.00400884
3561 2 2.08539 0.0210735 1.96642
564 3 3.47491 1.86493 1.79171
565 3 7.19659 1.95187 1.83364
1565 3 7.18607 0.124421 -0.129655
2065 3 3.67774 0.0594386 0.0544594
3061 3 5.50742 1.77424 0.0455994
3562 1 5.19855 0.00705212 1.75117
566 2 10.8628 1.85755 1.84627
1070 1 11.0074 0.0784923 0.0535431
3063 1 8.99093 -0.0107025 1.78228
3062 1 9.15787 1.7857 0.238209
567 2 14.4967 1.9055 1.90235
2566 1 14.5193 0.29016 0.172906
3064 2 12.6282 1.8515 0.0118394
3563 3 12.7631 0.179901 2.03005
2 3 17.847 0.217283 0.137327
3 3 16.2786 0.204629 2.03865
3066 2 17.989 1.91991 1.90423
3065 3 16.2666 1.90358 0.151683
4 2 1.8153 5.41694 -0.0332985
5 1 1.84779 3.63967 1.69873
6 2 1.98395 7.27207 1.69842
1071 2 0.144201 5.58121 1.96036
3067 1 0.0470303 3.65046 0.133442
3565 1 0.117805 7.22346 0.131052
7 3 5.44321 5.43582 0.0772311
8 1 3.56956 7.19279 0.0712339
1072 1 7.19614 5.33921 1.90121
1075 1 5.39678 7.16683 1.88283
1074 3 3.56525 5.48118 1.59826
1567 3 7.26474 7.13745 0.0891978
2570 3 7.26901 3.67354 0.027991
2569 2 3.63946 3.71017 0.0143481
3569 1 5.16091 3.61723 1.74204
9 1 8.94512 5.34492 -0.0067531
10 3 9.05759 3.6482 1.83956
1077 1 10.9406 7.04354 0.154028
1076 1 11.0019 5.2788 1.73642
1568 1 9.13075 7.02255 1.59269
3068 3 10.8219 3.50288 0.0926936
11 2 12.5638 5.31753 0.204169
12 3 14.3751 3.4962 0.181834
570 1 12.6859 3.44425 1.98983
1571 3 14.3938 7.21616 -0.0358662
1570 1 14.3044 5.49391 1.72158
1569 2 12.6095 7.09473 1.89857
572 3 16.2239 3.58229 1.86919
1081 3 16.0837 7.2982 1.98978
1079 2 17.8279 5.42348 1.74937
1078 3 16.2092 5.28527 0.0707189
1573 2 17.9841 3.64562 0.131345
2070 1 17.8583 7.34946 0.117805
575 2 1.88694 10.9231 1.84802
1082 2 1.90216 9.13924 0.222343
1574 2 0.0590281 9.16718 1.86914
3070 1 0.122663 10.8325 0.0328373
576 3 3.74941 10.793 0.15691
1085 3 5.43453 9.0512 0.0953455
1083 1 5.23075 10.8453 1.98627
1577 1 7.26821 10.6277 0.117161
1576 2 7.06097 9.00535 1.8835
1575 3 3.66558 9.01859 1.9223
14 2 10.763 10.7167 0.0723851
1087 1 9.07119 10.9698 1.69484
1086 1 9.07973 8.89572 -0.16632
2071 1 10.9156 8.90899 1.80856
580 3 12.575 10.7474 1.73705
1088 3 14.2956 10.7262 0.0869731
2073 3 12.5419 9.02832 -0.0102377
2074 1 14.2597 8.90467 1.86381
15 2 18.0253 8.94074 1.77173
1581 1 16.0942 10.4582 1.80846
2076 1 17.8883 10.7526 -0.024959
2075 2 16.082 9.01969 -0.0440278
2079 2 1.94141 12.6072 0.0119227
2078 2 1.84229 14.4669 1.94271
2077 3 0.112822 12.7949 1.93062
2572 2 0.224927 14.4169 0.1441
2082 1 5.43969 14.2969 1.84133
2081 1 3.54314 12.7713 1.87617
2080 2 5.58828 12.4861 -0.0552555
2576 2 7.23735 14.3568 0.111403
2575 2 7.18509 12.534 1.68063
3071 1 3.58731 14.3854 0.216769
1583 3 9.01835 14.2552 1.8387
2084 2 10.7218 14.3577 0.0126463
2579 1 10.7335 12.4246 1.84261
3073 1 8.81308 12.6246 -0.154405
2085 3 12.4315 14.1923 1.82175
2580 1 14.2737 12.4018 1.97747
3074 3 12.5349 12.4827 0.231197
3574 3 14.3302 14.2983 0.193265
581 2 17.7695 12.6451 1.81008
1089 3 17.6546 14.358 0.0188841
2583 1 15.9977 14.1789 1.85879
3075 2 16.022 12.5587 0.295005
16 1 -0.0320968 18.0905 0.298306
2086 3 1.98987 17.8719 1.73828
2584 2 0.0955009 16.2575 1.81632
3076 1 1.92481 16.2097 -0.0292003
17 2 5.30689 16.0302 0.00545197
1090 3 3.6912 18.0206 0.124648
2585 2 7.29863 17.9747 0.127673
3079 3 5.44008 17.954 2.02481
3078 2 7.06822 16.1214 1.81221
3077 3 3.65637 16.1585 1.88534
18 3 8.89992 16.0538 0.0705443
1585 2 10.7745 17.8185 0.0225358
3080 1 10.7195 16.0699 1.78271
3578 2 8.89893 18.0673 1.88352
19 2 12.6842 16.1312 0.0911283
2088 2 14.3426 17.8901 0.296718
3081 1 14.218 15.9794 1.83285
3581 2 12.4631 17.7418 1.90327
20 1 16.193 16.3512 -0.0159826
1586 2 17.615 16.1019 1.81615
3083 2 16.0019 17.8804 2.00458
3082 1 17.9813 18.0363 0.0500578
584 1 1.77464 2.0072 7.27629
1564 3 0.0722878 0.114135 3.51262
2588 1 1.84559 0.0280674 5.57053
2563 1 1.77296 1.84106 3.60613
3084 2 0.116402 -0.039101 7.23559
3583 1 0.180015 1.90506 5.51558
22 1 5.37957 1.94296 7.23139
1069 1 3.56132 0.159244 3.95474
1566 2 7.29946 0.165663 3.70309
2089 2 5.34562 0.102645 5.60194
2590 2 3.53415 0.0661143 7.22904
2564 1 5.34531 1.89149 3.5543
3085 2 7.25868 0.0608521 7.22345
3585 3 3.42934 1.986 5.41877
3584 3 6.93638 1.79985 5.44823
586 3 8.99312 1.90325 7.3747
2066 3 10.8715 -0.00996123 3.71398
2593 2 8.84945 0.342617 5.61076
2565 3 8.9176 2.05313 3.52827
3086 3 10.7302 0.0325854 7.33337
3586 3 10.7369 1.85009 5.5178
23 1 12.4852 1.85435 7.08788
24 2 14.4202 0.238883 7.34431
25 2 14.3801 1.81373 5.42441
2568 2 14.3319 0.18341 3.77663
2567 3 12.4631 1.88954 3.79334
3087 1 12.6714 0.0983476 5.39559
568 1 18.0173 0.231453 3.75522
588 2 16.0925 2.10293 6.87666
1587 1 18.0242 0.187225 7.12266
3088 1 16.1644 0.100022 5.5206
3588 2 17.9918 2.00409 5.3987
3564 3 16.2268 2.00407 3.88623
27 1 2.07681 5.34594 7.11243
28 3 1.94273 7.07557 5.5983
589 1 0.00648122 5.47162 5.5564
2067 1 0.225321 3.59875 3.53343
3090 2 1.67631 3.66563 5.39276
3590 1 0.099754 7.29235 7.19872
3589 3 -0.0388936 3.65685 7.06238
3567 3 0.112117 7.33284 3.82716
3566 3 1.86542 5.68981 3.64685
29 3 3.81632 3.63601 7.14513
593 2 3.75971 7.10759 7.16838
592 3 7.09468 5.45132 5.34762
591 3 7.29278 7.13972 7.10737
590 1 3.66723 5.24799 5.42832
1095 1 5.51051 5.46636 7.3366
1094 3 5.439 7.30463 5.52012
1073 1 3.82327 7.15762 3.55284
2068 3 7.08952 7.16446 3.58108
2069 1 3.4242 3.61722 3.4896
3593 2 5.31595 3.70225 5.41184
3592 3 7.22671 3.4673 7.13626
3570 2 5.41577 5.2877 3.62525
3568 3 7.23195 3.62859 3.68853
31 1 8.88478 3.55142 5.37194
569 2 10.8327 7.10431 3.55293
594 3 10.6979 5.36414 5.30296
1097 3 8.79685 5.32977 7.40294
1590 3 8.91198 7.06065 5.29211
1589 3 10.7524 7.19691 7.07541
3594 3 10.7367 3.75203 7.24634
3572 2 10.9091 3.61612 3.53179
3571 1 8.95072 5.41067 3.57925
33 2 12.5582 3.58209 5.59758
35 3 14.4661 3.82744 7.06588
571 2 12.5736 5.41877 3.75183
595 1 14.2222 7.39725 7.14891
1100 3 14.3003 5.47754 5.39798
1099 1 12.6029 5.50535 7.19107
1592 2 12.5512 7.18513 5.38785
1572 3 14.3343 7.10861 3.6643
3069 2 14.3437 3.71344 3.76865
573 2 15.9906 5.30387 3.49299
1080 2 18.0051 3.68249 3.64048
1595 1 15.9092 7.18683 5.44256
1594 1 16.3308 5.612 7.29029
2094 3 17.9153 7.37585 7.19106
2092 3 18.0289 3.59268 7.14932
2571 2 17.8993 7.0848 3.7345
3092 1 17.8772 5.40654 5.41518
3595 3 16.2478 3.86076 5.35985
13 1 0.299234 10.7705 3.7304
597 3 0.206627 10.6653 7.18719
596 3 1.90912 10.9292 5.46825
574 3 1.74194 8.88892 3.65679
1102 3 1.97457 8.86667 7.22976
1101 1 0.201157 8.94227 5.50489
38 1 3.64693 10.8065 7.35158
578 2 3.54426 10.8172 3.50732
577 1 5.34214 9.13444 3.64168
1106 2 7.35759 10.6012 7.00677
1104 3 5.35706 10.8301 5.33428
1103 2 3.51371 8.9721 5.42915
1084 1 7.35137 10.8581 3.66172
1597 3 7.28798 9.0627 5.28596
1596 3 5.48825 9.04981 7.16831
39 1 10.5141 10.7435 7.3678
599 3 9.05251 10.6796 5.20361
579 2 10.8366 10.7641 3.50877
1107 1 9.10424 9.01523 7.03008
1578 1 9.14908 8.81894 3.50828
2097 3 10.9795 9.02266 5.38354
1108 1 12.4754 10.759 5.35783
1598 1 12.3505 8.8949 7.2696
1579 2 12.5258 9.03828 3.53937
2072 2 14.2177 10.8635 3.66593
2099 2 14.2929 10.6262 7.11113
2098 3 14.1276 9.06095 5.30163
1599 1 16.1981 9.18488 7.23973
1580 3 16.0386 8.98133 3.7627
2100 3 16.1145 10.7631 5.42828
3093 3 17.9379 10.8072 7.17517
3597 3 18.0044 9.07187 5.32533
3573 1 18.0702 10.8286 3.59858
1110 2 0.133184 14.2019 7.32076
1582 2 1.83945 12.5448 3.62447
2103 1 1.91861 12.5058 7.03158
2102 3 1.79738 14.1688 5.43748
2101 3 0.00626395 12.6102 5.56513
2573 3 0.0709697 14.3658 3.77668
1112 1 7.12716 14.3519 7.22937
1600 1 5.51592 12.5299 7.11053
2104 2 5.59879 14.313 5.43784
2083 3 3.51534 14.291 3.63634
2601 2 7.22202 12.6488 5.4194
2600 1 3.75931 12.4598 5.16511
2599 1 3.63985 14.4704 7.10142
2577 2 7.13888 14.399 3.55774
2574 1 5.46817 12.5213 3.61243
2604 3 8.98196 14.1811 5.4611
2603 2 10.7362 14.004 7.21572
2602 1 10.7255 12.421 5.43349
2578 2 9.15604 12.5218 3.72732
3097 2 8.83049 12.4759 7.12629
3072 2 10.7861 14.2642 3.69934
602 3 14.4959 14.2958 7.10729
1603 3 12.4585 12.5776 7.12849
2605 1 14.5244 12.5253 5.3438
2581 3 12.472 12.5997 3.79844
3098 3 12.4431 14.3577 5.50731
3575 3 14.1378 14.3674 3.62954
1114 3 17.9774 12.5104 5.27836
1584 2 17.9553 13.9745 3.48714
2582 3 16.2173 12.376 3.457
3100 3 16.2255 14.2316 5.47612
3099 2 16.1661 12.4242 7.09773
3599 1 17.9522 14.3239 7.1762
582 1 0.165899 17.86 3.66925
1605 2 1.7691 17.8075 5.47235
1604 1 1.7834 16.145 7.26959
3104 2 0.0509558 16.1443 5.65212
3103 1 0.182471 17.8326 7.23488
3576 2 1.78946 16.0354 3.70237
2087 1 3.55682 17.7695 3.64201
2607 1 5.43196 17.8143 5.32175
2586 1 7.33686 17.6063 3.61648
3107 1 7.19099 17.9304 7.3779
3106 2 5.48371 16.0498 7.22996
3105 3 3.63956 17.7684 7.15055
3602 3 3.75539 16.0344 5.26341
3601 1 7.36524 15.8825 5.28539
3577 2 5.3911 16.0153 3.55963
1091 1 10.66 17.8393 3.65982
2107 3 8.94172 15.9171 7.1654
2608 1 9.03091 17.9563 5.4676
3109 1 10.8156 17.9944 7.09379
3603 3 10.6755 16.1579 5.40172
3579 3 9.01861 16.0581 3.41852
41 3 14.1766 16.1274 5.17831
2610 1 12.4481 17.8038 5.44613
2609 1 14.1718 17.8334 7.17254
2587 1 14.2081 18.0211 3.66184
3604 3 12.3984 16.1881 7.24532
3580 3 12.4458 16.0269 3.64816
583 1 16.1073 16.0044 3.58698
1606 1 17.7762 17.8723 6.96269
2109 1 16.1449 16.1654 6.93759
3112 1 16.1397 17.7709 5.37818
3110 2 17.8708 15.9028 5.41969
3582 3 17.8346 17.8507 3.62158
21 2 0.114495 1.70193 8.9848
604 3 0.0885174 0.124821 10.7873
2110 3 1.86568 1.8804 10.8213
2589 1 1.93612 0.236294 8.83123
585 2 7.14965 1.90051 9.11022
1092 3 5.27195 0.116258 8.91388
1608 3 7.18169 0.0919678 10.7792
1607 2 3.59814 0.0649401 10.7153
2111 3 5.60347 2.01243 10.8271
2591 3 3.66086 1.76502 8.8328
1116 2 10.8112 0.254394 10.7056
2612 3 8.98336 1.83473 10.8725
2592 3 10.6287 1.83424 9.05925
3587 1 8.96236 0.123289 9.00221
587 3 14.3574 1.93216 8.99169
1609 2 14.1929 0.156059 10.653
2090 1 12.5098 0.0788407 9.0091
2613 3 12.5114 2.04245 10.6168
26 1 15.9391 -0.0891893 8.89313
2594 2 17.8125 1.71559 8.90973
3116 1 16.1579 1.86018 10.7161
3115 3 17.8282 -0.0490134 10.6292
1093 3 2.11974 7.15394 8.99868
2091 2 1.78671 3.64714 9.04106
2615 1 0.0804117 3.62139 10.6619
3118 1 0.0718732 7.2851 10.69
3117 2 1.57515 5.44729 10.7147
3089 1 0.309415 5.37711 8.78572
30 3 5.42772 3.81933 9.11388
45 2 7.39728 7.05137 11.0365
1096 1 3.57264 5.22273 9.08443
2112 2 7.26291 3.54354 11.006
2616 3 3.55006 3.68777 10.7616
3091 3 7.17277 5.53856 9.19462
3608 3 3.53981 7.22144 11.0365
3607 3 5.45562 5.5102 10.776
3591 1 5.38452 7.21514 8.90847
46 1 10.4144 7.32838 10.8318
1098 1 10.688 5.47581 9.13368
1591 1 8.89375 3.72665 9.1141
1588 2 8.98622 7.07075 8.94732
2113 3 10.7926 3.78664 10.9112
3609 3 8.90755 5.37664 10.9262
32 3 12.4127 7.29403 8.99846
34 1 12.6248 3.60067 8.85641
36 1 14.4528 5.37231 8.82123
609 1 14.229 7.28115 10.5657
3119 2 14.2226 3.71655 10.6794
3611 3 12.6362 5.55442 10.6182
1120 3 17.9152 3.7669 10.7654
1615 2 17.8458 7.29328 10.4671
1593 1 17.8418 5.30169 8.9711
2093 2 15.9836 7.34658 8.97397
2595 1 16.172 3.54829 8.91829
3612 3 16.0833 5.57064 10.4492
48 3 1.93069 8.98518 10.8253
2095 3 0.205929 8.91387 8.89984
2596 1 1.87594 10.8327 8.9988
3120 2 0.247703 10.7749 10.6591
37 3 3.75477 9.06476 9.05234
49 2 5.66255 8.93123 10.7733
612 3 7.31514 10.8604 10.8495
1105 1 5.6927 10.8222 9.0202
2096 2 7.21557 8.89668 8.84016
3121 2 3.61186 10.8032 10.5564
613 3 8.89325 8.98379 10.6763
598 1 10.8196 8.95966 9.04808
3613 3 10.7238 10.7928 10.7033
3596 1 8.73187 10.7819 8.98069
50 1 14.0871 10.8451 10.8158
614 2 12.5142 8.96366 10.7628
2598 2 12.7097 10.8518 9.01536
2597 3 14.2705 9.13029 8.97748
51 3 17.8544 10.8389 10.6348
600 2 17.8986 9.14614 8.8665
1122 1 16.052 8.98804 10.6515
1109 2 15.9532 10.9106 9.06852
616 2 0.362403 14.2211 10.8314
601 2 0.17881 12.5034 8.95875
1123 3 1.87605 12.5135 10.7854
3094 1 1.96123 14.329 9.02078
1124 3 5.39858 12.6167 10.8343
1111 2 5.48366 14.2838 8.90136
1619 1 7.22722 14.2721 11.0087
1618 3 3.75468 14.2403 10.6715
1601 2 7.21803 12.5422 9.10508
3095 2 3.71536 12.6461 8.91584
617 1 10.9164 14.5336 10.6908
1125 3 9.09946 12.5977 10.7557
3096 2 8.9565 14.2487 9.11856
3598 2 10.9044 12.5084 9.09331
1126 1 14.1482 14.4798 10.7232
1113 2 12.4504 14.3715 9.01484
1620 2 12.5653 12.5857 10.7298
1602 2 14.2802 12.5879 8.8562
1621 2 16.102 12.7438 10.5633
3126 2 17.9758 14.3433 10.5187
3102 2 16.0276 14.3892 8.89382
3101 3 17.9019 12.5669 8.87795
1623 1 -0.0267648 17.8883 10.8634
2119 2 1.94842 16.1325 10.7423
2606 1 1.78731 17.9823 9.09554
3600 2 0.119046 16.0294 9.05137
40 2 7.30882 16.0216 8.84761
619 1 3.53669 18.0325 10.9412
1127 3 7.27862 17.9423 10.7101
2120 3 5.44201 16.1919 10.8511
2106 2 3.69798 16.0666 8.76783
2105 1 5.27651 17.7854 9.04491
1624 2 10.6694 17.919 10.8105
2108 2 10.7078 16.1305 9.0537
2625 2 9.02958 16.0862 10.6882
3108 1 9.09449 17.8098 9.00021
603 3 14.234 16.0865 8.81786
1115 3 12.4312 17.9259 8.88062
2626 1 12.6502 16.341 10.6351
3620 2 14.4116 17.8009 10.6476
2628 1 16.0382 16.1736 10.6129
2611 2 17.6491 16.2278 8.90616
3127 1 17.6584 17.9959 10.5914
3111 1 15.953 17.8173 8.83772
42 2 0.100176 1.82665 12.5445
2121 2 0.193734 0.162638 14.4557
2629 3 1.9342 1.78977 14.3887
3113 2 1.83217 0.190745 12.5074
43 3 3.77287 1.78871 12.4718
605 2 7.24667 1.92305 12.6854
1625 3 7.15778 0.197918 14.4731
2123 3 3.65997 0.0111244 14.4573
3128 1 5.39784 1.94464 14.3709
3605 3 5.63116 0.148271 12.4729
606 1 10.7296 1.90298 12.6372
1627 2 10.8258 0.0589184 14.4478
3129 3 8.96434 1.96321 14.3988
3606 1 9.04642 0.316074 12.6775
1117 3 14.3362 1.83661 12.4172
2632 3 14.3784 0.0690629 14.3332
3131 3 12.5289 1.85052 14.2497
3114 1 12.3391 -0.00419415 12.5946
44 3 16.0648 -0.129004 12.3411
501 3 17.915 0.170651 14.1408
2614 2 17.9714 1.80815 12.4438
3132 3 16.0334 2.05411 14.3511
607 3 1.86429 3.61621 12.6137
1119 1 1.54529 6.94241 12.5491
1118 1 -0.221448 5.31877 12.6012
2634 3 0.0504077 7.28133 14.4829
2633 3 0.0804348 3.58311 14.4038
3624 2 1.70156 5.41256 14.4127
60 2 7.24026 7.14736 14.4012
608 1 5.28132 3.71091 12.5907
1612 2 7.27301 5.48877 12.6288
1611 2 5.50761 7.24808 12.6451
1610 2 3.48633 5.31594 12.7417
2128 3 7.01097 3.71061 14.3961
2126 1 3.48969 3.75912 14.3172
3136 1 3.72498 6.98376 14.4397
3626 3 5.36991 5.36515 14.38
1613 1 10.8486 5.28232 12.4547
2114 1 9.10082 7.30949 12.7304
3137 2 10.9542 3.66658 14.2848
3629 3 9.16996 5.41436 14.338
3628 3 10.968 7.15433 14.1489
3610 2 8.90133 3.59925 12.6383
610 3 12.7477 3.76175 12.5349
1614 3 14.37 5.43993 12.3629
2617 1 12.5841 7.17899 12.4479
3138 1 14.307 3.67043 14.2726
3631 1 14.283 7.36555 14.2128
3630 1 12.6923 5.37422 14.3052
47 2 17.804 5.55197 12.4829
65 1 15.9603 5.20419 14.3207
1138 1 17.7795 3.65295 14.1155
1121 2 16.0072 3.43018 12.4299
2618 1 16.1487 7.27406 12.5975
3140 2 17.9423 7.12265 14.3274
67 3 1.86543 9.04185 14.3754
611 3 2.0964 10.6756 12.515
2115 1 0.190542 9.368 12.5905
2636 2 0.156516 10.7724 14.3755
69 2 7.33719 10.7114 14.3771
70 2 5.5105 9.0039 14.2579
1616 1 5.40936 10.9279 12.6533
2116 3 3.58026 8.94914 12.5641
2619 2 7.37124 9.03478 12.497
3633 2 3.61956 10.7615 14.3239
71 2 8.98349 8.98507 14.2617
2117 1 9.18699 10.6763 12.5536
2620 1 10.7912 9.17067 12.5941
3141 3 10.7921 10.8589 14.4651
510 2 12.6416 8.99097 14.3913
1617 2 12.5312 10.7357 12.5081
3122 3 14.1921 9.03352 12.4149
3635 1 14.3479 10.8203 14.2353
511 3 16.1188 9.04843 14.4612
615 3 17.821 8.87753 12.4804
1639 2 17.8615 10.768 14.1519
2118 1 16.1451 10.6979 12.3128
513 2 0.132813 14.061 14.2137
514 1 1.92537 12.5611 14.51
2621 2 0.0660984 12.4983 12.3965
3123 2 1.83156 14.2325 12.5997
72 1 7.19305 14.2736 14.2865
515 2 5.53134 12.6895 14.3416
516 1 3.73362 14.2667 14.3556
3125 2 7.11148 12.4811 12.7284
3124 3 3.77073 12.4913 12.4952
3614 2 5.42165 14.3278 12.6063
73 2 10.7615 14.2167 14.3232
1145 3 9.04273 12.6006 14.2891
3616 2 10.8041 12.7231 12.5721
3615 3 8.92994 14.1777 12.5275
1147 2 12.563 12.5729 14.2701
1146 3 14.4018 14.3588 14.2914
2622 2 12.5989 14.4323 12.3403
3617 1 14.3167 12.5474 12.5491
1149 3 16.1242 12.525 14.06
1622 1 17.7848 12.5469 12.4127
3146 3 17.8332 14.1936 14.313
3618 3 15.9794 14.5932 12.42
52 3 0.175027 15.9185 12.3533
518 1 0.124378 17.8631 14.2906
1150 2 1.86378 16.0196 14.3804
2623 1 1.77463 18.0155 12.5089
53 2 3.46133 16.1309 12.6059
618 2 7.27457 16.0282 12.5157
1151 1 3.60451 17.9856 14.1927
1642 2 5.5197 16.2355 14.1251
2142 2 7.25025 17.9523 14.36
2624 1 5.28214 17.7895 12.4286
54 2 10.6939 16.048 12.522
1643 2 8.96823 16.0219 14.2399
2649 1 10.8947 17.9432 14.3369
3619 2 8.99015 17.8395 12.6571
55 1 12.4213 18.004 12.4725
620 1 14.2398 16.2371 12.5841
1646 2 12.2815 16.0613 14.106
1644 1 14.1454 18.0049 14.1958
56 2 16.0041 17.951 12.3839
1647 3 16.0268 16.0848 14.3711
2627 3 17.8637 16.2091 12.432
3644 1 17.8442 17.8917 14.1876
57 2 1.77698 0.163438 16.2625
621 3 0.208679 1.86179 16.1264
1128 2 0.04655 0.16315 18.2424
2122 3 2.0386 1.91237 18.0029
58 3 5.42396 0.0850957 16.3391
1132 3 7.20597 0.0960641 17.8995
1131 2 7.02926 1.98721 15.9782
1130 3 3.5532 -0.00372317 17.8694
1129 2 3.60558 1.8626 16.2059
2630 2 5.37865 1.9712 18.0284
1133 2 10.7354 1.92511 16.1995
1626 1 10.777 0.111414 17.965
2631 1 9.04662 1.93467 17.888
3621 1 9.01134 0.187451 16.1397
59 3 12.7454 0.0324085 16.1637
1134 1 14.2984 2.0942 16.2135
2124 2 14.3414 0.0384691 17.9576
3130 3 12.4247 1.94066 17.9523
502 2 15.8995 0.151767 16.1372
3133 2 15.9903 1.77896 17.97
3623 3 17.9681 0.147014 17.8885
3622 1 17.7999 1.89796 16.0373
503 3 1.89926 3.66085 16.1786
504 2 1.84143 7.09881 16.2503
1628 2 0.0112643 5.34816 16.1403
2125 3 0.0444752 3.70131 17.866
3134 1 -0.0805839 7.07695 17.9334
3625 2 1.86 5.42115 17.8506
61 3 5.36118 3.68159 16.1951
505 3 3.689 7.24224 17.8719
1135 1 7.36099 7.15505 17.7195
1631 3 5.51759 7.05986 16.0903
1630 1 3.58069 5.46429 15.9904
1629 1 7.24408 5.21523 16.0935
2127 3 3.63313 3.68502 17.9393
3135 2 7.25342 3.66055 18.014
3627 3 5.32395 5.48736 17.9357
62 1 9.00406 5.41884 17.878
63 2 10.8607 7.26127 17.8309
506 3 9.06097 3.64393 16.1521
1632 2 10.8154 5.55477 16.1842
2129 3 9.06601 7.2447 16.0545
2635 2 10.8479 3.85391 18.0633
64 2 12.7109 5.5335 17.9947
1137 1 14.5627 7.12177 17.9309
1136 1 12.5243 3.61884 16.198
2131 2 14.3834 5.26525 16.2251
2130 1 12.8779 7.15767 16.1431
3139 1 14.3993 3.63243 17.8104
66 1 17.948 5.1562 16.0805
507 3 16.14 5.35908 17.8312
1140 3 17.7865 3.4601 17.9407
1139 2 16.0672 3.61793 16.0741
1634 1 17.9189 7.23365 17.8018
1633 1 15.9926 7.1031 15.984
508 3 1.94274 8.81452 17.9842
1141 3 1.77396 10.769 16.1784
2132 3 0.168404 8.91227 16.3291
3632 3 0.08709 10.6008 18.0342
68 2 3.55895 10.6077 17.7757
509 3 7.15064 10.6231 17.8574
1142 3 5.42512 9.00316 17.8446
1635 2 5.22278 10.7005 16.0943
2134 2 7.24272 9.00789 16.2352
2133 2 3.62614 8.79925 16.0191
1143 2 9.1739 8.96333 17.9461
1636 1 9.04688 10.6731 16.11
2637 1 10.9884 8.82534 15.9006
3634 2 10.8846 10.7568 17.7079
1144 2 12.5047 10.6583 15.9657
1638 2 12.7775 9.01918 17.8998
1637 3 14.5153 10.6332 17.7358
2638 2 14.369 8.9186 16.1066
512 1 18.0201 8.88772 16.1095
1640 3 16.0867 9.04439 17.7493
2135 1 16.2093 10.9805 15.9211
2639 2 17.937 10.7325 17.8812
2137 2 0.108073 14.3249 17.8208
2136 1 1.87782 12.5795 17.8814
2641 1 1.91881 14.2965 16.0661
2640 3 0.110336 12.4714 16.2224
2140 1 7.09811 14.1864 17.7822
2139 3 3.71359 14.2961 17.7996
2138 1 5.22533 12.3238 17.9706
2643 3 5.2904 14.4242 15.9451
2642 2 3.81947 12.4935 16.0798
3142 1 7.1423 12.5202 16.1897
2141 2 9.02035 14.3963 16.0702
2645 3 9.03674 12.5982 17.6982
2644 3 10.7645 14.4847 17.776
3143 2 10.7696 12.673 16.1131
2647 2 12.5732 14.5483 16.0929
2646 2 12.6881 12.7205 17.7096
3145 2 14.4039 14.3639 17.8425
3144 2 14.2375 12.5714 16.0122
517 1 18.0668 14.3465 17.9701
1148 1 17.927 12.5888 15.9494
3148 3 16.1625 14.3369 16.1412
3147 3 16.0508 12.617 17.7457
2648 1 1.70712 17.6801 16.0643
3150 1 1.84676 16.0618 17.9641
3149 3 0.0948951 16.0442 15.9751
3636 1 0.0239349 17.8002 17.8958
1641 3 3.54113 17.7803 17.8558
2143 2 7.28018 17.6829 17.7843
3640 3 5.18981 17.7309 16.1788
3639 3 7.13292 15.9888 15.9949
3638 3 5.39917 16.0288 17.8222
3637 2 3.71041 16.0134 15.9765
74 1 8.95876 17.7693 16.0471
519 3 10.7852 17.8503 17.7644
3642 3 8.92307 15.8989 17.8767
3641 2 10.8456 16.1168 16.0258
75 1 12.5668 16.2313 17.9471
76 2 12.5122 17.7664 16.0827
1645 2 14.2485 17.9124 17.7741
3643 1 14.2694 16.1987 15.9992
77 1 16.0563 16.1582 17.6593
2144 2 17.8813 16.1403 15.9227
2650 3 17.8553 17.9186 17.7776
3645 1 15.9436 17.9524 15.9903
520 1 0.194987 0.289911 21.346
78 2 0.139617 2.0671 19.8231
2145 1 1.83807 1.95075 21.5868
3151 2 1.89788 0.138646 19.8104
521 3 3.52445 0.120772 21.4132
80 1 3.66455 1.92262 19.8362
79 2 7.12475 1.87119 19.645
2147 1 5.34471 1.95969 21.4513
2146 2 7.14779 0.116836 21.4787
2651 2 5.39815 0.0184239 19.6125
81 1 10.7948 2.06777 19.7322
1648 2 10.8126 0.19156 21.3898
2652 3 8.90307 2.03248 21.409
3152 1 9.01504 0.254321 19.6487
522 3 14.3389 1.85475 19.6473
1649 3 14.3407 -0.0129501 21.5254
2653 1 12.4243 1.9046 21.3928
3646 3 12.5076 0.205728 19.5615
82 1 17.8026 0.0823003 21.5101
2654 2 18.0095 1.62597 19.7252
3153 1 16.0107 1.82858 21.5477
3647 3 16.2019 0.250741 19.5595
523 3 -0.157825 5.30772 19.6384
84 3 1.90623 7.19757 19.6422
83 3 0.0873009 7.04953 21.3555
1650 1 0.0231618 3.83485 21.5691
3155 3 1.85656 5.44273 21.3256
3154 3 1.85742 3.6708 19.6574
524 2 3.70132 5.43681 19.7906
525 1 7.22342 5.43084 19.755
526 1 3.56972 7.05521 21.4233
1153 3 7.30708 7.25553 21.2845
1152 1 5.38426 7.21212 19.641
2655 2 3.44106 3.54438 21.3685
3156 1 7.10469 3.65196 21.5597
3649 2 5.4286 3.66747 19.5501
3648 1 5.56823 5.32328 21.3627
86 3 10.746 7.22989 21.3339
85 1 8.87136 3.75859 19.6821
1155 1 10.8434 5.35873 19.6572
1154 3 8.94875 7.12848 19.5489
2656 2 10.6088 3.66072 21.5662
3650 2 9.10657 5.56151 21.3761
527 3 12.6484 7.25634 19.5488
88 2 12.507 5.15192 21.4343
87 3 12.6909 3.67031 19.5517
1156 2 14.3999 5.52669 19.6618
2148 3 14.1773 7.30207 21.3729
2657 2 14.2743 3.54008 21.3033
528 2 17.7571 3.71471 21.1783
89 3 15.9991 5.38328 21.3679
1157 2 16.1677 7.21545 19.5143
3158 2 17.8978 5.48944 19.6557
3157 3 17.8197 6.99941 21.3807
3651 1 16.11 3.59971 19.7141
529 2 1.64424 9.01559 21.3961
530 1 1.73986 10.7213 19.7351
1158 2 -0.149884 8.67712 19.7067
3652 1 -0.0147244 10.7656 21.5067
531 2 5.28977 8.91101 21.353
532 2 5.4289 10.5616 19.7767
533 1 7.23768 10.61 21.3865
1159 2 3.58179 8.73325 19.6493
1651 1 7.38972 8.90331 19.4881
3653 2 3.36771 10.6859 21.4691
90 3 8.96175 10.915 19.5617
1161 2 9.00352 9.02721 21.3553
1160 2 10.6614 10.9079 21.4797
1652 2 10.788 9.14241 19.7315
534 2 12.557 10.7835 19.4791
1162 2 12.5391 9.0927 21.1176
1654 3 14.5205 10.6513 21.4166
1653 2 14.3131 9.00544 19.6584
1656 3 16.253 10.7773 19.472
1655 2 16.2647 8.90548 21.4856
3159 3 18.0545 10.7107 21.2823
3654 1 17.9001 8.74564 19.6184
1660 2 -0.107982 14.3707 21.5417
1659 3 1.98491 14.2339 19.7572
1658 1 1.87178 12.5791 21.5369
1657 2 0.189355 12.6323 19.6773
1163 3 5.42329 14.2053 19.6971
1661 2 3.64887 14.3496 21.4221
2151 2 7.03214 12.4025 19.7408
2150 1 5.24974 12.3448 21.5218
2149 2 3.62408 12.381 19.6278
3160 2 7.24405 14.2482 21.3162
1662 1 8.75974 14.1206 19.733
2153 1 8.97144 12.6158 21.4572
2152 3 10.8498 12.6323 19.6229
2658 1 10.6898 14.3177 21.3784
2155 3 14.3274 12.5738 19.5054
2154 3 12.544 14.25 19.6882
2660 1 14.4038 14.3134 21.3078
2659 1 12.6665 12.6854 21.4189
535 1 17.9281 12.4848 19.6448
1164 3 17.7389 14.4592 21.1645
2156 3 16.1741 14.2659 19.5023
2661 1 16.0661 12.4795 21.1759
1165 1 0.189358 17.7373 21.3923
2157 3 1.87435 17.9294 19.6063
2662 2 -0.0835149 16.1276 19.8409
3161 1 1.87076 16.0251 21.4056
1664 1 7.18893 17.8914 21.337
1663 1 3.46305 17.9185 21.4122
2664 3 3.76313 16.1187 19.6711
2663 1 7.16079 15.849 19.6108
3163 2 5.32007 16.1361 21.4857
3162 3 5.38108 17.8035 19.7292
536 1 10.6577 17.5978 21.5244
2665 3 10.8429 16.0347 19.5922
3164 3 8.89925 17.6713 19.4991
3655 3 8.82932 15.9865 21.4778
2666 3 12.4411 17.7942 19.6013
3166 1 14.4305 16.0056 19.4173
3165 2 14.3496 17.7577 21.2869
3656 1 12.7259 16.0174 21.398
92 3 15.9274 16.249 21.4023
91 3 18.0014 17.7434 21.4044
1166 3 17.9454 16.208 19.2634
3167 2 16.1818 17.8285 19.5701
93 3 1.82952 1.88093 24.8432
1665 2 1.83786 0.201441 23.1509
2667 3 -0.0627975 0.140556 24.8738
3168 3 0.0578104 1.92354 23.2066
2158 1 5.40672 -0.0443436 23.2436
2670 3 3.82616 0.0747501 25.1225
3170 2 7.15786 1.80732 23.1846
3169 2 3.67295 1.87463 23.155
3659 1 7.02505 0.159248 25.0363
3658 1 5.54537 1.92409 25.1202
537 1 8.88165 2.10425 25.018
2671 3 8.96942 0.292538 23.2961
3171 3 10.6748 0.198942 24.9762
3660 1 10.8107 1.77294 23.3702
2673 2 12.4662 -0.0169313 23.332
3663 2 14.1547 1.8827 23.1198
3662 1 14.2796 0.285476 24.8221
3661 2 12.4504 2.02883 24.9622
539 1 16.0464 1.85889 25.2087
1167 1 17.7959 0.11151 24.9098
1668 1 17.9436 1.93155 23.2636
2160 1 16.0456 0.10751 23.2875
99 1 1.86504 5.38522 24.9786
98 1 1.71253 7.23716 23.254
97 2 -0.0219488 7.43168 24.8666
96 2 -0.120394 5.63635 23.1865
3173 3 1.77414 3.76019 23.2323
3172 2 0.0285228 3.85404 24.8292
540 1 3.66729 7.09376 24.9249
541 3 5.48895 7.15489 23.1857
542 2 7.22513 5.63236 23.0811
543 1 5.36429 5.40238 25.1011
101 2 7.17857 7.30658 24.9359
100 2 3.62282 5.34626 23.1383
2675 1 7.14658 3.76367 24.8618
3175 1 3.72635 3.55095 24.8966
3665 2 5.38455 3.72013 23.1169
546 1 8.9731 7.17251 23.1098
547 1 8.82787 5.4363 24.9211
102 2 10.9048 5.41134 23.2309
1170 2 10.8084 7.04497 24.8368
3177 1 10.9083 3.80792 24.9175
3666 1 8.97183 3.78719 23.101
548 3 14.4815 5.38601 23.0668
549 1 12.6503 5.49214 24.705
105 1 14.3131 3.53728 24.8525
1670 3 12.5561 7.28465 23.0304
3179 3 12.6058 3.68131 23.1796
3667 2 14.4696 7.20222 24.8298
1172 3 16.1612 5.48133 25.0117
1672 1 17.8625 3.5905 24.8427
1671 3 16.2403 7.18684 23.112
2678 3 17.8452 7.25626 24.9363
2677 3 17.8875 5.29602 23.1287
3668 1 16.1323 3.58697 23.1487
550 2 -0.102271 8.91213 23.1296
106 2 1.70176 10.5323 23.2058
1175 2 1.8428 8.94173 25.004
3669 3 0.122392 10.7137 25.021
108 3 5.36976 10.8295 23.3095
1180 2 7.18028 10.6787 24.8846
1178 2 7.17562 8.82414 23.1674
1177 1 3.56882 9.02117 23.2034
1176 1 5.35941 8.90734 24.9708
3670 3 3.72006 10.6331 25.0426
551 2 10.6574 10.4519 24.9849
552 2 8.8441 10.6192 23.1525
1181 1 9.05076 8.78434 24.8327
1674 2 10.7438 8.96495 23.0652
1182 3 12.4743 10.6373 23.1953
1676 1 12.6404 8.9487 24.8751
1675 2 14.3153 8.8704 23.1382
2163 2 14.3446 10.7267 25.036
1183 3 16.1149 8.99341 24.8403
1677 1 16.0829 10.6371 23.1213
2165 2 17.8767 10.6463 24.987
3671 1 17.9842 9.0366 23.0543
555 3 -0.0884623 14.2752 24.9698
1184 3 1.75553 14.3228 23.1478
1678 1 1.75078 12.705 25.01
2166 2 0.0578686 12.5221 23.1828
113 3 7.17035 14.3286 24.9082
1185 2 5.37058 12.4717 25.0472
2170 2 5.3902 14.3059 23.0608
2169 3 3.50566 12.4254 23.2928
2168 2 3.4661 14.2874 24.9752
2167 1 7.05351 12.4935 23.1876
1680 1 10.7651 14.3323 25.0527
2171 3 10.7233 12.3309 23.2254
2682 2 8.9696 14.1817 23.138
2681 1 9.2877 12.4758 24.9694
114 1 14.0995 14.321 24.8807
1681 1 12.4474 12.2083 25.1066
2684 1 14.3577 12.3149 23.0861
2683 1 12.5973 14.2657 23.141
557 3 17.7606 12.6457 22.9189
2173 3 15.9862 14.3548 23.1098
2685 3 16.1 12.6418 24.7773
3183 3 17.945 14.3736 25.0698
1684 2 1.88089 16.1412 25.0407
1683 2 1.64859 17.8702 23.2116
2688 2 0.0608929 16.151 23.2053
2687 1 -0.00125468 17.9245 24.8908
2175 2 7.14732 17.799 25.0189
2174 2 5.38609 17.8191 23.3175
2689 2 3.67295 17.8033 24.9077
3187 2 5.36313 15.9957 24.9362
3186 2 6.99826 16.1117 23.1725
3185 2 3.58206 16.0715 23.0742
1687 2 8.88425 17.7094 23.1839
1686 2 8.81957 15.9042 24.9388
2177 3 10.8195 17.9031 24.9485
3675 2 10.6097 15.8763 23.2723
2178 3 14.5071 17.9095 24.8872
2690 1 12.561 18.1686 23.1053
3188 1 12.4896 16.0723 24.7659
3676 3 14.2319 16.2677 23.1292
1187 2 17.8674 16.0321 23.1966
1186 1 17.8077 17.8487 24.9466
1689 2 16.0998 15.9943 24.9788
3189 1 16.1712 17.8823 23.2364
1188 2 0.122717 0.23142 28.45
2180 1 1.89009 1.84004 28.6167
2668 1 1.71443 0.0395434 26.5151
3657 3 0.122858 1.9431 26.9041
559 1 7.26768 0.120293 28.5603
94 3 7.0798 1.97883 27.0135
1189 3 3.59992 -0.0816738 28.4679
1666 3 5.33163 -0.0063144 26.8051
2181 1 5.0142 1.86974 28.6849
2669 1 3.58221 1.82424 26.7367
560 2 10.8654 0.113147 28.4704
95 2 8.81818 0.231575 26.7564
2182 2 9.01185 2.0178 28.4798
2672 1 10.7382 1.90672 26.807
538 2 14.3752 1.96257 26.7931
1667 2 12.6517 0.328761 26.7203
2184 1 12.6233 2.02675 28.5085
2183 3 14.1364 0.228465 28.5779
2159 2 18.0442 2.0837 26.6613
3193 1 16.1785 1.98409 28.5387
3679 1 17.7994 0.112956 28.535
3664 3 16.114 0.151831 26.7689
1168 1 1.73175 3.54741 26.8035
1669 1 1.79849 7.12618 26.7266
2186 3 0.054615 7.33667 28.465
2185 1 0.0597573 3.80753 28.4142
2674 1 0.0998166 5.60911 26.674
3194 2 1.88636 5.45055 28.4932
544 3 3.55385 5.37203 26.8098
563 2 7.197 7.1845 28.7977
1691 1 7.11137 3.81517 28.5761
1690 2 3.66211 3.65628 28.5164
2676 2 7.17431 5.53159 26.8365
3196 2 3.50192 7.24578 28.3607
3195 2 5.37344 5.42744 28.604
3176 2 5.36848 3.67757 26.8334
3174 1 5.43048 7.24053 26.7497
545 1 10.654 5.25336 26.7806
1171 1 9.04656 3.63891 26.804
1169 3 8.98651 7.0962 26.8023
2694 3 10.7884 3.71887 28.539
3197 3 9.01086 5.38025 28.6019
3681 3 10.9589 7.1732 28.6079
104 1 12.6663 3.77297 26.7504
103 3 14.4497 5.46252 26.662
2695 3 14.341 3.74681 28.5858
3178 3 12.362 6.91295 26.8136
3684 2 14.2706 7.11999 28.5529
3683 1 12.7178 5.42941 28.5469
622 2 17.8948 3.74662 28.3392
1004 2 18.1304 7.08031 28.4526
1174 3 15.973 7.12078 26.7791
1173 2 17.8734 5.44493 26.7546
3180 1 16.2162 3.76628 26.7375
3685 2 16.019 5.45569 28.3757
1673 2 0.0793762 8.95073 26.7082
2161 1 1.84055 10.5989 26.6194
2696 1 -0.0146475 10.8174 28.46
3687 2 1.75276 9.07043 28.4458