ITEM: TIMESTEP
5000
ITEM: NUMBER OF ATOMS
4000
ITEM: BOX BOUNDS pp pp pp
-1.3087389555934692e-03 3.5735368738955941e+01
-1.3087389555934692e-03 3.5735368738955941e+01
-1.3087389555934692e-03 3.5735368738955941e+01
ITEM: ATOMS id type x y z
3632 3 -0.132731 10.6528 17.7427
3150 3 1.94107 16.2822 17.9755
3089 2 -0.10105 5.51713 8.66346
564 1 3.42879 1.74649 1.60762
565 1 7.3563 1.72525 1.81366
3568 3 6.92664 3.72233 3.58755
2614 1 17.8339 1.84656 12.3448
1585 2 10.8161 17.8858 -0.0422001
3120 2 0.130608 10.9247 10.8269
566 2 10.7504 1.95547 1.73627
3606 3 8.98607 -0.0649153 12.5145
570 2 12.6261 3.46333 1.76917
1571 3 14.2377 7.12863 -0.0209918
567 2 14.2193 1.83749 1.70371
1080 3 18.0106 3.38655 3.60101
3562 3 5.3226 -0.0416972 1.89036
513 1 -0.0273595 14.1868 14.4982
572 3 16.2374 3.57276 1.80534
3590 3 0.110967 7.32096 7.29556
2632 2 14.2208 0.0660127 14.3653
5 2 1.84553 3.5607 1.8215
3566 3 1.80932 5.69308 3.48516
44 3 15.9611 0.0148191 12.5852
3569 2 5.33252 3.29817 1.85037
1074 3 3.47251 5.16148 1.80623
2589 3 1.8927 0.208881 8.84675
10 3 8.6752 3.46322 1.80332
1072 2 6.99638 5.2433 1.77353
569 1 10.649 7.07886 3.72452
1568 1 8.84175 7.13513 1.85002
3571 3 8.88535 5.28418 3.28154
1076 1 10.6967 5.33051 1.61655
571 3 12.5466 5.43905 3.6549
1593 2 17.9091 5.30908 8.7258
1569 1 12.5383 7.21877 1.88941
1570 2 14.5018 5.21371 1.78233
2607 3 5.2284 17.759 5.28667
1572 3 14.3466 7.31428 3.70473
1627 2 10.7292 0.00444469 14.1779
6 3 1.82109 7.22641 1.57561
1575 3 3.53032 8.97314 1.81817
575 2 1.62941 10.5528 1.84204
574 2 1.76649 8.76615 3.68124
1075 2 5.42926 7.19054 1.76646
577 3 5.28095 8.95434 3.66048
578 1 3.53487 10.6234 3.31528
1584 1 17.979 14.2914 3.588
1644 2 14.2745 18.1523 14.3126
1576 1 7.30504 8.91258 1.78473
1578 2 9.04865 8.82375 3.51784
2071 1 10.9571 8.73292 1.90755
600 3 17.9463 8.75232 8.74684
2074 3 14.2567 9.09945 1.79921
579 1 10.8664 10.7583 3.87398
1579 2 12.3645 9.11955 3.89468
2077 1 0.00888331 12.5012 1.69495
1081 2 16.078 6.82162 1.80769
1581 2 16.2387 10.9404 1.9923
3645 1 16.1539 17.7949 16.1238
2087 3 3.48243 17.8685 3.68089
1609 3 14.3829 0.00925906 10.4574
615 1 17.9155 8.8601 12.6006
1582 3 1.77806 12.3669 3.5507
2078 2 1.7758 14.2341 1.81151
2083 2 3.62649 14.2904 3.49333
502 3 15.8536 -0.204814 15.999
3111 2 16.364 17.8274 9.19919
2081 1 3.54091 12.4406 1.83929
1083 3 5.43697 10.6096 1.92953
2082 3 5.40057 14.1722 1.80324
1087 3 8.92996 10.7835 1.91417
2575 2 7.28998 12.5266 2.01524
1583 3 9.00872 14.4789 1.79075
2579 2 10.5363 12.576 1.6776
3083 1 16.2958 17.7931 1.77183
1091 3 11.0705 17.9176 3.77048
580 3 12.6588 10.8613 2.00974
2580 2 14.3799 12.4972 1.94199
2582 1 16.0275 12.5631 3.69455
2072 1 14.4878 10.6968 3.63978
3114 2 12.4261 -0.0756239 12.3657
3578 3 9.05782 17.6975 1.98169
1615 1 17.8214 7.03452 10.7345
3077 1 3.44985 16.2681 1.67715
1563 3 0.0836746 0.10878 -0.246972
3577 1 5.48727 15.8616 3.47867
1114 1 17.8784 12.4705 5.59749
3076 1 1.78973 15.8853 -0.152234
3078 3 7.23939 16.0799 2.04806
3080 3 10.8557 15.9591 1.95921
2577 2 7.12521 14.2934 3.56969
3621 2 8.89357 0.134021 16.1893
1092 1 5.48456 0.276781 9.0575
3642 3 8.91861 16.2225 17.9798
2085 3 12.6608 14.1221 2.14564
3081 2 14.2766 15.9686 1.96887
3605 3 5.26217 -0.0843311 12.5001
3105 3 3.54773 17.5848 6.92978
2583 3 16.0693 14.2976 2.11136
3143 2 10.6837 12.6917 16.0692
2563 3 1.72715 1.97773 3.48895
584 3 1.61849 2.16598 7.12843
3585 2 3.59776 1.86874 5.48729
3109 3 10.6373 18.0227 7.27038
2564 2 5.305 1.82062 3.49383
3584 2 7.05897 1.83507 5.315
2122 2 1.82784 1.5166 17.7307
2565 1 9.08535 2.00373 3.64593
586 3 8.83462 1.90602 7.09214
3586 1 10.8256 2.17196 5.36982
31 1 8.68998 3.67268 5.16477
3594 1 10.7705 3.78874 7.27377
2567 1 12.411 1.73463 3.45136
3069 1 14.4362 3.63224 3.40959
3572 2 10.7896 3.52672 3.44306
33 1 12.5791 3.54463 5.32837
25 1 14.2779 1.8863 5.35982
3564 1 16.2011 1.53702 3.69036
3595 2 16.0492 3.2868 5.15284
3090 3 1.82741 3.81161 5.4334
2069 1 3.57912 3.51695 3.90133
29 3 3.72073 3.69573 7.24439
3570 3 5.4351 5.44349 3.66962
3593 2 5.18048 3.67657 5.30974
590 2 3.52668 5.68506 5.35243
1094 2 5.38664 7.21509 5.36008
1095 1 5.3488 5.41077 7.04911
592 1 7.19084 5.4792 5.28492
1097 2 8.81735 5.30844 7.16547
1590 3 8.75374 7.27577 5.34032
594 1 10.5435 5.28687 5.2594
1100 2 14.2298 5.4038 5.12347
1592 1 12.5222 7.11739 5.40627
1099 2 12.5438 5.29911 6.93393
595 2 14.7343 6.64146 7.08507
573 1 15.8463 5.30832 3.46039
1595 2 16.1275 7.04201 5.34342
3561 1 1.69021 -0.0361914 1.78217
28 1 1.67839 7.30048 5.40606
596 3 1.75202 10.9238 5.31419
1624 1 10.824 17.9824 10.8303
1637 3 14.2278 10.9206 18.0485
1073 1 3.64249 7.11673 3.50199
1103 2 3.45938 9.08918 5.09332
1597 1 7.15469 9.25702 5.46251
1596 2 5.35301 9.10307 7.00808
2068 3 7.11881 7.29153 3.68226
2097 3 10.485 8.94568 5.44131
1107 3 9.00163 8.92638 7.25813
2098 2 14.4602 8.91324 5.40112
1580 2 16.2669 8.79636 3.24954
3062 3 8.96457 1.85812 -0.207043
2099 2 14.2753 10.5274 7.29362
1599 2 15.9761 9.0093 7.1683
1646 3 12.4337 16.1998 14.3874
2574 2 5.5534 12.5705 3.5119
1084 3 7.02012 10.7059 3.69577
1104 1 4.97654 11.1006 5.32456
2600 1 3.52828 12.6536 5.09277
1600 3 5.2697 12.7082 7.28307
1106 3 7.14432 11.1501 7.25
2578 2 8.86617 12.4249 3.87676
599 1 8.69719 10.6403 5.51185
2601 2 7.08086 12.6319 5.56861
2602 2 10.6468 12.5352 5.51495
2604 1 9.00142 14.2798 5.34822
3097 3 9.05456 12.5719 7.35957
2581 2 12.5677 12.4136 3.97471
1108 2 12.6185 10.6007 5.67043
2605 1 14.488 12.3892 5.43671
602 3 14.2854 14.3323 7.07498
2100 3 16.1922 10.5679 5.32201
3099 3 16.2409 12.568 7.24746
601 2 0.0260441 12.4319 9.11895
2102 2 1.70992 14.2973 5.30363
3576 2 2.04895 15.9818 3.4168
3602 3 3.56736 15.7697 5.44794
52 1 -0.014066 16.2232 12.598
2104 1 5.59248 14.2113 5.46198
3106 2 5.24687 15.9879 7.22709
3601 1 6.97227 16.1923 5.34485
3579 2 9.18994 15.9484 3.77573
3072 3 10.8602 14.3052 3.62374
3603 2 10.9041 16.0418 5.40893
3580 3 12.718 15.9719 3.7723
3098 1 12.3942 14.3045 5.34172
3604 2 12.6469 15.9902 7.43625
3575 1 14.5025 14.298 3.85007
41 2 14.1593 16.0483 5.52039
583 3 16.476 16.0761 3.72951
3100 1 16.1846 14.5605 5.59774
2109 2 16.0978 15.9729 7.29361
1078 1 16.1538 5.15542 -0.0348891
1146 1 14.4088 14.3075 14.4374
2089 1 5.3615 -0.111421 5.50179
22 3 5.3269 1.89962 7.24907
2591 3 3.68848 1.8452 8.94696
2111 1 5.31577 1.79798 10.8477
3112 1 16.2475 17.9078 5.4605
3592 3 7.11627 3.7006 7.1698
585 1 7.27312 1.97239 8.97395
2592 1 10.9523 1.87135 8.8331
1591 2 8.98894 3.49252 8.82963
2113 1 10.6558 3.24103 10.608
23 1 12.5968 1.74477 6.92404
587 3 14.2367 1.88734 8.67049
34 2 12.6991 3.56254 8.65369
588 3 16.1053 1.69889 7.1967
35 3 14.331 3.81631 6.94329
2595 1 16.1618 3.58651 8.78298
3116 1 15.8504 2.02676 10.614
2064 2 2.0406 1.93471 0.0366125
3643 1 14.1751 16.2519 15.8054
2091 3 1.80289 3.60877 8.95623
27 3 1.9204 5.42282 7.25784
1096 2 3.56225 5.37439 9.06669
30 3 5.25502 3.78802 9.22981
3607 2 5.43985 5.38629 10.9179
3091 3 7.17919 5.25972 9.20542
3609 3 9.03281 5.13612 10.7107
1098 2 10.6281 5.30779 8.9263
36 3 14.2733 5.33256 9.1246
609 1 14.4148 6.93426 10.6947
3611 3 12.6014 5.43412 10.6757
1116 1 10.7124 -0.19862 10.6608
1594 2 16.1523 5.03399 6.94819
3581 2 12.4122 17.8838 1.56743
3612 2 16.2262 5.15701 10.5492
2141 2 8.56849 14.4366 16.1384
1102 1 1.82628 9.1054 7.02334
1093 1 1.87468 7.34347 9.04099
591 2 7.12731 7.29401 7.02667
593 2 3.82173 7.26081 7.25104
3591 3 5.45661 7.07164 9.16156
37 2 3.95567 9.27379 8.95575
2096 2 7.09541 8.91067 8.90113
38 2 3.57589 10.7507 7.33877
1105 2 5.4742 10.9371 9.12962
1588 1 8.76301 7.22669 8.94017
3596 1 8.74317 10.7529 8.85898
45 1 7.07133 6.94368 10.9711
46 3 10.5846 6.934 10.7293
1598 2 12.3369 8.90892 7.30895
1589 3 10.5833 6.81984 7.11835
598 1 10.6192 8.75662 8.9552
32 3 12.44 6.92789 8.9396
2598 3 12.3371 10.4885 9.09812
2597 2 14.3038 8.81982 9.26923
2139 2 3.6419 14.3805 18.0541
2093 3 16.0353 6.92438 8.91693
1109 1 15.9128 10.4151 8.80792
19 1 12.5466 15.859 0.280764
2103 3 2.05565 12.352 7.15386
2596 2 1.82641 10.8842 9.09004
1123 3 2.01163 12.6043 10.9855
3641 2 10.6778 16.0805 16.0022
1124 3 5.37502 12.5642 10.9588
3095 1 3.51291 12.6468 9.03789
1601 1 6.98497 12.5525 9.01013
1125 1 8.78022 12.5588 10.6908
3598 1 10.6784 12.4256 9.06175
1603 3 12.2753 12.4773 7.10129
2603 1 10.6747 14.338 7.3482
39 2 10.6549 10.6912 7.17097
1620 2 12.6119 12.3706 10.7923
1602 2 14.3571 12.5259 8.83142
617 2 10.8965 14.404 10.9043
1621 2 15.9617 12.3989 10.6855
3639 3 7.04464 16.3532 16.0316
2634 2 0.153085 7.38261 14.1577
3587 3 9.02524 -0.0664189 8.75837
3600 2 -0.0805147 16.0218 8.98366
1604 2 1.57084 16.294 7.12475
3597 3 17.818 8.90612 5.5286
3094 2 1.59823 14.2421 9.13622
2106 2 3.51444 16.1648 8.89566
3644 1 18.1214 17.9452 14.2786
2115 3 0.260679 8.91608 12.5378
2599 3 3.40007 14.3937 7.38361
2101 3 -0.0214872 12.3266 5.18404
1618 2 3.4472 14.3119 10.6925
1619 2 7.31963 14.2949 10.7526
1111 1 5.27492 14.3021 9.01993
2120 2 5.55019 16.1641 10.6964
1112 2 7.26326 14.3263 7.24899
2107 1 8.94405 15.8272 7.11652
40 1 6.99714 16.114 8.89706
3096 3 9.10826 14.2964 9.12068
2625 3 8.95168 16.174 10.6171
2080 2 5.70016 12.4919 0.187974
1625 3 7.28137 -0.0955257 14.3308
1113 1 12.4738 14.3919 9.01268
2108 1 10.8189 16.0165 9.07227
2626 1 12.8458 16.2204 10.6986
603 3 14.5337 16.0537 8.97691
3102 2 16.1681 14.0476 8.94949
2628 1 15.9128 16.0737 10.774
1126 2 14.3338 14.3831 10.7649
2086 1 1.68639 17.7809 1.71125
3622 1 18.0942 1.79186 16.0429
3563 2 12.5876 0.151937 1.51297
2110 1 1.83853 1.94345 10.8184
607 1 1.72113 3.85752 12.3117
2629 3 1.76665 1.88366 14.2287
1147 1 12.6124 12.2853 14.3027
2643 1 5.3654 14.4339 16.3564
2616 3 3.64837 3.52284 10.8329
43 1 3.42808 1.7993 12.4876
608 2 5.39013 3.42266 12.5463
2593 3 9.11101 0.0834837 5.31594
605 2 7.09677 1.74592 12.4422
2612 1 8.89433 1.24629 10.6915
3610 2 8.93053 3.45233 12.6691
606 1 10.7861 1.7233 12.5393
2112 1 7.34976 3.32705 10.5944
2613 3 12.6877 1.8716 10.5228
610 2 12.4673 3.5778 12.6367
1117 1 14.4401 1.79523 12.5912
3131 3 12.4759 1.73436 14.2471
3637 2 3.55241 16.3004 16.0438
3119 3 14.2008 3.76299 10.7672
3132 3 16.3238 2.07559 14.5748
1121 1 16.1299 3.64902 12.7599
3138 2 14.2809 3.41566 14.5292
42 2 0.134939 1.80347 12.4103
3117 3 1.839 5.42716 10.7237
2126 3 3.52887 3.58827 14.1596
3624 2 1.58571 5.29289 14.1444
1610 2 3.71466 5.31591 12.4511
1611 3 5.34198 7.15341 12.6992
1612 3 7.30467 5.20442 12.7007
1613 3 10.6805 5.14515 12.2868
2617 1 12.2857 7.09841 12.3811
3628 1 10.851 7.14054 14.3863
21 1 -0.218197 1.71263 8.91545
2576 3 7.00358 14.3871 0.248654
1614 1 14.4407 5.12497 12.7103
48 1 1.92417 8.97721 10.8466
1119 2 1.9722 7.21411 12.5743
2116 1 3.72334 8.91683 12.6487
67 3 1.82148 9.2518 14.3937
49 2 5.49274 9.07501 11.044
3608 3 3.75589 7.19871 10.7415
70 2 5.46501 8.91494 14.3167
3633 3 3.68854 10.6799 14.2701
2619 3 7.32381 9.24641 12.6455
613 1 9.16773 8.77989 10.8617
2114 3 9.11422 7.01436 12.7075
3141 3 10.8125 10.749 14.3623
614 1 12.1483 8.8073 10.7108
3613 3 10.5878 10.7515 10.9279
50 2 14.2336 10.6592 10.5922
2620 2 10.7046 9.13588 12.6748
3122 3 14.2549 8.88499 12.4011
56 2 16.0325 17.9646 12.6951
2618 1 15.9496 6.96668 12.5675
1122 1 16.1343 8.57289 10.6489
1605 1 1.73172 17.5687 5.26296
3121 2 3.57476 10.9108 10.8785
611 3 1.718 10.8197 12.8374
3123 2 1.57706 14.3853 12.3408
514 1 1.95737 12.6099 14.4948
17 1 5.30088 16.1864 -0.229558
3124 1 3.4945 12.665 12.6745
1616 3 5.36727 10.8951 12.553
515 2 5.21608 12.5834 14.3474
3125 3 7.23654 12.7311 12.6112
3614 3 5.18482 14.5731 12.4976
612 2 7.31725 10.5788 10.6368
2117 1 8.89219 10.9554 12.8936
1145 2 9.19402 12.5984 14.41
69 2 7.10967 10.6213 14.7876
73 1 10.7671 14.3033 14.3167
3616 2 10.8332 12.5371 12.6239
1617 2 12.418 10.5761 12.3755
3617 3 14.2734 12.3887 12.5589
3635 3 14.4136 10.7596 14.2598
2118 3 16.0572 10.3635 12.2418
9 2 8.79335 5.292 0.143578
2119 1 1.74749 16.0066 10.6591
516 1 3.14691 14.4335 14.4993
1150 3 1.63316 16.338 14.4025
3118 2 0.0945317 7.26008 10.8954
1642 3 5.32825 16.0224 14.4707
53 2 3.64796 16.3269 12.3516
618 1 7.1184 16.0769 12.332
18 2 9.09808 15.8762 -0.145656
1643 1 8.9403 16.1757 14.167
3615 3 9.08837 14.4161 12.449
72 1 7.27077 14.4502 14.1042
58 2 5.52012 -0.0890378 16.0561
2622 2 12.5495 14.4244 12.4596
54 1 10.7676 16.2349 12.3758
620 1 14.3497 16.0043 12.6887
1607 2 3.74784 -0.00645671 10.741
1647 3 16.1449 16.274 14.2718
3618 1 16.2627 14.1079 12.5737
59 2 12.549 0.106054 16.1773
1 1 -0.0795202 1.76483 1.94392
2608 3 9.03423 17.8918 5.28731
501 3 17.7104 -0.0947487 14.2235
1149 2 16.1469 12.518 14.1723
2621 3 -0.22975 12.4732 12.6721
621 2 0.167212 1.70245 16.1537
1129 2 3.60814 1.81202 16.1478
3128 3 5.65536 1.80075 14.21
1131 2 7.34912 1.81433 16.2521
3129 2 9.07129 1.77541 14.4715
506 3 9.32798 3.5522 16.0664
2588 3 1.62994 0.0411995 5.29258
3074 3 12.7698 12.4598 0.0200614
1133 3 10.8052 1.79183 16.1154
1134 2 14.4081 1.69735 16.1488
1136 3 12.5883 3.42766 16.1712
2633 2 0.0296921 3.53333 14.6083
2586 1 7.14743 17.8046 3.53101
3073 2 9.13123 12.7684 0.105016
1139 2 16.1868 3.61726 16.4144
3144 2 14.2117 12.5198 15.9287
2066 1 10.7719 -0.204324 3.46797
503 2 1.69991 3.52387 16.1399
1630 1 3.24142 5.45443 15.8536
3626 3 5.39621 5.41493 14.286
61 2 5.27213 3.61126 16.0409
1629 3 7.28713 5.59592 16.0284
2647 2 12.6592 14.1938 15.9425
2128 1 7.16985 3.69978 14.4939
3629 2 9.1421 5.17336 14.2472
2129 2 8.99483 7.11848 16.1494
2644 1 10.7632 14.2048 17.863
1628 1 0.268885 5.41225 16.0221
3137 2 10.8818 3.63648 14.451
1632 3 11.0845 5.16068 16.4652
3630 1 12.6034 5.42743 14.3471
2131 2 14.2539 5.37549 16.153
2130 2 12.3524 7.05088 16.2161
3631 3 14.1088 7.20633 14.2181
65 1 16.1711 5.27904 14.651
1633 3 16.2529 7.11352 16.4231
2570 2 7.01088 3.63412 0.156628
504 1 1.78411 7.15459 16.0416
3136 1 3.48387 7.21555 14.339
1141 2 1.73708 10.9396 16.2432
2095 1 0.115505 9.12951 9.11135
1635 3 5.07966 10.7725 16.2302
2133 2 3.60389 8.87845 15.9192
60 3 7.28368 7.29018 14.3996
1631 2 5.27923 7.33034 15.9474
2134 2 7.25416 8.74705 16.0574
1636 3 9.07046 10.7955 16.005
71 2 9.03753 8.7296 14.4002
2642 3 3.67385 12.5863 16.2737
1144 2 12.556 10.7328 16.1327
2637 3 10.9738 8.78451 16.1385
510 2 12.5692 9.08923 14.3485
2638 2 14.2472 8.9397 16.2194
3148 1 16.0798 14.1952 16.2031
511 1 16.0462 8.95203 14.4695
2135 3 16.0411 10.7984 16.1144
3142 3 6.9521 12.6597 15.9078
2640 2 -0.27474 12.3457 16.2773
2641 1 1.97902 14.3712 16.3635
2569 1 3.88606 3.61941 -0.204341
2084 2 10.7526 14.405 -0.00630345
2140 1 6.93729 14.4752 17.9714
47 1 17.7457 5.36061 12.4812
2090 3 12.538 -0.0913185 8.68113
68 3 3.30913 10.7778 18.1974
2127 3 3.81484 3.63907 17.7295
16 2 -0.109348 17.5349 -0.0106552
1128 1 0.110342 -0.0347937 18.0199
1626 1 10.734 -0.0183767 18.0752
3135 1 7.00581 3.58067 17.8048
3075 1 16.1708 12.5949 0.0729088
3574 1 14.4177 14.2935 0.244682
1143 3 8.99637 9.08214 17.6437
3133 2 16.3255 1.39821 18.0341
2639 1 17.8529 10.6731 18.1167
3627 1 5.25723 5.65845 17.6001
75 2 12.456 16.0911 17.7724
77 2 15.9076 16.0553 17.7604
2075 3 16.1825 8.98567 -0.157002
1577 3 7.16707 10.5879 0.0252919
7 2 5.43628 5.2797 -0.0607855
576 1 3.59928 10.7719 0.251642
1086 3 9.09069 8.80739 0.172358
11 2 12.6428 5.23535 -0.0130902
3071 2 3.7112 14.0515 0.15542
2125 1 -0.106257 3.37132 17.6854
14 1 10.6363 10.6507 0.0861584
1088 1 14.5901 10.9395 0.383983
1640 1 16.1135 8.93918 17.8857
2124 1 14.5138 0.177129 18.1213
64 1 12.6781 5.14973 18.0706
80 3 3.40773 1.64173 19.4047
1687 1 8.97168 17.5727 23.2415
3693 1 0.182132 16.2952 30.3769
79 3 6.73712 1.60609 19.7374
2147 1 5.1537 1.98455 21.5264
3649 1 5.40647 3.69996 19.6028
2662 1 -0.0554011 16.1653 19.6421
1012 1 10.9195 17.6681 28.6173
3156 2 6.9143 3.58493 21.3722
1137 1 14.1682 7.14081 17.8597
85 3 8.57027 3.83954 19.8359
2652 3 8.93473 1.94084 21.6243
2650 3 17.9844 17.9414 17.7771
81 1 10.7979 1.84567 19.7258
87 2 12.623 3.51397 19.5817
536 1 10.5838 17.7433 21.3649
2656 2 10.6611 3.81588 21.3885
128 1 3.66466 17.9791 28.6298
522 2 14.3237 1.97001 19.5606
2671 2 8.85332 -0.0863012 23.0184
2720 1 16.1327 14.2012 34.0726
2088 3 14.3435 17.7336 36.0127
3139 1 14.4764 3.37927 17.8056
3154 2 1.76791 3.63662 19.2753
3155 2 1.56907 5.42078 21.3979
524 1 3.66403 5.30535 19.6548
2655 3 3.44804 3.64496 21.4125
3648 1 5.52447 5.45987 21.4822
525 3 6.68996 5.42597 19.4793
3664 2 16.1748 0.0926131 26.8767
1155 1 10.8217 5.25939 19.6088
1154 2 8.88239 7.21233 19.6818
3650 2 8.62711 5.41826 21.5277
527 2 12.395 7.14664 19.7427
88 1 12.4241 5.41945 21.352
639 1 17.9938 7.24066 32.1334
1156 3 14.3677 5.44242 19.5923
3651 2 16.0656 3.61454 19.6623
3677 1 1.93746 0.0231343 30.2747
2197 2 14.3174 0.195694 31.9051
2721 1 1.60439 17.7778 33.8858
84 2 1.75591 7.13016 19.5826
530 2 1.6033 11.0261 19.7681
1159 3 3.57037 8.95506 19.6558
526 1 3.2379 6.87255 21.3464
2196 2 10.6615 0.220719 32.1592
1152 3 5.17767 7.28382 19.6906
531 1 5.21276 8.87584 21.3976
1153 2 7.09567 7.2437 21.2469
1013 3 12.6002 17.8105 30.3453
1651 1 7.30807 9.00773 19.8188
90 1 8.74015 10.8551 19.6283
1161 1 9.01459 8.87801 21.3683
1665 2 1.95431 -0.00732725 23.4203
1652 2 10.5971 8.79926 19.7931
534 2 12.2071 10.7302 19.7108
86 2 10.5258 7.21877 21.5777
91 1 17.8148 17.8486 21.5087
1157 3 16.0071 7.23915 19.4569
1653 1 14.1816 9.18224 19.9865
1654 1 14.1448 10.8982 21.2812
3653 1 3.63085 10.8608 21.447
1658 3 1.96946 12.4251 21.4136
1005 3 0.0322573 14.5117 28.6774
532 3 5.39247 10.8136 19.5955
2149 2 3.75485 12.4917 19.5606
2151 3 6.84435 12.5454 19.5719
533 1 6.9411 10.8292 21.6036
1662 2 8.78823 14.3056 19.8918
2153 2 8.79856 12.3873 21.3869
1160 1 10.5018 10.9163 21.5742
3203 2 5.83027 -0.0229475 34.087
2152 2 10.288 12.6062 19.6874
2659 1 12.4435 12.5659 20.9498
2155 1 14.3519 12.8205 19.5758
3695 3 8.91611 17.5823 30.3142
1656 2 16.4173 10.775 19.9859
2668 1 1.83757 -0.348759 26.746
3189 1 15.9221 17.8989 23.4093
2177 1 10.6784 17.7189 25.0294
1717 2 16.102 16.1854 32.2704
1659 3 1.61322 14.172 19.827
1661 2 3.56136 14.2484 21.5178
3192 2 12.3615 0.347744 30.4989
3217 1 10.7573 15.9924 33.8757
3172 2 0.218828 3.4185 25.198
2664 2 3.50007 16.1237 19.8982
1163 3 5.3528 14.6705 19.7627
3163 2 5.11835 16.2879 21.3861
2658 1 10.6816 14.3179 21.4112
2663 3 7.07061 16.2577 19.6176
3655 1 8.76773 16.1462 21.2735
3160 3 6.924 14.409 21.4295
2630 3 5.21419 1.6896 17.8821
3711 1 16.1304 17.8046 34.3095
2154 2 12.3419 14.4204 19.5856
2665 2 10.822 16.1215 19.687
3656 2 12.4782 16.1554 21.301
3166 1 14.325 16.1758 19.5991
3152 2 8.82122 0.135386 19.7962
3167 2 16.143 17.8711 19.4394
2156 2 16.1767 14.4258 19.4504
115 1 5.34981 17.764 26.7975
560 1 10.7424 0.0470143 28.1415
2145 3 1.88008 1.86814 21.4778
3065 3 16.2357 1.79522 35.6231
3169 1 3.38734 1.87715 23.3113
93 1 1.90831 1.5794 25.3595
2160 3 16.0999 0.117307 23.2906
3658 3 5.34945 1.65694 24.72
1028 3 8.80752 17.7775 33.9467
3130 1 12.5794 1.81787 17.9717
2566 3 14.4806 -0.0746772 35.7755
3164 3 8.8964 17.8993 19.6945
3170 1 7.03778 1.91869 23.2578
3660 1 10.8647 1.699 23.1393
2675 1 7.17111 3.674 25.0723
537 1 8.80676 1.65911 24.7166
2073 1 12.5633 8.98334 35.8374
2691 2 8.71037 0.0650886 30.4498
2653 3 12.4799 2.01797 21.3924
3710 1 14.2918 16.0036 34.1128
2176 3 9.09532 17.6446 26.9178
3153 3 16.0723 1.85937 21.651
3663 1 14.121 2.11034 23.1944
508 3 1.60069 9.0983 17.8205
3173 2 1.72822 3.55693 23.0936
99 1 1.64767 5.28885 24.8945
3175 2 3.24553 3.71755 25.079
100 3 3.60059 5.33073 22.9446
3665 3 5.26582 3.53259 23.334
542 2 7.09046 5.36472 23.1879
543 2 5.21825 5.36957 25.054
3666 2 9.00822 3.61085 23.1489
3177 1 10.7938 3.78765 25.0246
547 3 8.87096 5.32862 24.9585
102 3 10.6354 5.45754 23.0785
2657 3 14.5241 3.66272 21.5019
3179 3 12.3966 3.75867 23.3038
548 3 14.1329 5.35932 23.2115
1670 2 12.4565 7.28241 23.4707
89 1 15.9602 5.56242 21.3412
3668 2 16.121 3.69567 23.4456
1172 1 16.4429 5.58396 24.8379
98 3 1.75966 7.14701 23.2149
529 2 1.67238 9.19147 21.5193
1177 2 3.39926 9.05644 23.2049
101 2 7.25361 7.37988 25.217
541 3 5.06332 7.19508 23.0906
1178 3 7.14027 9.02043 23.1156
1180 1 6.97791 10.4937 25.0312
546 2 8.7405 7.25852 22.8813
1674 1 10.8243 9.19818 23.1543
1181 2 8.743 9.09154 25.0277
2148 3 14.1068 7.38083 21.6071
1162 1 12.3345 8.92483 21.5803
1170 1 10.4661 7.30879 24.9564
1675 2 14.148 9.0562 23.2875
1182 1 12.7075 10.7826 23.2994
1676 3 12.3573 8.98282 24.9544
1655 3 16.2276 8.98796 21.5045
1671 1 16.0452 7.25031 23.2708
1677 1 16.0137 10.4089 23.3421
3667 2 14.0798 7.17554 25.1503
106 3 1.63459 10.7872 23.0974
2169 2 3.54944 12.5085 23.218
643 1 10.751 14.1831 32.1818
108 3 5.25973 10.7496 23.3517
2150 2 5.34956 12.543 21.4464
2167 2 7.29843 12.4267 23.3629
1185 1 5.30503 12.6504 24.983
552 3 8.88068 10.8694 23.3174
551 1 10.802 10.7924 25.2585
2171 3 10.8529 12.4969 23.1233
2681 3 9.03971 12.4901 24.9558
1681 3 12.5122 12.4214 25.0541
2684 2 14.3396 12.6392 23.1073
2683 3 12.573 14.5126 23.2135
1680 2 10.5482 14.2197 24.6639
2661 1 16.1664 12.6663 21.4956
2660 1 14.447 14.3635 21.5967
2207 3 8.96838 14.1461 33.8869
2173 2 16.4699 14.2955 23.3309
1184 3 1.81187 14.3711 23.3434
3161 3 1.65529 16.3451 21.4742
1684 2 1.98996 16.1998 24.914
1017 3 0.112988 5.37143 34.0138
2137 1 -0.0813116 14.4173 17.8965
1702 1 14.2465 17.8625 28.575
3185 3 3.50914 16.3513 23.084
2170 3 5.05623 14.4145 23.1699
3187 2 5.25029 16.3424 24.8656
3186 1 7.12705 16.2152 23.2483
2682 2 8.56215 14.3557 23.2347
3675 1 10.625 15.6541 23.154
113 1 6.7873 14.4514 24.6731
3188 2 12.3969 16.1612 25.1724
114 2 14.4225 14.2099 25.1258
3215 3 7.21731 16.0336 33.9292
92 1 15.9674 16.1301 21.5144
535 2 17.9126 12.4798 19.5882
3676 3 14.1981 16.246 23.2328
1689 1 16.0337 16.0198 24.9093
3159 2 17.9312 10.7194 21.6774
558 3 12.6963 17.7564 26.8098
3708 3 6.95213 14.179 32.2806
2669 2 3.48095 1.82386 26.6756
1168 2 1.81115 3.74152 27.0934
507 1 16.2621 5.24791 17.9637
94 2 7.00703 1.87474 26.7072
20 3 16.3572 15.8579 36.0068
1638 3 12.6716 9.0996 18.0415
2672 1 10.5507 1.89309 26.6189
2182 3 8.82166 1.81521 28.3888
562 1 16.1753 0.0238875 30.5184
1173 3 17.8237 5.33282 26.7168
3661 2 12.3805 1.94335 24.8373
538 1 14.0896 1.93227 26.8109
105 1 14.146 3.65627 25.0861
2184 2 12.3933 1.79034 28.6158
1701 3 6.92854 17.8107 28.6655
3191 3 5.34875 -0.212222 30.246
539 2 16.0834 1.87152 24.991
3193 3 15.9981 1.9448 28.7598
131 1 16.0618 0.0122076 33.6896
2695 3 14.3455 3.53253 28.5958
540 3 3.5668 7.08259 24.8959
544 2 3.32004 5.37447 26.9285
3194 3 1.63414 5.46519 28.7354
1690 1 3.47156 3.75204 28.3492
3176 2 5.18212 3.4966 26.8264
3195 2 5.41092 5.49586 28.401
2676 2 6.88012 5.23661 26.7822
545 2 10.6649 5.55677 26.6482
1171 2 8.96782 3.59045 26.5796
3197 2 8.68638 5.38783 28.3916
2694 2 10.6247 3.79661 28.4203
549 2 12.4007 5.43353 24.9853
104 3 12.3734 3.54679 26.9219
103 3 14.3265 5.29114 26.8384
3178 3 12.4389 7.3215 26.8597
3647 2 16.1294 0.0398841 19.9576
3180 2 16.0238 3.49867 26.7972
1174 2 15.9434 7.01427 26.644
1175 1 1.55805 8.84075 24.8212
1669 1 1.78247 7.22104 26.6631
3196 1 3.39054 7.28896 28.7322
107 3 3.49269 9.09901 26.7389
3687 2 1.62856 8.97891 28.722
1176 3 5.22614 8.99605 25.1261
3174 3 5.09507 7.40942 26.8147
3689 1 5.14204 9.05878 28.8496
122 1 6.85262 10.9473 28.7546
2162 1 7.15517 9.0403 26.8495
1169 2 8.72001 7.35072 26.8199
110 3 10.7199 8.97586 26.9943
626 2 12.5884 8.93735 28.6849
3681 3 10.708 7.12946 28.5256
1183 2 16.0361 8.93836 24.9784
2164 3 14.3063 8.88405 26.975
2163 2 14.3716 10.7991 25.026
1027 3 5.47735 16.0246 32.3429
3684 2 14.3639 7.24876 28.7085
628 2 16.2536 9.17411 28.3249
1678 2 1.64066 12.5525 24.9432
3670 2 3.33464 10.5801 25.0283
2161 2 1.6962 10.7118 26.7377
2680 1 3.34882 12.7165 26.5599
629 3 1.53789 12.5808 28.5265
1179 3 5.36437 10.8611 26.7776
2168 1 3.60926 14.3757 25.0943
1006 1 5.29515 12.4675 28.5362
1679 3 7.18082 12.4221 26.6272
2698 2 10.7279 10.709 28.3709
109 2 8.86241 10.6693 26.8282
3182 1 10.8761 12.6929 26.8251
2172 3 8.84741 14.2235 26.8964
1008 1 9.09561 12.3552 28.7729
3181 2 12.5799 10.8754 26.8338
1682 2 14.1413 12.4377 26.679
124 2 10.7361 14.2634 28.7277
1009 2 12.7452 12.5222 28.6709
3690 2 14.2039 10.8715 28.3733
2685 1 16.1794 12.6711 25.0102
554 2 16.1422 10.8109 26.669
1011 1 16.0939 12.6017 28.7039
3216 3 3.67431 15.9351 33.9944
2679 2 1.68771 14.4341 26.7656
2192 1 1.82344 15.9379 28.7301
2696 3 -0.0276465 10.7763 28.5437
112 1 5.20522 14.2943 26.7349
1685 2 3.69583 16.0938 26.9072
3674 1 6.96744 15.7961 26.7523
2193 2 5.38128 16.0012 28.5655
1686 3 9.16072 15.854 25.3345
630 2 7.05333 14.0284 28.3424
1688 1 10.842 15.8047 26.9062
2146 2 7.12906 -0.0497301 21.3583
556 2 12.701 14.3374 26.8735
2195 2 12.9195 16.1038 28.7988
3184 3 16.1326 14.3028 26.7848
1699 1 14.4548 14.3811 28.8156
116 2 14.3398 16.0148 26.9357
2704 3 16.201 16.0259 28.663
1698 3 17.921 10.9502 28.5329
1667 1 12.5617 -0.0168374 26.6346
2180 2 1.7301 1.72956 28.6989
2673 2 12.6294 0.0868182 23.1798
117 2 3.61384 1.72264 30.4693
2707 3 1.82861 1.75437 32.1265
2181 2 5.34969 1.88347 28.6618
1664 2 7.0523 18.1105 21.4308
118 2 6.85775 2.01284 30.3659
119 3 10.5301 1.96743 30.288
2709 2 8.76239 1.77855 32.4373
3204 1 12.5536 1.91739 32.1808
561 2 14.2873 1.89138 30.3198
2200 3 14.3047 3.60853 32.0668
2711 1 10.7836 3.48117 32.2637
555 1 0.0683414 14.2962 24.9987
623 3 16.1325 3.79055 30.3261
1715 3 7.10964 17.8531 32.144
120 1 1.60591 3.39576 30.1179
1001 1 3.66966 5.6458 30.437
1705 1 3.77646 3.6798 31.9791
121 1 1.71359 7.14796 30.4287
3680 3 5.26049 3.82715 29.9792
2710 1 6.7967 3.55496 31.9334
1691 1 7.078 3.49947 28.4594
3682 2 8.6715 3.68651 30.4172
1191 3 7.16301 5.51377 30.2064
3701 1 7.25182 7.12783 32.3047
3683 2 12.5272 5.3805 28.5066
1002 1 10.5781 5.23519 30.3439
1003 1 12.2906 3.48167 30.1243
3210 3 0.00262818 10.7561 32.3309
3685 2 16.1723 5.42521 28.3017
1693 3 14.2336 5.32148 30.3047
2206 3 1.92815 14.0173 34.2078
1026 3 1.77612 15.9096 32.1703
1696 1 3.52383 9.07753 30.5094
563 3 6.91609 7.33524 28.6843
1692 3 5.33585 7.19624 30.3241
2189 2 7.43779 8.8886 30.5951
2188 1 5.15134 10.7263 30.5626
134 1 5.46239 8.9641 32.4391
625 3 8.83469 9.03156 28.6256
2693 1 8.80536 7.27002 30.2965
2697 1 10.7326 9.0946 30.3684
135 1 8.95363 9.09348 32.354
2187 1 12.5417 7.30621 30.3058
2699 2 14.3712 8.95916 30.2573
137 3 12.5036 9.02828 32.232
3064 1 12.7629 1.73128 35.8256
1694 2 16.1973 6.85501 30.2298
139 1 16.1165 8.80317 32.2632
624 1 1.75678 10.9633 30.5685
2700 2 3.39497 12.4694 30.2562
3688 2 3.42525 10.8048 28.6858
3199 3 7.06598 12.7881 30.4539
3198 3 5.42075 14.2624 30.4062
642 3 5.38526 12.3543 32.1653
1697 3 8.97502 10.5588 30.4911
2701 3 9.02383 14.1837 30.3271
644 3 9.01759 12.388 32.1936
627 1 12.5263 10.6787 30.4292
3200 2 10.6028 12.3532 30.4147
646 2 12.3845 12.3328 32.391
2713 2 10.7174 10.7758 32.3697
3145 3 14.2512 14.2401 17.5777
3201 1 14.1546 12.2078 30.6521
2190 1 16.0111 10.8532 30.2712
125 3 15.9031 14.2247 30.4179
8 3 3.86608 7.06475 35.8503
2718 2 14.3625 12.5565 33.8278
3691 1 1.67701 14.2689 30.4317
647 3 10.7331 17.6821 32.2031
3678 2 -0.166699 1.61298 30.4346
1007 1 3.63065 14.3541 28.5803
126 3 3.6117 15.8326 30.4982
559 1 7.21709 0.056501 28.481
1029 1 9.0808 15.9609 32.313
2194 2 9.01166 15.9066 28.665
127 3 6.95046 15.9254 30.3652
3696 1 10.7334 16.0215 30.2118
1716 2 12.562 15.9453 32.4336
1711 3 -0.1172 9.12479 34.0419
2702 3 12.6792 14.3643 30.4155
645 1 14.3347 14.4336 32.3388
129 2 14.3994 16.1632 30.6811
635 2 12.4567 0.207347 33.8588
1023 2 12.7588 10.4822 34.3364
2178 3 14.3437 17.9082 25.2573
2714 2 16.0237 10.9194 34.0235
1024 3 15.961 12.3303 32.2542
1190 1 0.0169589 5.44815 30.7242
3699 1 1.7172 3.57375 33.9766
3213 2 12.5647 14.119 34.3028
2716 3 7.1838 12.4551 34.0634
2708 1 5.44576 1.79816 32.1211
633 2 3.6898 2.00563 33.9091
140 1 0.029659 14.0281 32.386
632 2 6.80216 1.92209 34.1431
1020 1 8.94307 3.49599 34.0445
3212 1 7.20252 10.7965 32.1996
640 2 9.08341 10.8591 34.0459
634 1 10.6514 1.85016 33.9218
3158 2 17.8292 5.44901 19.8725
1016 2 14.3205 1.74109 33.91
2717 3 10.84 12.3967 34.1695
1672 1 17.8164 3.48225 25.2957
3205 2 15.8489 1.83415 32.0027
1657 2 0.0283212 12.6855 19.6831
3207 2 1.80022 5.42136 32.0046
636 3 1.6155 7.15642 33.8115
1018 3 3.61701 5.5145 33.9506
3208 2 5.50295 5.47614 31.7984
132 3 5.21817 3.52139 33.786
1022 2 5.59642 10.5675 34.2276
1019 3 6.9882 5.01491 33.9847
3702 2 8.63326 5.24788 32.2447
1707 2 10.6993 5.32644 33.9529
136 2 14.4227 10.5199 32.0393
3686 2 17.9105 5.38064 30.456
3703 1 12.5186 5.4481 32.0604
1708 3 14.3182 5.33002 33.9042
637 1 12.4354 3.60301 34.1773
3190 3 16.196 17.4327 26.7525
3171 3 10.7447 0.00988101 24.735
3662 1 14.3167 0.392584 25.2351
133 2 16.0808 3.71213 33.9123
3704 3 16.0062 5.20995 32.2529
2186 3 0.0463788 7.07996 28.6355
3706 1 1.86655 9.01872 32.3514
3700 3 3.65779 7.1406 32.1694
3697 1 1.96987 0.0263443 33.9656
3211 2 3.60134 10.7807 32.2735
1712 2 3.79316 9.00172 34.0974
2199 1 5.54045 7.24992 34.0362
523 3 0.0313515 5.29048 19.4987
141 1 0.0595672 17.8333 32.6138
1706 3 8.90625 7.08235 33.954
2201 1 7.15423 8.90198 34.2252
2712 3 10.5152 7.21539 32.0101
2715 1 3.89852 12.703 34.299
2202 1 10.6631 9.02757 34.1131
1021 2 12.5166 6.8123 33.8431
3209 1 14.5375 7.10421 32.0925
2203 3 14.4629 8.70882 33.8594
1709 3 16.2253 6.77671 33.9518
557 2 18.0996 12.5993 23.0594
3707 3 3.79547 13.9976 32.3028
641 1 1.82361 12.7365 32.3057
1710 3 2.0618 10.7852 34.2062
2690 3 12.3426 17.8772 23.3046
1713 2 5.49793 14.1918 34.0612
505 3 3.5167 7.40366 17.7461
1645 2 14.3431 17.6443 17.6047
78 2 -0.169659 1.79122 19.6822
1015 1 6.97556 0.25729 32.1628
2205 3 -0.235298 12.5008 34.1644
3214 2 -0.272197 15.9046 33.8953
2678 2 18.0366 7.44485 24.9903
2158 1 5.7953 0.0500971 23.2081
520 1 0.0239914 0.083068 21.6742
521 1 3.47529 0.112441 21.6588
95 1 8.88718 -0.00871343 26.6938
3168 2 0.122819 1.85063 23.3046
1030 3 14.4139 17.7963 32.4428
3202 2 16.2202 17.9185 30.6172
1085 1 5.3554 8.88967 35.9003
3672 1 1.72232 17.9897 26.8607
1648 1 10.7864 0.0210618 21.608
82 3 17.9642 0.198192 21.6647
1673 1 0.108713 9.08271 26.5745
83 1 -0.112835 6.8903 21.2952
2166 2 -0.0333903 12.4871 23.3188