ITEM: TIMESTEP
5000
ITEM: NUMBER OF ATOMS
4000
ITEM: BOX BOUNDS pp pp pp
1.8503779898141559e-01 3.5912742201018304e+01
1.8503779898141559e-01 3.5912742201018304e+01
1.8503779898141559e-01 3.5912742201018304e+01
ITEM: ATOMS id type x y z
1 3 3.88942 1.99286 2.05032
3566 1 2.22162 4.06176 1.73036
901 1 18.1077 17.8376 7.23756
39 3 0.318576 9.16136 9.28685
508 3 7.50219 3.76133 17.9753
1566 3 5.74029 3.63283 2.09088
587 3 14.394 14.4832 0.179782
3082 2 16.1901 12.6071 0.261554
2006 3 18.0818 8.83954 2.13957
2065 3 7.48831 2.0545 1.98411
570 3 7.46287 3.66476 3.96081
2 2 10.7531 2.141 1.61185
2615 2 10.8144 0.0848645 14.3778
270 1 17.9014 8.93111 5.47366
2066 1 14.7077 2.04437 1.8877
1567 3 12.8377 3.8792 1.90933
3067 2 16.1565 1.87542 3.69221
3568 3 16.2492 3.62538 1.96714
3742 3 12.6759 18.0033 16.2978
613 3 0.387942 0.3253 14.5016
1565 2 16.1454 0.334551 1.75366
2568 3 14.5662 0.324327 3.82664
615 3 14.7102 0.343146 14.4891
1144 1 9.26497 12.798 18.0316
2067 3 3.7335 5.8637 1.78166
574 1 3.77305 7.31678 3.81043
568 2 0.499112 3.70596 3.70168
3567 1 8.97956 4.0117 1.76052
4 2 7.30446 5.4089 1.94629
1071 2 8.87471 5.43102 3.63205
13 3 0.220805 1.87548 5.48654
2068 2 10.8896 5.49674 1.9032
5 2 14.6946 5.34516 2.1024
3071 2 12.6497 5.66206 3.83808
8 3 0.318996 12.9976 1.9165
1073 1 16.1766 5.49528 3.887
2567 1 10.9146 0.375873 0.161808
593 1 0.217467 14.5906 7.41586
1568 1 2.09621 7.2361 2.2404
3073 3 2.08348 9.23881 3.92989
290 3 17.9076 9.51525 12.7491
2603 2 0.165713 7.46001 11.0046
3569 1 5.63297 7.36677 1.93935
6 2 3.82132 9.19505 2.25518
3 2 0.426945 5.47332 1.97273
1569 3 8.84336 7.41616 1.99403
2576 1 7.1823 7.56491 3.93453
2070 2 7.13482 9.37044 1.75383
3572 2 9.21356 10.9455 2.01604
3570 2 12.804 6.99414 1.94603
7 2 11.2481 8.79133 1.73488
2582 1 11.0203 10.9314 3.86436
1570 2 16.1164 7.1105 1.98632
2071 2 14.0573 9.05396 1.98017
3573 3 16.2315 10.7775 1.94523
596 2 12.6632 0.205714 9.07203
506 1 0.31993 3.71906 18.0016
2017 2 18.0647 5.35545 5.70296
3571 1 1.91427 10.8796 2.20409
1573 2 1.93425 14.5051 2.02207
2829 3 18.0695 10.8757 0.128806
1725 2 16.3972 17.8401 9.01931
1571 2 5.43731 11.1607 1.94991
2072 2 3.76734 12.6551 2.03537
3574 2 5.59379 14.5497 1.73912
3615 1 12.7383 0.275944 16.2123
3724 1 8.84429 17.9921 12.6371
2866 3 17.9513 3.79735 14.4944
9 2 7.31341 12.7848 1.90391
1574 1 9.08955 14.4982 1.75521
2586 3 7.5021 14.4919 3.55331
1081 1 9.34548 12.65 3.77993
2878 3 18.0045 17.8758 3.80227
2632 2 3.89324 3.94371 18.0444
2073 3 10.9399 12.6268 2.19446
1572 1 12.4442 10.7665 2.00613
3081 1 12.4611 12.9602 3.97006
62 1 10.8688 16.3144 16.2928
10 1 14.3613 12.6877 1.85276
582 1 14.3708 10.8671 3.80284
1083 1 16.2451 12.6334 3.67662
1704 3 3.82362 18.0044 7.30548
303 1 18.0589 5.52589 16.3998
3083 1 2.05144 16.2257 4.19226
2625 2 10.789 14.3931 14.617
3625 3 12.8565 14.3723 16.2022
1293 3 17.8447 12.6904 8.99558
11 2 3.88925 16.1827 2.00929
1085 3 5.62081 16.1301 3.77061
253 1 17.7589 5.38664 1.81103
2075 3 7.36755 16.477 1.89608
12 2 10.7768 16.2927 1.6917
586 1 10.6669 14.6516 3.35211
2825 2 17.926 6.77478 3.77697
3575 3 12.4752 14.3316 1.8889
606 1 0.219253 11.1153 10.6909
3706 3 10.9755 17.8995 7.14008
1768 3 18.0651 3.6989 7.37915
1575 1 16.2819 14.4878 2.04432
3703 2 9.20477 18.1348 5.62237
2076 2 14.6598 16.0839 1.74048
3587 2 0.308125 10.9041 7.43024
3063 1 1.98914 1.90643 3.80064
2077 3 3.71204 1.89646 5.26814
2570 1 3.84867 3.85892 3.59118
579 1 3.63371 10.9837 0.186572
2590 1 3.74996 3.65934 7.12985
1065 3 5.51647 1.73744 3.60483
14 2 7.37631 1.81934 5.49392
3579 3 16.2801 0.267391 5.68457
3065 1 9.10393 1.78105 3.52865
2079 3 11.0806 1.9356 5.50842
1067 1 12.7032 2.098 3.67397
572 2 14.4117 3.77492 3.8909
16 1 14.2583 2.12162 5.54575
590 3 10.8555 3.71854 7.32333
2061 1 18.0417 16.2444 16.0998
1090 3 16.1919 2.12677 7.50012
1582 2 16.0385 3.6481 5.63877
767 3 17.8233 10.693 3.71023
1579 2 2.23124 3.89464 5.4756
1069 3 2.14605 5.52096 3.77543
3124 1 13.0277 16.2578 14.5308
3069 2 5.58041 5.61274 3.53944
3580 3 5.60606 3.90705 5.55478
17 2 3.77646 5.58685 5.65046
3089 2 5.65376 5.3888 7.50406
2082 3 7.59494 5.38808 5.8007
1581 1 9.09323 3.36512 5.43061
3585 3 9.0215 7.33332 5.47575
3581 2 7.13674 3.57292 7.5214
2572 3 10.9954 3.7547 3.4175
19 2 10.448 5.50359 5.50506
3582 3 12.4975 3.69935 5.36398
1585 3 12.46 7.32732 5.47722
1563 1 2.006 0.386024 2.04345
2592 1 14.4034 7.01462 7.27137
2083 2 14.345 5.29268 5.675
2084 3 16.3277 5.38237 7.27673
3586 2 16.2074 7.05298 5.43528
3583 1 2.11023 7.28836 5.46975
1587 3 1.8458 11.0994 5.45448
1075 3 5.56623 9.24568 3.87509
2085 1 3.84969 9.3828 5.39206
1584 1 5.44444 7.20001 5.51207
3588 2 5.37426 11.2464 5.72525
3075 3 9.23623 9.27121 3.75365
22 1 7.21225 9.33046 5.71203
1092 2 9.16717 8.87388 7.43473
1588 3 9.16494 10.8649 5.67326
576 2 10.9955 7.23998 3.33074
2086 3 10.7453 9.18487 5.47153
2578 1 14.1916 7.207 3.75364
1077 3 12.5781 9.19096 3.87028
3589 1 12.7179 10.9004 5.36145
23 2 14.6829 8.85065 5.33883
3077 1 16.0365 8.87276 3.55365
2126 1 14.6577 16.0629 16.5278
1719 2 2.02498 17.7992 9.00018
597 3 11.1974 0.295001 11.0139
1079 2 2.00725 12.8064 3.83356
25 1 3.53288 12.9392 5.61713
3591 2 1.75137 14.4097 5.63743
24 2 1.72346 12.7596 7.32343
584 2 3.73779 14.6302 4.02812
3079 3 5.40849 12.8895 3.72127
2580 2 3.87722 11.1843 3.85556
1591 3 5.72875 14.1967 5.70144
1093 3 5.51416 12.7367 7.42139
580 1 7.29601 11.0555 3.76125
2089 3 7.40264 12.7934 5.67516
2594 2 7.39817 14.2787 7.63487
3593 1 10.9982 14.5065 7.35115
26 2 10.6331 12.5642 5.67431
3092 1 12.7244 12.4944 7.18406
2091 3 14.6147 12.818 5.41376
1590 2 16.3676 10.8042 5.43559
3594 3 16.2427 14.5079 5.60849
2047 1 17.913 16.1719 9.04439
2585 2 3.74228 14.6448 0.202426
2092 1 3.94282 16.1389 5.60214
1592 1 3.59941 14.1411 7.43983
3592 3 9.12063 14.532 5.58594
29 2 7.23013 16.3564 5.42147
3085 1 8.99647 16.5562 3.72131
1087 3 12.6754 16.192 3.69863
2588 2 14.4378 14.4378 3.63557
2094 3 10.7606 16.1763 5.56595
1593 3 12.3995 14.4932 5.42793
31 1 14.5265 16.3757 5.54565
2032 2 17.7975 1.86873 9.16553
3087 3 16.3865 16.1012 3.75281
1095 3 16.1171 16.1311 7.3063
578 2 0.252797 11.1633 3.6277
1089 3 1.93252 1.98501 7.12521
3095 1 3.78344 2.00001 9.00852
2074 1 0.344055 16.2522 2.01184
623 1 0.441647 14.5325 14.6173
2078 3 5.56282 1.89925 7.28228
2715 2 7.24437 17.9652 7.50326
33 3 7.12194 1.74038 9.16252
3088 3 8.94099 1.99757 7.40609
1097 2 11.0166 2.03766 9.13611
3096 3 9.19522 1.82678 11.1858
1583 2 14.2067 3.54835 7.50237
15 1 12.611 1.81493 7.39949
1600 2 12.6558 3.66994 9.31192
2724 1 7.27805 17.8493 10.8667
2601 2 10.8937 3.66225 11.0431
2621 1 0.172065 10.9777 14.5236
297 1 18.0377 16.2989 12.697
1688 3 2.01838 18.037 2.08973
289 1 17.9645 9.19144 9.00199
2098 2 14.3678 2.16862 9.17751
1624 1 9.03732 14.4954 16.2724
2722 2 5.53213 18.0151 9.09125
2081 1 1.99774 5.44236 7.25579
2599 3 1.92894 3.71798 9.27438
36 2 3.99992 5.42086 9.08279
3602 2 1.97535 7.02856 9.2095
282 3 18.0986 1.92322 12.6008
3599 3 5.42077 3.63139 9.69835
602 2 5.60342 7.60243 9.32918
2600 3 3.61478 3.71882 10.999
600 2 7.41124 3.80748 11.2369
18 1 9.07498 5.44329 7.37241
1100 2 7.15965 5.62018 9.21836
599 3 8.97317 3.74652 9.33456
1101 2 9.32281 5.54084 10.9012
1586 3 10.8986 7.13942 7.48784
1603 2 8.93903 7.26025 8.91785
2101 3 10.9742 5.5604 9.37511
1091 3 12.5279 5.54804 7.48487
2605 2 12.7005 7.39966 9.32801
2574 3 0.478378 7.30121 3.70698
1594 1 1.7957 0.396699 9.19591
2602 2 16.1311 3.5668 9.24369
3101 3 14.6792 5.48988 9.22771
3605 2 16.189 7.52836 9.07528
1102 1 16.5849 5.75271 10.7227
3090 1 1.94527 9.10847 7.05618
3102 1 1.88827 9.20158 10.9691
21 2 5.60763 9.19207 7.32934
592 3 3.62927 11.0058 7.15441
3584 3 3.77808 7.42992 7.23944
1103 3 3.58092 9.21217 8.89445
1104 3 5.63644 9.26294 10.9377
2607 2 3.72174 10.772 10.7581
1606 2 5.57113 10.777 9.16295
603 2 3.77609 7.34002 10.8261
591 1 7.30503 7.49805 7.16923
2604 2 7.37665 7.32785 10.8954
2104 2 7.38991 9.07053 8.84865
3103 2 9.1234 9.13124 10.749
1589 3 7.40945 10.9719 7.41938
2087 1 12.6741 8.83323 7.31889
3104 3 11.0371 9.28144 9.17799
42 1 14.4596 9.19041 8.99424
1105 2 12.9159 9.30814 10.8593
2609 2 11.0876 10.9496 10.8255
3608 2 12.8346 10.8988 8.97085
3590 3 14.3039 11.043 7.25076
3091 3 15.9848 9.13986 7.21625
608 3 16.1424 10.8443 9.13729
605 1 2.0723 11.0542 9.04173
1107 3 1.84481 12.8037 10.8887
1609 1 1.95258 14.2611 8.98721
2107 2 3.88799 12.7517 9.33527
3107 2 7.34491 12.7013 9.3669
2612 1 7.39168 14.4308 10.9775
2608 1 9.11903 11.0939 9.00751
2090 1 9.11162 12.7078 7.65126
45 2 11.0161 12.5427 9.06866
2593 3 10.9998 10.5968 7.35748
3108 1 12.5194 12.8756 10.8684
611 1 12.5793 14.3339 9.00485
2613 2 14.2708 14.5279 10.9226
594 2 14.3085 14.5035 7.36214
27 1 16.1726 12.7607 7.15858
1109 1 14.404 12.6182 9.27769
1612 1 16.2761 14.4823 8.94744
1110 2 16.0902 12.8511 10.8838
3123 3 5.39178 16.2352 14.6284
2624 1 3.65409 14.4152 14.6285
1094 1 1.95424 16.1096 7.20887
3110 2 3.68261 16.2538 8.91276
3109 1 1.90465 16.2671 10.7508
1121 3 16.2105 8.94849 14.3103
2121 3 14.7129 8.96872 16.2897
2611 2 5.33482 14.7448 9.26339
2093 2 5.73164 16.2866 7.4313
48 2 7.67729 16.3503 9.11384
1123 1 12.8197 12.5563 14.4293
1134 2 9.18536 5.45032 17.9416
2841 1 17.8517 7.43025 7.22871
3611 3 9.27638 14.4947 9.22418
3093 3 9.10314 16.2795 7.23362
1112 2 10.8317 16.4153 9.18913
30 3 12.5998 16.3202 7.27139
3620 3 12.6532 7.40865 16.2686
1113 3 12.5616 16.1996 10.8015
2099 2 0.223468 5.62917 12.5706
3692 1 12.6729 18.0654 2.01334
2113 1 14.308 16.2158 9.22788
622 3 11.0988 10.972 14.537
3094 1 1.81993 2.0505 10.932
2096 1 3.84381 1.85664 12.7743
3622 1 9.16289 11.1717 16.2434
61 1 3.45648 16.2731 16.2665
308 3 18.0248 12.7177 16.3199
1096 2 5.54356 1.8236 10.9865
34 1 7.14972 1.90007 12.7732
2617 2 7.29074 3.62649 14.4209
518 3 7.23754 10.8301 18.051
20 1 0.383114 9.21034 5.51166
2097 1 11.029 1.91797 12.7744
2698 3 14.6344 17.9241 3.62642
2120 3 7.41399 9.22785 16.3771
3701 1 2.01549 17.9437 5.29818
1098 3 12.7378 2.02842 11.0211
35 1 14.7224 1.91081 12.6901
3097 2 16.0274 1.91347 10.9901
1601 3 16.5287 3.98842 12.4792
1116 3 16.5467 1.88011 14.5404
2125 3 7.40974 16.3684 16.1911
2583 2 14.3 10.8527 0.228486
1577 3 3.68942 0.387144 7.3645
1099 2 2.04278 5.69314 11.0946
1598 3 1.76702 3.71169 12.7234
2619 2 4.03082 7.44015 14.5464
3099 2 5.4796 5.48078 10.9809
3600 2 5.45799 3.73875 12.8802
37 1 4.00473 5.9778 12.6788
1117 1 5.71386 5.5748 14.356
1599 1 9.10371 3.62327 12.8014
2100 1 7.27711 5.55946 12.6833
3116 3 9.26132 5.55276 14.3794
38 1 11.0678 5.67965 12.4949
3601 2 12.8268 4.00722 12.5741
3100 1 12.7339 5.54655 10.7393
1604 1 12.5828 7.41292 12.6421
3577 1 9.10091 0.261077 5.45659
601 2 14.4958 3.67945 11.0306
2606 2 14.6387 7.42824 10.8551
2102 1 14.5537 5.75703 12.5663
3606 3 16.4157 7.3106 12.6861
3603 3 2.12161 7.26813 12.9122
60 2 14.5876 12.4768 16.408
3623 3 16.4018 10.5405 16.3402
1120 3 9.27403 9.32882 14.6034
1602 2 5.67653 7.36892 12.5438
2103 2 3.93445 9.32174 12.8552
3607 2 5.69251 11.0181 12.746
2622 3 7.51094 11.0635 14.574
3604 1 9.06144 7.26753 12.6329
41 2 7.22405 9.21269 12.7618
619 2 7.2122 7.34922 14.4962
604 1 10.7788 7.53229 10.8391
2105 3 10.7811 8.98907 12.7523
3119 1 12.7204 9.11951 14.7707
609 2 14.3925 11.1005 11.0402
3105 1 16.5621 9.2003 10.9439
43 2 14.5546 9.27913 12.5927
1608 2 16.2295 11.0719 12.4399
620 1 14.4746 7.2852 14.3697
1605 3 1.80304 10.7948 12.7016
610 2 3.41091 14.3764 10.7978
3120 2 1.92198 12.5354 14.4707
44 1 3.83757 12.3324 12.4853
3690 3 5.40675 18.0069 1.92026
3106 1 5.38419 13.0416 11.0599
1108 3 9.33267 12.5214 11.0352
607 3 7.41073 10.9962 10.9326
1607 1 9.35222 10.9456 12.615
2108 3 7.42079 12.6934 12.8211
3612 2 9.12915 14.4885 12.8971
3121 1 9.11773 12.6567 14.5762
46 3 11.0602 12.833 12.7253
3609 3 12.4166 10.7973 12.6907
258 1 17.999 12.6039 2.00019
625 3 14.7682 14.4027 14.5353
2623 1 14.2893 10.8899 14.4759
3122 1 16.0952 12.4853 14.5054
2109 2 14.4544 12.5946 12.6553
3613 1 16.2133 14.4378 12.5878
1625 2 16.3176 14.5323 16.6058
1064 1 2.19002 2.08424 0.264989
3610 2 1.88654 14.4324 12.8063
1124 1 1.93822 16.4105 14.4104
3720 2 2.03151 17.7567 12.5739
1111 3 5.26133 16.272 10.9336
1610 3 5.29049 14.3502 12.7862
2111 1 3.52255 16.072 12.78
2095 1 0.235935 1.81252 8.95728
1620 3 16.2809 7.11872 16.3272
1125 1 9.12265 16.2653 14.5971
49 3 7.17105 16.0696 12.8059
3111 2 9.19353 16.3387 11.1812
1611 1 12.9271 14.6473 12.8562
612 2 10.857 14.4909 10.9342
2112 1 10.7454 15.9416 12.8992
2591 3 0.301396 7.31443 7.38405
50 3 14.5308 16.3393 12.832
3112 1 16.2999 16.1715 10.8747
1126 1 16.2407 16.4842 14.537
3118 1 5.74734 9.08941 14.5456
1114 1 2.06327 2.0637 14.6303
3621 1 2.09067 10.9011 16.2668
794 1 17.8959 10.8972 10.7309
59 3 7.31669 12.6854 16.3787
51 1 3.73247 2.18922 16.4256
3113 2 5.46251 1.80221 14.484
2115 1 7.2745 1.7816 16.2457
1623 3 1.74175 14.381 16.5041
1115 3 8.83395 1.86628 14.5257
3617 3 9.22055 3.58795 16.1154
2123 2 11.0807 12.7027 16.4724
2122 3 3.86234 12.5089 16.4073
624 1 7.23039 14.3134 14.3756
3114 2 12.7976 1.99304 14.2664
617 3 11.0004 3.86251 14.2408
52 2 11.2572 2.14996 16.0039
1617 2 12.808 3.72303 16.2562
2116 1 14.6555 2.12607 16.3894
57 3 11.0086 9.22748 16.1384
3619 3 5.68099 7.32479 16.2486
3115 1 1.75225 5.44105 14.3571
3616 3 1.93183 3.89918 16.1501
616 1 3.91573 3.87531 14.2865
1618 3 1.79891 7.38231 16.138
2117 1 4.04412 5.53986 15.9897
1616 3 5.73939 3.70492 16.1642
1621 3 5.54643 10.9825 16.1686
3624 1 5.67282 14.4591 16.3143
1619 1 9.18328 7.23088 16.3157
54 2 7.49688 5.73476 16.1621
1118 2 12.7086 5.46906 14.6926
2618 3 14.5793 3.7716 14.217
2620 3 10.9651 7.05842 14.4539
2118 1 11.0302 5.41669 16.2195
1122 1 5.60654 12.6256 14.4291
3117 3 16.2685 5.41892 14.4026
3618 3 16.2304 3.79333 16.1652
55 2 14.5736 5.64057 16.3039
1622 2 12.759 10.9001 16.4131
1119 1 2.06071 9.34575 14.5102
621 2 3.91952 11.1417 14.5978
56 1 4.03011 9.14105 16.0775
2064 1 0.152729 1.83359 2.1486
3597 3 9.11614 0.11049 12.6804
2584 2 0.274873 14.6071 3.79662
1128 3 5.67467 2.05983 18.002
2871 2 17.944 11.1287 14.3791
1721 2 5.61001 17.9584 12.5869
3137 2 9.34083 8.90997 18.0074
2860 2 17.9285 14.6328 10.6451
2080 2 0.40168 5.5528 5.59569
2069 3 0.18414 9.04706 2.11061
1578 3 12.7318 0.243239 5.32768
3596 3 9.22816 0.119402 8.9077
811 3 17.9539 14.3594 14.6463
3837 1 17.7494 10.8293 7.29439
40 2 0.175323 8.95603 12.8598
2124 1 0.272118 16.4473 16.2805
1138 3 5.52212 8.98547 18.0768
566 3 10.8351 0.258066 3.71388
3578 3 10.7687 0.123146 7.19956
589 1 14.5512 0.467288 7.76135
1576 2 5.52756 0.266411 5.44934
1692 1 16.4042 17.6684 1.48236
629 1 3.87228 17.812 3.8112
1724 3 12.5411 17.7431 12.8894
663 2 10.6866 18.0333 11.0191
3135 1 2.13172 9.04516 17.9881
1140 1 12.6229 8.93845 17.9888
3086 3 12.6039 15.9467 0.242154
1148 3 5.30761 16.4874 17.744
3125 3 2.04322 1.84189 17.6983
3064 1 5.50374 2.09904 0.388333
2650 1 14.5387 14.2412 17.9663
3066 2 12.6457 2.17965 0.27302
2565 3 3.86269 0.261222 0.277934
1150 1 12.7036 16.2258 17.9772
577 3 14.5776 7.02966 0.264881
514 3 11.2339 7.25912 17.8986
524 2 10.7975 14.6891 17.8731
2581 1 7.02996 10.9925 0.26826
512 3 3.71573 7.22516 17.7501
569 2 4.04363 3.99659 0.314143
2573 2 14.4883 3.74958 0.196044
502 3 3.90068 0.314905 17.8059
771 2 17.8671 14.3544 0.208349
1086 1 8.9074 16.518 0.240848
1076 3 9.04431 9.10103 0.281247
575 1 7.20917 7.36255 0.290805
1074 2 2.28575 9.24934 0.273204
3080 3 9.41031 12.5241 0.197399
1078 1 16.008 9.12876 0.433857
2127 1 3.82096 1.79232 19.6956
2695 2 10.7997 17.9918 35.9068
1554 2 12.6084 17.9979 34.27
740 3 3.6995 17.8805 32.0944
64 1 7.32697 2.10107 19.853
3126 2 5.50836 1.92218 21.3948
841 3 18.0401 7.31103 25.2575
2360 3 17.9865 16.2546 30.6385
2661 2 0.39815 3.77185 28.5077
522 3 3.77097 14.6274 18.2456
2805 1 14.3607 17.959 32.3918
1129 2 9.0426 1.99367 21.4502
2128 2 10.875 1.7788 19.881
3630 3 12.5817 3.55705 19.9495
1146 2 16.3201 12.5047 18.2488
510 2 14.5876 3.529 18.2379
3131 3 5.56235 5.54938 17.9411
65 2 14.3229 1.93896 19.9342
1630 1 16.2875 3.69028 19.9357
2640 2 14.5439 7.45475 18.2386
3753 3 9.14762 17.9703 19.745
1628 3 2.01779 3.8713 19.809
3801 2 2.03213 17.95 34.2465
3130 1 2.02432 5.34933 21.7323
66 3 3.83172 5.32161 19.9065
2633 1 7.20226 3.7682 21.7779
853 2 18.051 7.13152 28.6532
3629 3 5.57654 3.66711 19.5659
2130 2 7.48092 5.26917 19.7425
1631 2 5.54306 7.06142 19.7221
2637 2 3.69505 7.11095 21.52
3068 1 1.68241 5.65328 35.6247
1629 3 9.19187 3.75403 19.8039
3632 1 9.12984 6.9978 19.9583
3132 2 8.99521 5.54943 21.6086
67 3 11.2109 5.54205 19.8256
2131 3 14.5165 5.43878 19.9357
1632 2 12.6743 7.32171 19.8671
1072 3 12.5834 5.6152 35.5747
3633 1 16.3105 7.34223 19.9008
323 2 18.1097 16.2521 19.9773
3631 1 2.01145 7.11099 19.6764
1633 1 1.97836 10.7942 19.8263
2132 1 3.81945 8.91847 19.9134
3136 2 5.59138 9.02943 21.6661
3634 3 5.79151 10.7513 19.8348
517 3 3.49696 10.8748 21.5256
585 1 7.43177 14.6097 35.8973
69 1 7.50592 8.79834 19.8807
1139 2 9.09824 8.90244 21.9229
513 1 7.19476 7.22461 21.6987
1638 2 1.97229 0.200178 23.3537
558 1 0.225305 10.9897 32.1644
2133 1 10.9025 9.1022 19.938
70 3 14.4347 9.15751 19.809
2645 1 14.5104 10.7416 21.7235
3129 1 16.3234 1.99675 18.1146
2511 1 17.9925 7.39414 18.2214
1066 1 8.97043 2.08806 35.7153
125 3 14.3513 16.2059 34.1725
1141 2 16.2886 9.15483 21.5852
1635 3 16.2142 10.8049 19.9736
3688 1 15.9848 14.5985 34.2125
3636 3 1.83267 14.7358 20.0665
71 3 3.73119 12.7786 19.8797
1143 3 5.58125 12.6137 21.5759
1636 3 5.5472 14.4922 20.0216
63 1 0.252693 1.66288 19.7625
1634 3 9.15093 10.8165 19.6965
2135 3 7.41544 12.6454 19.8918
72 3 10.8898 12.8354 19.9229
3142 2 9.04969 12.6256 21.6255
3070 1 9.17346 5.46798 35.7898
3635 3 12.5968 10.8072 20.0016
2136 1 14.7077 12.6794 19.9412
1637 3 12.738 14.4967 19.8055
2649 2 10.8848 14.6146 21.4979
3144 3 16.3165 12.8016 21.9223
3638 3 16.1936 14.4446 19.8266
79 1 0.128893 5.22856 23.6479
1130 3 12.8036 1.96061 17.9952
3084 1 5.38112 16.4972 35.9059
1147 1 1.75491 16.1564 21.6719
2656 3 0.450698 14.3572 24.9832
2137 1 3.75864 16.2617 19.8084
3146 3 5.44655 16.2605 21.6735
2638 3 7.3516 7.38611 18.0511
2154 2 0.247228 16.4909 23.446
3637 3 8.99772 14.5652 19.6912
523 3 7.30577 14.57 21.7358
74 1 7.08393 16.3644 19.9921
1149 3 9.23683 16.3527 21.6737
2138 1 10.9956 16.2965 19.8071
75 1 14.446 16.1616 19.7962
3148 2 12.729 16.2774 21.743
3074 2 5.63598 9.14558 35.8581
1127 2 1.96108 1.83802 21.6899
1532 1 1.73025 17.908 30.5316
3150 3 1.90881 2.12787 25.0963
76 1 3.83436 1.69019 22.9129
2140 2 7.44246 1.83527 23.2032
1642 3 5.50022 3.78848 23.2545
77 1 5.41417 1.79283 25.0412
3787 1 12.7015 18.0184 30.7
78 3 10.6592 2.04302 23.4291
1152 3 8.99814 1.94414 25.0938
113 2 0.230678 2.03697 34.3548
3128 2 12.6897 1.97258 21.7392
1644 1 12.5279 3.94266 23.6064
2142 3 14.4456 2.02277 23.41
1518 2 10.961 17.9208 25.1093
835 1 18.0745 14.6848 21.8739
2141 1 12.5514 2.10076 25.1013
3133 3 12.808 5.39799 18.2472
1131 1 16.3054 2.20412 21.4638
3151 3 16.3581 1.81505 25.1235
2652 2 14.5154 0.236571 24.808
3642 1 1.96882 3.84531 23.352
1645 1 2.05928 7.31446 23.5145
507 2 3.76771 3.64681 21.4966
2143 1 3.72055 5.60634 23.3907
1133 3 5.61944 5.53319 21.5937
81 3 7.17232 5.53296 23.475
3644 1 8.83852 3.91617 23.6315
2144 2 9.00465 5.56023 25.4329
1647 1 9.14354 7.12101 23.6217
2145 1 10.921 5.52485 23.6119
509 1 10.7409 3.60117 21.5817
1135 2 12.4505 5.74268 21.7052
82 1 14.4899 5.50768 23.5742
3152 2 12.7795 5.48678 25.2268
2639 2 10.6653 7.30819 21.8492
3648 2 12.7615 7.3956 23.5363
3658 3 5.26041 0.391473 30.3759
2635 3 14.3094 3.75509 21.6866
3134 3 16.0758 5.79899 21.655
3645 1 16.2844 3.66954 23.3972
1648 2 16.0888 7.28776 23.5355
1088 2 16.3032 16.1478 35.7617
1137 1 1.97178 8.82673 21.5201
3650 1 1.97205 11.0506 23.3878
84 2 3.68217 9.0455 23.0766
3647 1 5.28426 7.55615 23.3955
2147 1 5.51764 9.4019 25.0627
1650 2 5.35388 10.8169 23.3526
2654 3 7.24597 7.21578 25.0782
2148 2 7.24276 8.94223 23.5623
3651 3 9.08237 11.013 23.5423
3153 1 9.09751 8.89189 24.9655
3138 1 12.6696 9.0739 21.704
85 2 10.8763 9.09206 23.3479
2149 3 14.5392 9.12852 23.5456
530 2 10.7985 10.8338 25.0545
529 2 14.6133 7.29504 25.222
515 1 14.3555 7.58439 21.7019
3653 3 16.4481 10.979 23.6123
1155 2 16.3508 9.04586 25.246
547 3 0.175507 14.5217 28.4836
3140 3 1.94765 12.7401 21.4756
2647 1 3.5998 14.4753 21.7228
2150 2 1.83665 12.6806 25.1696
2151 1 3.72101 12.645 23.2769
88 1 7.19459 12.558 23.5014
3655 1 3.68573 14.3235 24.9647
2643 3 7.52316 10.984 21.5667
89 2 9.15849 12.6189 25.2683
1654 2 9.34307 14.4712 23.3942
519 1 10.8359 10.8671 21.7049
1651 2 12.9407 10.8653 23.4678
2152 3 10.8206 12.5119 23.4352
1145 2 12.6751 12.6629 21.6661
90 2 14.4548 12.8766 23.5603
3656 3 12.6039 14.339 23.2648
1652 3 14.5159 11.0488 25.3296
1656 3 16.2356 14.5029 23.6846
1653 2 1.85852 14.7254 23.2006
3155 3 2.05264 16.2762 25.0417
1659 2 9.14916 0.387132 30.4391
2321 3 17.9902 12.785 19.9314
535 3 14.3683 0.217917 28.9609
91 3 3.79913 16.4163 23.3897
3654 3 5.36529 14.3544 23.4083
92 2 5.39241 16.3575 25.2836
531 3 7.38606 14.4523 25.1309
2155 2 7.29487 16.1299 23.2703
93 1 11.2005 16.2786 23.424
2754 1 3.58435 18.1139 21.6811
511 3 0.279809 7.21314 21.8857
2157 1 14.4733 16.204 23.7035
1655 2 10.9319 14.2634 25.2868
2156 1 12.704 16.2848 25.0097
727 2 14.4383 17.8536 28.822
3782 1 1.93889 17.8999 27.0397
1136 1 16.2316 5.4184 18.145
1515 3 9.0954 18.0179 23.5823
525 3 14.3285 14.2991 21.7671
1151 1 16.0738 16.2268 21.6017
3156 3 16.3288 16.2258 25.2203
527 3 3.77496 3.57066 24.7771
1159 1 3.58316 1.9051 26.8709
2353 2 18.102 8.98204 30.3787
536 3 2.16698 3.59834 27.0228
1158 1 2.00152 1.95054 28.8544
2159 1 7.2976 1.67323 27.0137
1661 3 5.1982 3.72527 26.8788
1643 1 7.26398 3.80799 25.3954
87 1 0.242542 12.7224 23.1331
2531 3 18.1064 14.3283 25.2059
2653 2 10.934 3.84423 25.2801
3158 1 10.6802 1.97972 26.7672
2662 3 8.87775 3.82361 27.1696
373 2 18.0216 16.4592 34.1314
3646 2 14.4468 3.66983 25.3636
698 1 14.3444 18.0056 21.749
1687 3 12.6543 14.3213 34.2679
97 3 14.4431 1.68177 26.875
1161 2 16.2425 1.87566 28.7272
2188 1 10.9228 16.2715 34.1031
80 2 2.0744 5.54524 25.1262
1664 3 2.04363 7.26043 26.727
2162 2 3.67386 5.79969 27.0468
2666 2 3.78295 7.34158 28.8167
3160 2 1.91984 5.55404 28.6576
1153 2 5.37367 5.37662 25.1669
2665 3 5.47032 7.32736 26.8666
3161 2 7.13117 5.47283 27.192
100 1 10.8574 5.6151 27.0564
3162 2 8.89846 5.69933 28.6455
3663 3 12.6858 3.65912 26.9671
1164 3 12.5496 5.51868 28.8811
1165 3 14.6119 5.50031 26.99
2664 1 14.5957 3.62774 28.5477
83 1 16.1664 5.4601 25.0791
539 2 16.2913 3.58019 27.0843
1667 2 16.4282 7.26013 26.98
2776 2 0.132768 17.9056 25.3021
2345 3 18.148 1.76259 30.4908
2677 3 7.21138 0.319697 32.341
1646 2 3.77743 7.41689 25.0885
1154 2 1.81438 9.08618 25.0422
1166 3 1.771 9.27829 28.5953
2655 1 3.69525 10.762 25.2191
544 3 3.78465 10.9876 28.7831
3164 1 3.89347 9.08203 27.0612
103 1 7.09001 9.19412 26.7369
3669 2 5.48646 10.9466 27.0015
3652 2 7.40255 11.0058 25.2227
3649 2 10.7999 7.31625 25.2212
3666 1 9.16339 7.41365 26.9409
1168 1 11.0775 9.08441 26.8273
1167 1 8.84312 9.18806 28.7022
545 1 9.33707 10.8429 27.024
541 3 7.17428 7.32107 28.7745
542 1 12.7442 7.33641 27.1058
86 3 12.57 9.25283 25.1528
2168 2 14.5743 9.138 26.877
1670 2 12.5995 10.8686 27.0549
2671 3 16.2122 10.9825 26.9027
3687 1 8.97248 14.5424 33.9886
1169 1 16.4287 8.97528 28.6232
1837 2 17.9649 10.785 25.3217
2668 2 1.56733 10.9169 26.9377
3168 3 1.69507 12.6063 28.6749
2575 1 3.61413 7.5009 35.9444
106 3 3.63962 12.8275 26.9426
3154 3 5.57232 12.8428 25.2733
2670 3 7.34927 10.9251 28.686
1171 1 7.25861 12.5255 26.8056
549 1 7.4354 14.598 28.7206
548 2 5.66459 14.4781 26.752
1673 3 9.22198 14.5001 26.8012
2675 1 10.9132 14.5261 28.7932
1156 2 12.8094 12.5042 25.3233
2171 1 11.043 12.8649 27.0272
2674 2 12.7391 14.6682 26.91
1172 3 12.9666 12.705 28.9559
2153 1 16.3119 12.7291 25.3442
3170 1 14.4315 12.8042 27.0544
3171 2 16.1984 12.7609 28.673
3675 2 16.4442 14.5715 27.0672
3766 1 5.31831 17.9741 23.1669
2577 3 10.8445 7.22479 35.7964
3672 3 1.85859 14.2543 26.925
3145 1 1.87523 16.209 18.1958
2673 2 3.84347 14.4334 28.5203
1174 1 3.65734 16.2706 26.7895
3172 3 5.55012 16.0975 28.6577
3149 1 16.5346 16.4752 18.1664
1157 1 9.06081 16.102 25.1047
2174 2 7.53183 16.1439 26.6946
3173 1 10.9516 16.2426 26.8126
1175 3 9.28974 16.0118 28.7834
3784 3 5.67045 17.9878 30.3119
112 2 14.5968 16.2594 26.868
3174 2 12.7855 16.1539 28.7508
1162 1 0.156934 5.54064 27.0088
124 2 7.37032 16.3238 34.183
550 2 14.6711 14.6264 28.8168
2657 3 14.2992 14.4674 25.3082
329 3 18.1157 5.36887 23.4417
95 2 3.62893 2.06072 30.4619
537 2 3.57781 3.72969 28.8026
2517 1 17.9769 10.8757 21.8917
2173 3 0.15756 16.2373 30.5374
3157 3 5.24655 1.99901 28.557
1177 2 5.4221 2.23929 32.347
2160 3 7.17002 2.06159 30.526
3751 3 2.0704 17.907 19.7188
3755 2 16.2696 18.0557 19.8486
1160 1 9.05987 2.17762 28.9807
3176 2 9.05457 2.01048 32.2607
3662 1 8.85331 3.78751 30.3676
96 1 11.1819 1.92172 30.4203
348 1 17.8758 5.6966 30.4352
3159 1 12.6429 1.6986 28.4595
538 2 10.836 3.61864 28.7129
1178 3 13.1072 1.91457 32.4124
2161 2 14.3754 2.38039 30.3752
1663 1 12.3936 3.76608 30.681
1068 1 16.2788 2.25322 35.8372
3177 2 16.3962 1.89484 32.3204
3664 1 16.3941 3.43691 30.4462
555 1 14.6096 3.78357 32.184
1187 2 5.67365 16.4493 32.1405
120 2 14.5429 8.87037 34.1001
3661 3 1.80133 3.79355 30.4311
1179 1 1.71708 5.71742 32.332
2371 1 17.8548 12.6538 34.0272
2163 2 3.68827 5.64414 30.4243
1163 3 5.43215 5.55557 28.7491
1662 1 5.40297 3.57646 30.2206
3665 1 5.57533 7.5733 30.5097
2663 1 7.12464 3.61294 28.6316
99 3 7.10965 5.60757 30.4698
1180 3 8.90149 5.5575 32.1672
2164 3 10.7125 5.39916 30.4308
2667 3 10.7538 7.40132 28.9104
3667 3 13.0013 7.3401 30.497
3179 3 12.8155 5.67701 32.3397
561 3 3.84628 14.7414 32.0664
101 2 14.5943 5.10114 30.4703
3163 1 16.3295 5.53146 28.6087
1668 3 16.1534 7.53244 30.536
1665 3 2.02479 7.54094 30.6033
102 2 3.88982 9.07931 30.2742
3893 2 18.0645 3.45509 25.3253
3165 2 5.54018 9.29837 28.6406
556 3 3.79444 7.28856 32.3392
1182 3 5.54897 8.98197 32.3274
2167 3 7.45472 9.17987 30.6436
1666 2 8.91722 7.54708 30.4814
557 3 10.9068 7.32751 31.9197
104 1 10.9191 9.17165 30.5035
3670 3 9.19046 10.9932 30.2734
3166 2 12.7131 8.87375 28.7109
1183 2 12.7847 9.02878 32.2447
543 2 14.5501 7.46535 28.5359
2672 3 14.4571 10.8206 28.6901
2169 1 14.5338 9.12091 30.3869
3671 2 16.3239 10.7079 30.5094
2556 3 17.8507 7.22603 32.1524
1682 1 12.5267 7.13963 33.8897
3668 3 1.8061 10.9846 30.4763
1672 1 2.06103 14.4836 30.4872
2170 3 3.67683 12.6646 30.4253
2684 3 3.70546 10.7962 32.1784
1170 3 5.48218 12.824 28.7
1669 3 5.71546 10.8302 30.5518
3673 3 5.46452 14.5462 30.2766
2687 1 7.17457 14.9252 32.455
107 3 7.38639 12.924 30.5402
3183 2 5.22641 12.8981 31.9307
3169 2 9.23823 12.6043 28.6177
559 3 7.42082 10.9788 32.1117
1185 2 8.97696 12.8237 32.2918
1674 2 9.17362 14.5265 30.6358
2685 3 10.7511 11.0316 32.2822
546 3 10.9881 10.9298 28.9173
1671 1 12.9317 10.8151 30.6839
2172 3 10.927 12.8054 30.459
3184 3 12.6641 12.714 32.2865
1186 2 16.313 12.4466 32.2406
108 1 14.4545 12.3663 30.8265
560 2 14.4532 10.5351 32.5266
1173 1 1.89391 15.9897 28.7108
3185 3 1.88723 16.1973 32.2839
1685 2 16.3444 10.9448 34.2871
110 2 3.86554 16.1547 30.2688
2755 2 7.31837 17.9871 18.2353
1683 3 1.97291 10.7209 33.9231
122 1 10.8462 12.7076 34.1031
3683 2 16.2386 7.46259 34.2205
3186 1 9.22842 16.2384 32.3268
2175 2 7.39561 16.1895 30.2994
111 3 10.9528 16.382 30.4682
1684 3 9.09347 10.8802 34.0538
1188 2 12.6542 16.312 32.2393
3674 3 12.8255 14.498 30.6077
2176 3 14.6392 16.2039 30.7586
2185 1 7.3094 12.8373 34.0328
2688 3 14.5254 14.4246 32.3037
2183 2 11.0435 9.22617 33.8672
3187 2 16.211 16.0676 32.6424
1176 2 16.4192 16.246 28.9017
1675 3 16.2953 14.507 30.7146
562 1 11.0664 14.4838 32.3877
2679 1 3.53582 3.71289 32.2027
2648 3 7.18071 14.8611 18.1282
3175 2 1.76129 1.99182 32.1533
3684 3 5.42897 10.7835 34.1033
2177 3 4.00694 1.94076 34.2028
3182 1 16.6113 9.18738 32.329
114 2 7.36471 1.95 33.8994
554 1 7.16704 3.80721 32.4204
2178 1 10.8927 1.78173 34.1018
1679 2 8.95659 3.82114 34.0545
694 2 7.37238 18.0152 21.7117
3078 1 1.96061 12.9759 35.8575
2536 3 18.1123 3.72931 28.8716
2187 3 3.65191 16.3897 34.1093
1686 1 5.31908 14.576 34.0657
115 2 14.7666 2.03932 34.1526
2186 1 14.497 12.6514 33.9717
1184 1 2.15448 12.7166 32.1407
3686 2 1.98775 14.4967 34.0682
1678 1 1.99332 3.75298 33.9779
116 3 3.67635 5.48817 34.0477
3681 2 2.07093 7.50836 33.952
3178 3 5.4533 5.59055 32.0819
3679 3 5.43438 4.09777 33.8795
2180 2 7.37141 5.67785 34.1369
3685 1 12.8946 10.9308 34.1345
2680 3 10.8702 3.56629 32.3452
715 3 6.99387 18.0687 25.0414
3682 2 9.3089 7.37516 34.129
117 3 10.8215 5.47671 33.7526
724 1 7.30974 18.0746 28.5885
2787 2 12.8046 17.983 27.0032
2683 3 14.6428 7.51645 32.1765
3680 2 12.975 3.78703 34.2269
2181 2 14.5113 5.66068 34.0082
1680 3 16.5223 3.76198 33.76
1181 2 16.3496 5.35305 32.2789
121 2 3.88198 12.5708 33.9578
3181 1 9.11202 9.13607 32.3261
3180 1 2.21194 9.10153 32.2969
1681 1 5.46746 7.43453 34.2514
2182 1 3.70502 9.03665 33.9595
119 3 7.41673 9.18501 34.0699
2682 3 7.389 7.28978 32.4268
866 1 17.981 3.59277 31.948
3788 1 16.0557 17.9398 26.9382
581 3 10.8543 10.6428 35.7797
551 1 3.97998 0.206989 32.4276
3417 2 17.966 12.5693 26.9476
520 1 14.5956 11.0424 18.2468
3640 1 3.60165 0.256796 24.9384
2333 2 17.9845 9.09608 23.6607
3141 1 5.56079 12.8236 18.1684
2758 1 10.7281 17.8957 21.666
571 3 11.0052 3.79518 35.602
1677 3 12.9747 0.19386 34.1416
3641 1 12.5831 0.313527 23.4586
634 3 14.3516 17.9022 35.8542
2587 3 10.7842 14.5032 35.6995
2571 1 7.1415 3.91417 35.9943
1552 3 5.44405 17.9369 34.247
2784 3 3.60301 18.0079 28.6772
722 1 5.73942 17.8471 27.1677
503 3 7.34203 0.237497 21.442
971 1 17.8629 18.0091 28.7043
526 3 7.27927 0.353089 25.0834
1536 1 9.02535 18.0363 30.2527
1676 2 5.57942 0.283392 34.0321
3657 1 1.83603 0.362539 26.9667
563 1 0.209927 0.288098 35.9491
1080 1 5.36408 13.024 35.8029
1132 2 2.04437 5.42423 18.1383
3076 1 12.6738 8.78784 35.6413
3072 1 16.3856 5.08222 35.7275