ITEM: TIMESTEP
5000
ITEM: NUMBER OF ATOMS
4000
ITEM: BOX BOUNDS pp pp pp
1.1213005032949752e-02 3.5722846994967099e+01
1.1213005032949752e-02 3.5722846994967099e+01
1.1213005032949752e-02 3.5722846994967099e+01
ITEM: ATOMS id type x y z
3063 3 1.95947 1.75021 3.71775
3566 1 2.11059 3.36491 1.80931
3147 1 8.93682 16.305 17.9137
516 1 7.2064 10.5615 17.749
1 1 3.7341 1.90376 1.82865
2564 3 0.167671 -0.102987 3.62811
2065 2 7.31453 1.5558 1.81597
3065 1 9.20982 1.6483 3.53811
781 2 17.8691 14.4393 7.11359
2638 3 3.61847 10.6544 17.7995
676 3 -0.162176 17.6802 14.3942
2 2 10.9097 1.62514 1.60256
2066 3 14.4108 1.67809 1.63291
1067 2 12.5164 1.68684 3.4678
572 3 14.3997 3.41478 3.61908
3577 2 9.05529 -0.115575 5.49272
2064 3 0.000274758 1.78295 1.99672
3568 1 16.039 3.45022 1.81085
1625 3 16.2553 14.4357 15.7746
1576 3 5.40114 0.0854935 5.33161
2715 3 7.22687 18.0193 7.44984
1069 3 1.7882 5.28996 3.58819
2067 2 3.69487 5.55695 1.55404
680 1 14.2301 18.3228 14.2921
1706 1 12.4494 18.1264 5.80441
2826 1 18.1037 7.22728 3.77577
1566 3 5.6441 3.57102 1.73928
3069 2 5.44174 5.5065 3.34069
2603 3 0.292725 7.21408 10.7694
3567 3 9.16467 3.39899 1.68371
4 1 7.50816 5.30336 1.69753
1071 1 9.3434 5.26986 3.27042
571 3 7.44817 3.53185 3.30821
2068 3 10.9858 5.49826 1.64965
691 1 3.63025 17.8386 17.6597
1567 3 12.599 3.49916 1.51926
2591 2 -0.171863 6.99098 6.87635
5 3 14.3599 5.47255 1.51214
1073 2 16.2 5.32105 3.53252
1692 1 16.201 17.9179 1.81787
1690 2 9.23319 17.8442 2.03671
1568 2 1.85298 7.1522 1.73902
6 1 3.54887 8.89304 2.09396
3569 2 1.76701 10.6291 1.8433
3125 1 1.64502 1.79015 17.9692
2841 2 17.9639 6.89346 7.21142
3570 3 5.57746 7.21658 1.73635
1569 2 5.4683 10.5655 1.78203
2580 2 7.50591 7.19311 3.49047
1148 1 5.41087 16.0234 17.8966
1570 3 9.10848 7.23897 1.83613
2070 1 7.31828 8.94503 1.85169
3075 2 8.92625 8.99324 3.46663
7 3 10.7971 8.96243 1.8085
3572 2 12.6625 6.99 1.83477
2071 1 14.4707 9.0488 2.05804
2644 3 14.2407 7.06513 17.8883
1565 1 15.8894 -0.051387 1.59796
1572 3 16.2114 7.09619 1.85756
2573 1 14.3543 3.40373 -0.360462
2641 2 10.8957 10.9184 17.8115
1573 1 1.98578 14.2732 1.70304
3576 3 2.00187 -0.0549915 5.39189
653 1 14.3984 18.1312 7.27471
3579 1 16.4872 -0.276485 5.385
2072 1 3.70395 12.4589 1.66999
9 1 7.31617 12.2503 1.77633
574 3 0.0788232 10.7455 3.6206
3571 2 9.03302 10.7568 1.86345
2073 1 10.8268 12.4934 1.80591
1081 2 9.08911 12.5083 3.46389
1571 3 12.5669 10.9518 2.01391
10 2 14.4319 12.5678 1.86847
3575 1 12.369 14.0782 1.9135
3565 1 12.4387 0.000575545 1.71163
13 1 -0.0802042 1.77616 5.68122
3573 1 16.275 10.7938 1.84714
2614 1 3.72792 0.204895 14.232
2619 2 0.00395599 10.722 14.4225
62 1 10.7505 16.3646 16.0184
2597 2 7.00442 -0.0202959 10.7174
11 2 3.60682 15.8339 1.68232
2693 1 10.8963 17.8651 0.0244849
757 1 18.0931 3.08538 3.68328
3625 1 12.6521 14.3753 15.9205
603 1 -0.0846326 10.7413 10.8369
3574 1 5.42158 14.3181 1.81465
1721 3 5.28611 17.8823 12.7003
2075 2 7.22512 15.9852 1.94825
2119 1 0.258122 8.8786 16.0138
2521 3 17.8347 14.2407 17.7919
1574 1 8.98729 14.3885 1.81515
3085 1 8.99741 15.9999 3.65495
1596 3 12.6216 -0.188979 12.4803
3149 3 15.8695 16.0228 17.6797
12 2 10.8007 15.8976 1.83021
8 3 0.191839 12.4012 1.72554
1106 3 0.00230044 12.7228 8.5761
1688 1 1.73937 17.9715 1.66519
3720 3 1.70836 17.8899 12.3237
2722 1 5.38121 18.0139 8.65018
587 1 14.1965 14.1842 0.111782
2076 2 14.1895 16.0765 1.93304
1575 1 15.9263 14.3039 2.02569
278 1 17.7619 16.3804 5.10515
1078 2 15.9189 9.01322 0.251618
1089 2 1.85184 1.59434 7.03131
2077 1 3.8014 1.92069 5.05108
614 3 7.05872 -0.128703 14.3459
2584 1 0.263724 14.2518 3.4427
2106 2 0.0552823 12.5678 12.2555
1065 2 5.63948 1.70453 3.60234
1128 3 5.40327 1.81275 17.8455
566 2 10.9101 -0.160398 3.75832
14 1 7.43567 1.79271 5.45636
3088 3 9.33198 1.79156 7.0303
2572 1 11.0036 3.46617 3.25695
2079 2 10.9128 1.70102 5.32647
15 2 12.6298 1.9932 7.07411
16 3 14.4194 1.87492 5.42393
289 1 18.1123 9.04206 8.99995
1583 1 14.4454 3.77512 7.09172
3067 3 16.0612 1.66074 3.40649
1582 2 16.0883 3.47183 5.33593
1090 2 16.0398 1.86278 7.18618
2578 1 10.7036 7.16086 -0.144879
1579 2 1.82006 3.61178 5.72077
3692 2 12.7306 17.914 1.61669
3583 3 1.95975 7.00961 5.33635
2081 1 1.84758 5.45991 7.21561
17 3 3.6858 5.26621 5.31254
2570 1 3.73477 3.76551 3.49141
3580 3 5.5464 3.66314 5.09819
1585 2 5.45469 7.21107 5.13164
2590 2 3.8528 3.41604 7.05941
2082 3 7.48945 5.44313 5.11842
1581 3 9.22898 3.59557 5.28239
579 2 10.6468 7.40736 3.58173
19 3 9.04193 5.32458 7.12469
3582 2 12.6882 3.64446 5.34299
18 2 10.7532 5.27219 5.27478
3071 1 12.5263 5.24709 3.34466
1589 3 12.6209 7.04261 5.08932
2583 3 14.434 6.96734 3.6183
2593 3 14.4057 7.05092 7.08114
2083 2 14.5101 5.13043 5.22618
2126 3 14.4004 16.2099 15.6965
3073 3 1.72401 8.98652 3.61086
2085 3 3.59501 8.68273 5.17936
1624 1 9.03087 14.3228 16.2434
3090 2 1.87704 8.85763 7.19193
2069 1 -0.136189 9.22756 1.67984
2625 1 10.7694 14.4036 14.2824
576 1 3.5732 7.06541 3.44961
2577 2 3.45095 10.7025 3.65019
1075 1 5.59159 9.10568 3.62835
3587 1 9.13123 7.10974 5.28862
2581 1 10.8044 10.4969 3.62322
22 3 7.43825 8.83539 5.2943
2086 2 10.7481 8.79267 5.22799
1587 3 10.8996 7.20016 7.07869
592 2 7.24556 7.03041 7.05098
1077 3 12.5578 8.82122 3.62806
23 1 14.4323 8.91512 5.39747
582 3 14.2219 10.9172 3.84224
3588 3 12.5257 10.7522 5.48791
2087 1 12.5969 9.06056 7.28127
901 3 17.9509 17.9122 7.29866
624 2 7.37264 14.2723 14.4156
3589 2 16.1394 7.1571 5.41372
3077 3 16.1972 8.97936 3.61449
2074 1 0.209298 16.1496 1.77303
1079 2 1.73084 12.429 3.57687
1584 2 2.09535 10.4908 5.55752
523 1 10.7778 14.355 17.8227
3079 1 5.2604 12.5201 3.42968
3585 2 5.36988 10.5741 5.1555
25 2 3.557 12.4363 5.53552
2089 2 6.90128 12.4151 5.32613
580 2 7.11671 10.8182 3.48315
1586 1 9.01821 10.6951 5.42967
3592 3 8.89164 13.8857 5.41716
26 1 10.8857 12.4488 5.55063
3081 1 12.5412 12.6185 3.9145
2091 2 14.2076 12.6312 5.67963
2588 3 14.3982 14.2475 3.78868
3092 2 12.5765 12.4188 7.29668
2610 1 0.0467746 14.379 10.4611
1620 1 8.95807 6.99638 15.9777
1083 2 16.1945 12.3662 3.57968
3135 1 1.79061 8.86631 17.8221
1590 3 15.945 10.76 5.61805
308 1 18.1001 12.4747 15.8831
584 2 3.54843 14.1946 3.45206
3083 2 1.9514 16.1773 3.52845
3591 3 2.1509 14.2228 5.28769
519 1 14.2352 10.7912 17.5718
1094 3 1.87214 16.1585 7.21589
2648 2 7.22216 14.3539 17.8989
2587 2 7.21035 14.1136 3.64922
1591 2 5.45964 14.3085 5.32749
2092 2 3.73069 16.0145 5.40276
1085 1 5.15749 15.8382 3.45787
29 1 7.38098 15.9487 5.27288
1592 3 3.75389 14.188 7.10989
2094 3 10.4582 16.1686 5.45017
3093 1 8.79625 15.9071 7.1516
1578 1 12.5038 -0.0102901 5.52545
586 3 10.8269 14.2735 3.98879
1593 2 12.4076 14.3392 5.89115
1087 3 12.5329 15.9241 3.72626
31 3 14.067 16.097 5.80485
2080 1 0.196529 5.33495 5.24302
2120 2 7.50099 8.5029 16.3231
3594 1 16.0948 14.4961 5.60915
3087 2 15.7456 16.0627 3.97023
1095 1 16.1745 16.1526 7.31645
1125 2 8.89495 16.0719 14.4066
1293 2 17.718 12.4677 9.07364
3131 2 5.09917 4.9238 17.8974
2599 1 1.98294 3.41618 8.71381
3095 2 3.85384 1.90661 8.84551
3624 1 5.35436 14.2739 15.8273
3094 2 1.74683 1.74743 10.6351
2078 1 5.6093 1.73138 6.97157
60 3 14.0943 12.5536 15.849
33 3 7.35118 1.86601 8.65204
3581 2 7.25191 3.63191 6.98346
2600 3 3.53232 3.52179 10.6296
1096 1 5.47535 1.91604 10.8432
1725 2 16.0261 17.8489 8.95653
599 1 8.9949 3.44876 8.6418
600 2 6.99635 3.51597 10.6139
297 3 17.8346 15.8789 12.5121
1724 2 12.1676 17.9656 12.5032
590 1 10.8863 3.59195 7.17599
3118 1 5.63854 8.68337 14.5822
1097 2 10.814 1.68315 9.00806
1600 2 12.6601 3.52351 8.96349
2098 1 14.4528 1.87597 8.81229
2601 1 10.83 3.59968 10.5753
20 1 -0.0259405 8.88677 5.5393
61 2 3.74434 16.0547 15.8734
1099 2 1.80934 5.28438 10.5218
3586 2 3.81081 7.08138 7.00762
3599 2 5.39731 3.54337 8.80276
36 1 3.57887 5.66537 8.82265
3089 1 5.4641 5.24654 7.00523
3099 1 5.46927 5.21347 10.714
605 3 3.54746 7.03349 10.7536
1100 3 7.06602 5.31967 8.85083
1101 3 8.97661 5.32045 10.5564
2100 3 10.6666 5.21455 8.92135
1091 1 12.5059 5.17865 7.0564
3101 2 14.3974 5.30778 9.15986
3100 1 12.547 5.48247 10.9817
2084 1 16.0425 5.47502 7.26016
2602 3 16.0223 3.59884 9.08205
3608 1 16.1433 6.97637 8.7397
1102 2 16.2156 5.4825 10.6435
57 1 10.6101 8.92256 16.0424
3602 3 1.78159 7.11522 8.95714
602 2 1.64469 10.7533 8.9279
21 1 5.53055 8.81298 6.70319
1588 1 7.16157 10.67 7.10135
591 3 3.66309 10.5325 7.17346
1103 1 3.72396 8.91195 8.88488
604 2 5.39813 7.19029 8.86368
2104 3 7.07903 8.59236 9.07768
1092 3 8.85126 8.84622 7.30705
2592 2 10.5773 10.3298 7.27166
1605 1 8.81618 7.0694 8.80675
3103 3 10.6236 8.87454 9.08118
2608 1 12.419 7.07156 9.06412
42 2 14.2727 8.79992 8.88483
1105 2 12.3949 8.9881 10.833
3091 3 16.1399 8.66418 7.25908
661 2 10.4838 17.8454 10.9145
3105 2 16.0483 9.17126 10.6911
608 2 16.0497 10.7015 8.89025
1119 2 1.92829 8.91834 14.4339
3098 3 -0.0731936 5.37752 8.9648
24 1 2.10867 12.5806 7.31745
1623 2 1.56571 14.41 15.8829
2107 1 3.97559 12.359 8.97728
1622 1 16.0181 7.30933 16.2741
1603 3 5.40679 10.3598 8.92801
1093 1 5.13404 12.4391 7.03572
2611 3 5.55403 14.3519 9.08623
3107 3 7.14285 12.5608 8.92486
2090 2 8.98124 12.191 7.22171
2605 2 8.76234 10.6229 9.05175
45 1 10.5603 12.0872 8.97219
3593 2 10.5485 14.1983 7.26288
2607 1 10.4407 10.4229 10.6159
594 3 14.4607 14.1712 7.36732
3606 3 12.5177 10.8119 9.03129
1109 2 14.3128 12.4821 9.13567
3590 1 14.0825 10.7777 7.2619
3108 3 12.3708 12.3907 10.6077
3117 1 16.3035 5.65563 14.2552
27 1 16.2895 12.3919 7.32737
1612 2 16.1295 14.3547 8.86589
1110 1 16.0524 12.4996 10.8106
1609 3 1.90962 14.2507 8.9611
3110 3 3.84248 16.0437 8.56967
2624 2 3.65231 14.2417 14.2725
3621 3 9.05427 10.6174 16.0171
2594 2 7.13034 14.1451 6.9912
2093 2 5.64535 16.0844 7.17669
1111 1 5.21697 16.1504 10.7459
3611 1 8.69102 14.2495 8.89683
48 3 6.96264 16.2389 9.05029
1112 2 10.6571 16.0072 9.03327
611 2 10.409 14.2316 10.7493
2121 3 14.151 8.83215 16.1142
30 2 12.1548 16.2434 7.27987
612 3 12.1328 14.2098 8.87158
1113 1 12.3861 16.1034 10.7237
2113 2 14.199 16.1416 8.95864
632 2 11.027 17.9732 3.35503
3112 1 15.9643 16.0051 10.7958
56 1 3.6504 8.90404 16.1436
2096 3 3.37581 1.79921 12.1899
2623 2 14.1986 10.5655 14.1749
3600 1 5.43494 3.53942 12.5324
3113 3 5.30168 1.91178 14.5868
622 3 14.1077 7.10064 14.5216
34 1 7.34698 1.66207 12.5296
3096 3 8.72706 1.71892 10.588
1599 2 8.8159 3.7043 12.3182
1098 3 12.4936 1.70617 10.8289
2097 1 10.4617 1.76385 12.527
35 1 14.3488 1.76778 12.4906
3114 3 12.3625 1.78337 13.8798
3601 2 12.4424 3.6052 12.3657
3623 3 15.9797 10.8234 15.7314
2125 3 7.24494 15.9678 16.1603
3097 1 16.1591 1.82362 10.6793
1120 3 8.76013 8.75783 14.3735
1598 1 1.80225 3.66187 12.3171
3115 2 1.8185 5.18269 14.1448
3603 1 1.95259 7.32559 12.6256
2620 2 3.52195 7.08055 14.5336
37 3 3.74991 5.38204 12.5185
1117 1 5.17962 5.08687 14.2279
2101 2 6.97517 5.28836 12.4866
38 2 10.7796 5.41608 12.4315
620 3 7.22795 6.82712 14.2395
3605 2 8.89859 6.90027 12.4762
2621 2 10.6608 7.0927 14.4885
606 2 10.6968 7.06872 10.8561
2102 3 14.5891 5.44092 12.46
601 3 14.3957 3.42481 10.7377
1601 3 16.0525 3.63334 12.5093
3609 1 16.1678 7.09541 12.3367
2566 1 10.7947 0.00770289 -0.158067
564 2 3.76082 0.00222425 3.53382
3726 2 15.8617 17.8001 12.5209
2567 3 7.35259 0.0408109 3.6913
3102 2 1.97541 8.89308 10.7523
1602 2 1.7324 10.6962 12.5872
2604 3 3.63257 10.8609 10.7999
1122 2 5.69847 12.4007 14.2993
1104 1 5.79635 8.94254 10.7787
2606 2 6.86469 7.06548 10.6729
2103 3 3.84661 8.94212 12.3897
1604 3 5.11868 6.9845 12.7452
41 2 7.02555 8.81588 12.65
619 3 3.73139 10.675 14.5916
3104 2 8.84767 8.70643 10.7946
2105 2 10.38 8.66185 12.5977
609 1 14.162 10.8576 10.7826
1607 3 12.5223 7.07852 12.4532
2609 3 14.2745 7.30269 10.8476
3607 1 12.4546 10.4376 12.5362
3119 2 12.6459 8.85585 14.366
55 1 14.5772 5.72411 15.9292
2741 2 10.6301 17.92 14.3025
43 2 14.1764 8.95511 12.2893
1121 1 15.9723 8.78888 13.969
1619 3 5.28164 10.7661 16.2342
2622 1 7.00356 10.5321 14.4773
1107 3 1.77043 12.484 10.5898
44 3 3.74297 12.4453 12.6677
3120 1 1.78314 12.3954 14.1981
610 1 3.633 14.1427 10.8091
3604 1 5.64754 10.783 12.4317
607 1 7.50386 10.6813 10.8178
3106 3 5.64846 12.471 10.8069
1108 2 8.88125 12.5177 10.866
2108 2 7.13369 12.477 12.4581
1606 2 8.94187 10.5647 12.5326
46 1 10.7697 12.4118 12.2291
1123 2 12.3497 12.3874 14.2339
2109 3 14.3125 12.3739 12.6346
1611 1 12.3279 14.1054 12.3229
625 3 14.1214 14.2626 14.0298
1118 1 12.6197 5.03109 14.2018
1608 2 16.1665 10.6077 12.3651
3122 1 15.9945 12.7078 14.2124
1621 2 12.5726 10.541 15.9796
2123 1 10.7488 12.6304 16.002
3610 3 1.87215 14.3205 12.5177
3109 3 1.90597 16.1596 10.8015
2111 1 3.6635 16.0975 12.3272
3123 2 5.52206 15.9449 14.2277
2612 1 7.32123 14.3264 10.8175
1610 1 5.48027 14.2879 12.5747
49 3 7.14539 16.0634 12.4909
59 2 7.25947 12.4419 16.2975
3111 2 9.01611 16.0972 10.6561
3612 1 9.0628 14.2019 12.4529
2112 3 10.7794 16.1114 12.5096
3124 3 12.5071 16.2379 14.5035
50 1 13.9649 16.1511 12.6047
2613 2 13.9584 14.4679 10.7769
3121 2 8.89942 12.6348 14.1698
1126 1 16.1672 16.0253 14.2113
3613 3 15.9249 14.4005 12.4399
3622 2 12.4551 6.9344 16.02
2122 1 3.56874 12.4251 16.1016
3619 2 1.75517 10.9598 16.0423
1114 1 1.86937 1.5599 14.3198
51 2 3.47584 1.60727 16.1061
3616 3 1.60372 3.35873 16.0281
3116 3 9.10939 5.14705 14.2428
2118 1 10.7663 5.19621 16.3449
1617 3 12.6382 3.2781 15.9301
2617 1 7.18044 3.68216 14.2673
1616 1 5.2581 3.34307 16.2997
616 3 3.45746 3.51285 14.2051
2115 3 7.16071 1.81021 16.329
1115 3 8.73395 1.94734 14.3561
617 2 10.7699 3.30496 14.2345
3617 1 9.02393 3.62668 16.0155
2618 2 14.3637 3.45772 14.1566
52 1 10.6842 1.8607 15.9085
1116 3 16.1514 1.84295 14.1778
2116 1 14.417 1.68461 15.8533
3618 3 15.8463 3.57024 16.091
621 3 10.7703 10.6053 14.3487
54 1 6.9095 5.20505 16.1647
1618 2 1.82249 6.9921 15.8744
1124 3 1.72149 16.1756 14.2355
3620 1 5.25682 7.13859 16.0842
2117 3 3.65885 5.08705 16.0781
3137 1 9.01832 9.11754 18.1381
581 1 14.6336 7.01677 -0.33704
771 2 17.9162 14.489 0.0852479
585 2 7.27431 14.0678 -0.0558407
3086 3 12.4974 16.0145 0.0959893
3064 3 5.59159 1.81539 0.117276
634 1 14.51 17.8397 -0.0889175
3145 1 1.89961 16.0842 18.0211
2628 1 6.86252 -0.0512323 17.8825
2632 2 3.31912 3.4296 17.9307
626 2 -0.0517365 17.7488 -0.2186
515 3 10.7431 7.39683 17.759
3066 3 12.4593 1.79055 -0.184984
1084 3 1.66704 15.9426 -0.00699576
1140 1 12.5329 8.99498 17.8166
2825 3 17.9529 10.6122 0.0881911
1086 2 9.00372 16.3423 0.169362
575 1 3.58671 10.6865 -0.246199
573 3 -0.0417455 7.31265 0.0498405
1072 2 12.7582 5.36166 -0.228473
1132 1 1.97425 5.35434 17.8342
508 2 7.06393 3.72521 18.1333
569 1 3.66112 3.5331 -0.0570757
570 1 10.6637 3.40901 -0.0603155
2579 3 7.16367 10.738 -0.331272
1138 3 5.29482 8.92904 17.867
2511 2 17.9717 6.91612 17.8912
2127 2 3.43056 1.86277 19.5633
522 1 3.60428 14.4089 17.7271
815 2 17.8477 -0.112756 21.6051
3629 1 5.18114 3.36797 19.7121
3167 1 0.061591 12.4794 26.7225
2633 1 10.858 3.47205 17.708
64 2 6.8424 1.77943 19.8885
1129 3 8.84936 1.62348 21.5237
1629 1 8.99199 3.64451 19.5296
1677 2 12.4664 0.0696171 33.8595
2128 3 10.585 1.77278 19.6365
65 3 14.3426 1.67317 19.4423
3128 2 12.5698 1.99339 21.4284
356 2 17.85 12.38 30.3104
715 1 7.01533 18.0342 24.6073
3076 3 12.7012 8.79046 35.7662
1131 2 15.9132 1.77689 21.4561
1630 3 15.9348 3.46442 19.5697
3660 3 15.8098 -0.0330515 26.7893
526 3 7.11118 -0.0342356 25.07
1628 3 1.60422 3.53869 19.7931
66 1 3.23338 5.16714 19.5725
1142 1 1.84831 12.4253 17.6971
3187 1 16.2008 16.2954 32.138
2184 1 0.0209506 12.7998 33.8982
540 2 -0.134478 7.01024 28.4862
3787 3 12.3838 17.8017 30.4756
1632 3 5.22737 7.03491 19.5953
2130 1 7.11596 5.31738 19.6704
1676 1 5.47323 0.0463395 34.0997
67 1 10.8014 5.38329 19.6497
509 1 10.6064 3.53859 21.4502
1659 1 9.14386 -0.0412435 30.5044
556 2 0.068201 11.0032 32.0992
3630 1 12.5188 3.42378 19.7027
2131 3 14.0927 5.36733 19.5583
109 1 0.221945 16.2321 26.5951
534 1 7.17423 0.0106127 28.7064
552 2 10.7253 0.057614 31.9567
2635 1 14.3582 3.72732 21.3338
3631 2 1.87619 6.92457 19.5403
1631 2 1.84986 10.7492 19.5004
826 3 17.9102 7.06601 21.3305
2129 3 -0.097186 5.39152 19.6175
2132 1 3.63975 8.88498 19.5605
3632 2 5.41812 10.7727 19.7436
69 1 7.37731 8.76624 19.6298
2676 1 -0.0889228 -0.123136 32.292
3633 1 9.10609 6.92638 19.6342
2133 2 10.7847 9.05104 19.3972
123 1 -0.111442 15.8921 34.0324
363 3 17.8904 1.83008 33.8544
2642 3 10.8169 7.16985 21.3306
3751 1 1.78014 17.7452 19.7288
1634 2 12.3478 6.95608 19.5065
2586 2 10.7256 14.1866 35.5341
70 2 14.2881 8.77456 19.5437
3138 1 12.2638 9.00548 21.2026
3635 1 16.0546 7.20623 19.5489
1141 3 16.2573 9.02127 21.0849
3688 2 16.3184 14.4234 33.9587
3788 3 15.7205 17.9223 26.8038
3769 3 12.3882 17.9281 23.1548
3636 1 1.59347 14.3549 19.4979
3140 1 1.76938 12.6726 21.5507
1515 2 9.02418 18.0084 22.9541
344 3 17.898 2.01125 26.6556
71 3 3.71857 12.4868 19.502
2135 3 7.19375 12.4534 19.4468
2647 1 3.61386 14.0766 21.5165
1633 2 8.90695 10.9018 19.7725
72 1 10.9327 12.6506 19.4541
3634 3 12.5095 10.7404 19.4914
1145 3 12.5259 12.5105 21.3071
329 1 17.7896 5.65374 23.1865
2645 1 14.4228 10.9491 21.4873
1635 3 16.0863 10.7044 19.3356
2136 1 14.3449 12.5085 19.4986
3638 1 16.2743 14.0704 19.5032
3144 1 16.3819 12.6644 21.5625
113 3 0.0201356 1.87788 34.0279
2137 2 3.6718 16.0714 19.6356
337 2 17.9945 12.6748 23.232
553 1 -0.222444 3.76436 32.3135
577 2 7.10714 7.59745 35.7975
2531 3 17.9273 14.3426 25.099
1636 3 5.33725 14.4401 19.535
3146 3 5.34766 15.9891 21.486
1835 1 18.0067 10.6769 24.8865
524 3 7.10523 14.1717 21.2533
74 3 7.12142 16.2037 19.666
3637 3 9.0077 14.2654 19.7388
2138 2 10.8355 15.9908 19.6243
2649 3 10.8932 14.2199 21.2226
1637 3 12.9065 14.4416 19.6648
3148 1 12.5941 15.9131 21.5926
75 2 14.3855 16.0606 19.6938
525 2 14.3803 13.9432 21.554
1151 1 15.652 16.1118 21.4837
1188 1 12.6004 16.1851 32.471
1127 3 1.90728 1.69977 21.2306
3150 2 1.74226 1.61732 25.2461
125 2 14.3984 16.0145 33.9502
1516 3 10.7901 17.7347 24.781
3126 2 5.32193 1.90819 21.8007
507 2 3.42683 3.69605 21.4738
76 1 3.47062 1.64174 23.2376
721 3 -0.187995 17.9748 28.615
527 2 3.34177 3.68434 25.0675
2788 3 12.5699 17.9773 26.7249
318 2 18.0582 8.97008 19.67
2140 1 7.11911 1.68696 23.0401
2634 1 7.04468 3.67443 21.4942
2139 3 -0.136441 1.81113 23.1268
78 1 10.4035 1.93761 23.1849
1644 1 12.6116 3.60227 23.2973
2142 2 14.1864 1.60371 23.0355
3646 1 14.3517 3.70649 24.8132
1554 2 12.4519 17.9731 34.0402
3130 2 1.62802 5.36824 21.4364
3642 1 1.3838 3.63569 23.3361
2688 3 14.5023 14.2999 32.2056
860 2 17.9071 14.5285 28.618
1642 2 5.08237 3.54856 23.6081
2639 2 3.45482 7.25375 21.3254
2143 2 3.36335 5.26323 23.552
517 3 6.8327 6.95852 21.3605
1133 1 4.99559 5.36802 21.6458
3644 2 8.69252 3.80714 23.2192
81 2 6.99989 5.47464 23.2529
3132 2 8.89636 5.40407 21.1982
2144 3 10.6057 5.37792 23.1564
1135 3 12.6039 5.33809 21.5037
3152 2 12.7371 5.43656 24.9887
3645 1 16.2247 3.30919 23.129
82 2 14.38 5.55718 23.1887
3134 3 16.0543 5.52353 21.4764
533 2 5.40927 0.198631 26.7921
1645 1 1.63769 7.00121 23.1988
1137 2 1.82155 8.88659 21.4085
3647 2 1.8639 10.5691 23.1309
3136 3 5.17991 8.74426 21.2172
84 2 3.37615 8.63038 23.052
514 3 3.51785 10.5184 21.3982
3648 1 5.1471 7.14721 23.1275
2643 1 7.17599 10.6286 21.1483
1139 3 8.99496 8.64651 21.2341
1649 1 8.81628 6.9107 23.0592
3650 3 10.8847 7.36754 24.8816
2148 1 7.23524 8.88197 23.2932
3652 3 12.6553 7.30216 23.2644
520 3 14.4176 7.14959 21.4392
85 3 10.4584 8.8829 23.1384
86 1 12.7391 8.95761 25.1387
530 3 14.3518 7.20709 24.8824
3082 2 16.1739 12.6315 35.7633
1651 1 16.0908 7.37122 23.0687
2149 2 14.4603 9.21059 22.885
373 3 17.9815 16.081 34.0741
1653 3 1.80025 14.0467 23.2067
2150 3 1.75597 12.4961 24.812
695 1 7.35193 17.7452 21.4331
3784 3 5.39314 17.8392 30.1386
1143 3 5.46083 12.37 21.4726
1647 1 5.32672 10.6891 23.2839
3655 2 3.4718 14.4496 25.0345
2151 2 3.54316 12.2358 23.1513
3154 3 5.49472 12.4103 24.9634
88 3 7.30884 12.6421 23.4302
3142 3 9.00242 12.6235 21.544
3649 1 9.21017 10.9724 23.165
3651 2 7.09763 10.5957 25.1245
89 2 8.87836 12.5208 25.4362
518 1 10.8336 10.7121 21.3291
2152 1 10.8208 12.6756 23.1596
1650 3 12.6673 10.7449 23.3524
90 3 14.5481 12.3543 23.3634
529 2 10.9275 10.8276 25.0348
3653 3 16.3177 10.7014 22.9932
1652 1 14.3999 10.74 25.0374
2153 1 16.4516 12.6125 25.0737
3782 2 1.85769 17.838 26.8267
3687 2 9.12207 14.178 33.7243
1147 2 1.87168 15.8867 21.4603
118 1 -0.269316 9.18604 34.037
3155 2 1.85133 16.1031 25.0802
3753 2 9.08768 17.9269 19.7908
3654 1 5.36122 13.9747 23.2452
91 2 3.54922 16.0073 23.096
92 1 5.36107 15.9374 24.7269
2155 3 7.0235 16.1388 23.198
1626 2 5.20496 -0.28514 19.8888
2650 1 14.5099 14.2379 17.591
348 2 17.9758 5.5412 30.4427
1149 1 8.99228 16.0819 21.3722
1654 3 9.15291 14.2934 23.1285
93 1 10.8075 16.108 22.8834
1157 1 8.87894 16.0237 24.7322
3656 1 12.5272 14.2228 23.1298
2157 2 14.3879 16.0091 23.2866
562 2 10.8172 13.8885 32.1332
2188 2 10.8948 16.0342 34.0434
1656 2 16.2764 14.3522 23.5409
1504 1 12.4415 17.8424 19.6042
536 3 1.53961 3.56235 26.6973
853 2 18.1294 7.12167 28.6209
2345 2 17.756 1.713 30.1206
1159 3 3.45727 1.95241 27.0253
77 2 5.44823 1.70433 24.8886
1661 2 5.28626 3.65087 27.0439
1152 1 8.86896 1.83341 24.9494
2159 1 7.39922 1.90122 26.5684
3158 1 10.5058 1.81926 26.7574
2141 1 12.3576 1.69242 24.9995
3159 3 12.6964 1.85385 28.4582
3151 1 16.0972 1.71615 24.9662
97 2 14.2495 1.72288 26.4401
1349 1 17.8533 5.50249 26.5195
1161 1 16.0022 1.71991 28.4393
2757 1 10.7359 17.8001 21.4292
2664 1 14.6176 3.34625 28.2798
80 2 1.58508 5.39247 25.1184
1664 1 1.67364 6.9983 26.8827
2668 3 3.3702 7.10459 28.6999
3160 3 1.66368 5.2771 28.4264
1187 1 5.25983 16.1234 32.089
1153 3 5.54442 5.65073 25.0049
1648 1 3.45164 6.98545 24.9691
2162 1 3.59089 5.46802 26.7536
1163 3 5.33532 5.5387 28.6303
3161 2 6.95178 5.2411 26.8002
2145 2 8.93219 5.30463 25.0907
1643 2 7.05604 3.77775 24.8432
2662 1 8.81821 3.47543 26.7651
2653 3 10.7765 3.68054 24.8033
2655 3 7.31419 7.10962 24.9774
99 1 10.8928 5.52348 26.4133
3668 2 9.34173 7.20506 26.6609
3162 2 9.19719 5.39392 28.2884
3663 1 12.5303 3.57953 26.5663
1164 3 12.5933 5.22236 28.4868
2754 2 3.45392 17.9553 21.0751
83 2 16.1022 5.51482 24.7842
539 2 16.0801 3.47557 26.3183
1165 1 14.4519 5.28682 26.6135
1670 2 16.3931 7.06937 26.6374
3163 3 16.1912 5.50189 28.3716
1686 2 5.47129 14.3493 33.5286
1154 2 1.73648 8.77519 24.9898
1166 3 1.78064 9.16782 28.7452
2665 3 1.80114 10.7214 26.6617
2147 3 5.30997 8.49252 24.9389
2654 2 3.40019 10.4477 24.9649
2667 2 5.14323 6.93545 27.0457
3164 1 3.48554 8.89412 26.8541
3165 2 5.33191 9.01708 28.4196
3153 2 8.99317 9.28038 24.7831
543 1 7.30891 7.26356 28.5176
103 1 7.26908 8.74966 26.6926
1168 2 9.01367 9.05451 28.3658
545 2 12.8127 7.2027 26.7509
1167 3 11.0404 8.89471 26.7806
2168 3 14.6527 8.9598 26.6466
2672 1 14.5961 10.6822 28.6571
1155 2 16.1412 9.02274 24.8795
1162 1 -0.395112 5.3019 26.8241
124 2 7.35878 15.7182 33.9217
3639 1 5.52209 -0.251949 23.1727
3168 3 1.7935 12.6914 28.4876
3672 1 2.0056 14.4132 26.7709
3666 2 5.23539 10.8834 26.7008
548 3 5.28006 14.1984 26.7797
106 1 3.52853 12.2545 26.7122
1171 1 7.02645 12.4914 26.7053
542 2 9.24765 10.5875 26.6164
2171 2 11.0354 12.5425 27.0353
2670 1 7.33642 10.9961 28.5357
3169 2 9.13931 12.333 28.1008
1156 3 12.6792 12.5464 24.9923
1668 3 12.6148 10.8648 26.8104
3170 3 14.3098 12.7404 26.7396
2353 3 17.9071 9.01581 30.5594
2671 2 16.1717 10.5675 26.6313
3171 1 16.3402 12.5951 28.5985
2627 3 3.50351 0.0462397 21.5653
724 2 7.24367 17.855 28.4826
722 2 5.4514 17.9323 26.7163
1173 2 1.6772 16.0101 28.5691
578 3 10.9914 10.79 36.1696
531 2 7.12853 14.3672 24.9657
549 1 6.86234 14.0896 28.5026
1174 2 3.55997 16.1679 26.7445
2174 2 6.86018 15.9868 26.7537
845 1 18.0744 -0.036632 28.1861
1673 2 8.92424 14.4286 26.6253
1175 1 8.72153 15.9127 28.4773
3173 3 10.722 16.3378 26.5909
1655 3 10.6805 14.0874 25.1097
2657 3 14.475 14.3309 25.0703
2156 2 12.3969 15.9295 24.8409
2675 2 12.4797 14.3429 26.8669
112 1 14.2699 16.0746 26.8783
550 2 14.3826 14.4942 28.5664
3156 1 15.9892 16.1266 25.1635
3675 2 16.2615 14.3784 26.8836
1176 3 16.1347 15.9817 28.79
561 1 3.59833 14.2599 32.0401
1158 1 1.54053 2.04909 28.6836
3661 2 1.96154 3.47944 30.533
2134 2 -0.0592669 12.3166 19.458
537 2 3.61147 3.59371 28.7308
3157 2 5.56214 1.61854 28.5642
95 3 3.5647 1.76073 30.5083
2160 3 7.31208 2.17524 30.4841
1160 3 9.07897 2.03758 28.748
96 2 10.7396 1.82533 30.3955
3176 2 9.11245 1.80476 32.0297
63 1 0.104522 1.73548 19.8242
2526 3 18.0675 0.291031 25.117
690 2 -0.00285355 17.7327 21.3867
3766 3 5.25638 17.876 22.9297
2161 3 14.4091 1.90296 30.3121
3664 1 16.1214 3.58629 30.2391
1665 1 1.73522 7.22401 30.3157
2679 3 3.72754 3.56421 32.3686
2163 1 3.81632 5.31022 30.6217
1532 3 1.6215 17.4353 30.3303
1662 2 5.44026 3.57738 30.5528
3178 1 5.53592 5.29039 32.3408
2663 2 7.19467 3.82915 28.7232
3662 1 9.09066 3.66743 30.4
100 2 7.467 5.29097 30.4052
1667 1 8.95844 6.77991 30.1477
2683 2 7.10922 7.31736 32.1355
538 2 10.9398 3.70381 28.0819
1663 1 12.517 3.42921 30.2303
2164 3 10.9799 5.50663 30.3031
101 2 14.328 5.0689 30.1272
3179 1 12.7181 5.31095 31.8993
558 3 10.8708 7.01951 32.1489
1671 2 16.3344 7.20632 30.3581
541 3 3.40625 10.8657 28.5939
3180 3 1.74858 8.99037 32.0432
3665 1 1.67739 10.8629 30.5272
2187 2 3.57951 16.138 33.8271
3667 3 5.48868 7.46979 30.2203
102 3 3.42946 8.86765 30.3614
1182 1 5.25675 9.01509 32.0531
2167 1 7.41121 8.88611 30.0251
3181 2 9.11139 8.83784 32.0539
104 3 10.8059 8.54537 30.1015
3166 2 12.6168 8.95668 28.3252
546 1 14.2822 7.34401 28.5383
2669 1 11.1034 7.0632 28.4474
3670 2 12.6896 7.17742 30.2196
2169 1 14.4469 8.93901 30.3862
1169 2 16.3104 8.95675 28.8208
1184 3 1.87016 12.6523 32.1756
2170 2 3.61381 12.4821 30.249
2682 2 3.57509 10.8557 32.0577
1170 2 5.05726 12.6003 28.3882
1666 1 5.43562 10.8015 30.1531
2687 3 7.31366 14.163 31.9382
107 2 6.9475 12.4211 30.2662
544 1 10.9411 10.7156 28.492
3669 3 9.17674 10.8739 30.2131
1185 1 8.87666 12.5477 31.9347
2172 3 11.0031 12.3855 30.3598
1172 2 12.6682 12.6995 28.6143
2674 1 10.6626 14.5771 28.425
1669 3 12.7974 10.5448 30.2992
108 2 14.6168 12.5636 30.1383
1076 2 9.05668 9.14327 35.7628
1186 1 16.2 12.3151 32.2101
3671 2 16.1856 10.765 30.3884
3658 2 5.24365 0.0585223 30.1132
121 3 3.58388 12.2779 33.8329
2673 2 3.66926 14.53 28.4308
1672 1 1.74356 14.5652 30.3887
3185 1 1.87177 16.2252 32.1167
110 2 3.72801 16.1415 30.3678
1660 2 16.1686 -0.0752343 30.3224
698 3 14.1181 17.9144 21.748
3172 1 5.6476 16.1483 28.6823
3673 2 5.25881 14.1611 30.4849
2175 2 7.0149 15.9116 30.3945
1674 2 8.74126 14.2314 30.0607
3186 2 9.20688 15.7541 32.3172
111 3 10.8053 15.7177 30.307
3174 3 12.5459 16.2217 28.6217
3674 2 12.8028 14.4795 30.5493
2176 3 14.2132 16.2513 30.2389
740 2 3.65121 17.8042 32.0171
1681 1 1.68826 10.855 33.7771
1675 3 16.0669 14.41 30.3007
560 1 14.6114 10.5358 32.0563
2186 3 14.4673 12.3568 33.9837
3175 1 1.79025 1.83108 32.263
2177 3 3.70243 1.65469 33.9545
2185 2 7.27143 12.5584 33.7722
1177 3 5.45742 1.71214 32.21
3686 2 1.88198 14.2747 33.8241
114 3 7.22123 1.91697 34.0072
2178 2 10.6235 1.83172 33.7884
1178 1 12.4054 1.6601 32.0175
1687 1 12.5424 14.0827 33.856
3680 3 12.4819 3.51065 33.7302
555 2 14.3232 3.40111 32.0756
3184 1 12.8564 12.3385 32.0257
3893 2 17.9094 3.61878 24.8556
3177 1 15.9401 1.64462 31.9778
115 1 14.3608 1.80867 34.1439
3684 2 12.5664 10.7129 33.8839
120 3 14.521 8.96639 33.9136
1678 2 1.85832 3.56923 34.048
1179 3 1.93836 5.47755 31.9593
116 2 3.71858 5.66858 34.122
554 2 7.29511 3.87694 32.3427
3679 1 5.59194 3.64563 33.987
2180 1 7.07387 5.67846 34.0047
2585 2 3.73478 14.2699 35.7594
3182 2 16.2754 9.0108 32.0854
1180 2 9.10092 5.40306 32.3382
2680 3 10.8199 3.59714 32.1296
1679 1 8.95977 3.53513 33.9211
3683 1 9.03857 7.35572 33.9915
117 3 10.8621 5.41958 33.9854
2181 3 14.4749 5.496 33.7193
2316 1 17.6362 5.25382 19.6505
3685 3 16.0403 7.08014 33.715
1181 3 15.8687 5.33993 32.0255
1680 3 16.2313 3.63381 33.8277
3627 1 8.78681 -0.085275 19.5888
1683 3 8.94421 10.7019 33.8657
2182 3 3.52189 9.05534 33.9574
3681 3 1.68644 7.16768 33.978
557 3 3.7422 7.14422 32.1136
2173 3 -0.182538 16.1666 30.3179
122 2 10.7655 12.4662 34.047
1682 1 5.45348 7.42666 34.0611
3682 1 5.5315 10.5487 33.5064
119 1 7.40092 8.86525 33.7304
3183 3 5.50599 12.2379 32.1271
2183 3 10.7744 8.99294 34.0066
559 3 7.43345 10.5511 32.0016
2684 3 10.8375 10.5475 32.2329
1684 2 12.7662 7.21981 33.6823
2685 1 14.3594 7.27655 32.0369
1183 3 12.2721 8.82718 32.0157
323 3 17.5868 16.1824 19.5485
1685 1 16.2547 10.819 34.1679
105 1 0.0755694 12.7014 30.3818
1502 1 5.36297 17.7087 19.7895
535 1 14.3214 0.135618 28.7047
727 2 14.0536 18.0944 28.752
94 3 -0.272943 1.91499 26.7597
870 1 17.8025 10.7539 32.2075
2326 1 17.9489 1.73752 23.1256
3084 1 5.43352 15.8067 35.6151
2341 2 17.6683 16.1799 23.2305
510 3 14.1862 3.32922 17.8055
1080 1 5.23869 12.6972 35.7454
3803 2 9.00517 17.6208 33.8823
3129 1 16.0671 1.66835 17.9028
3074 2 5.39646 9.15495 35.6678
3070 3 9.10909 5.57183 35.7108
503 2 10.6477 -0.0362621 17.9988
547 2 0.00712922 14.2468 28.4555
504 3 7.18695 -0.287263 21.4201
1070 1 5.57227 5.37948 35.6163
583 3 -0.0158979 14.1189 35.9959
368 2 17.9239 8.898 34.0627
1639 1 8.92967 -0.0856069 23.23
313 1 17.773 1.84747 19.7812
2360 2 18.2011 16.0163 30.2564
521 2 -0.144052 14.3198 21.4274
567 2 14.3243 -0.0276923 35.5442
2571 3 7.41129 3.7035 35.6744
1144 2 9.0026 12.339 18.0398
3068 1 1.79032 5.5556 35.8198
1130 3 12.3884 1.49584 17.7327
2582 3 14.1685 10.5363 35.899
819 3 17.8912 3.57578 17.5921
1068 2 16.1862 1.86508 35.6542
3139 2 16.2561 8.89061 17.8694
3143 2 12.5329 12.5704 17.7374
2819 1 18.0338 3.48554 35.5433
693 2 10.9436 17.7795 17.9523
3078 2 2.07505 12.5617 35.5951
1082 1 12.5772 12.47 35.7098
1074 3 1.64337 9.19585 35.532
1088 3 16.0028 16.0817 35.9901
1136 2 16.006 5.25777 17.867
2640 2 7.01673 6.77049 18.0079
3072 3 16.2426 5.40639 35.6115
1066 1 9.0428 1.875 35.5918
3141 1 5.39391 12.7869 17.7589
3127 3 8.71298 1.79948 18.1067
2574 2 0.291756 11.0538 35.6305
3080 2 8.95706 12.3579 35.5582