ITEM: TIMESTEP
5000
ITEM: NUMBER OF ATOMS
4000
ITEM: BOX BOUNDS pp pp pp
1.0784444081554412e-01 3.5626215559184409e+01
1.0784444081554412e-01 3.5626215559184409e+01
1.0784444081554412e-01 3.5626215559184409e+01
ITEM: ATOMS id type x y z
1 2 -0.0238235 1.8436 1.81955
1563 1 0.367298 0.204517 0.213099
2064 1 1.94424 2.05072 0.110169
3561 3 1.91891 0.0844745 1.80717
564 3 3.82539 1.79833 1.8133
565 1 7.20143 1.78254 1.93532
1565 1 7.24569 0.0619095 0.116143
2065 1 3.56784 0.0598201 0.111641
3061 2 5.41733 1.77874 0.137522
3562 3 5.51289 0.00920934 1.91916
566 1 10.7084 2.12111 1.79134
1070 1 10.7715 0.10863 0.175957
3063 2 9.17 0.230772 1.82643
3062 2 8.92143 1.85737 0.0268154
567 2 14.3794 1.935 1.79767
2566 1 14.1711 0.115562 0.180864
3064 2 12.6229 1.98331 0.254606
3563 3 12.6099 0.112056 2.00389
2 1 17.7029 0.203669 -0.0268484
3 3 16.0832 0.110834 1.77884
3066 3 17.9549 1.90708 1.85138
3065 2 16.0802 1.89494 0.120821
4 3 1.99454 5.2799 0.113818
5 2 2.01003 3.46206 1.78963
6 2 1.65901 7.11198 1.78983
1071 3 0.184875 5.44397 1.84557
3067 1 -0.0729761 3.75116 0.136574
3565 3 0.0774345 7.30614 -0.080652
7 3 5.38431 5.32514 0.154521
8 1 3.6791 7.16188 0.0207705
1072 1 7.21488 5.32625 1.77126
1075 3 5.42164 7.18472 1.9175
1074 3 3.5245 5.40897 1.91967
1567 3 7.22631 7.14753 0.217832
2570 1 7.20318 3.56306 -0.0486647
2569 1 3.71285 3.60479 0.00486063
3569 2 5.55461 3.65292 1.82569
9 2 9.01425 5.35895 0.10436
10 1 8.97079 3.77993 1.84613
1077 3 10.7164 7.17032 0.195835
1076 2 10.7592 5.28795 1.80946
1568 3 8.95886 7.19046 1.65718
3068 2 10.8486 3.62311 0.118243
11 1 12.7538 5.47777 -0.0224474
12 3 14.2656 3.7255 0.125306
570 2 12.4682 3.76703 1.90979
1571 3 14.2252 7.21884 0.0532296
1570 2 14.1998 5.67643 2.00694
1569 2 12.562 7.2442 1.94741
572 2 16.063 3.75854 1.83034
1081 2 15.9392 7.42441 1.82727
1079 1 17.8862 5.58154 1.76804
1078 2 16.0921 5.28017 -0.0857551
1573 1 17.716 3.71772 0.0371173
2070 3 17.8832 7.31225 0.090218
575 2 1.98785 10.8699 1.83043
1082 3 1.94343 9.03852 0.140601
1574 2 0.0224168 8.86042 1.98317
3070 1 0.224384 10.779 0.15584
576 2 3.70867 10.7596 0.0556275
1085 2 5.35036 8.91781 0.0781123
1083 3 5.27515 10.6087 1.86131
1577 1 7.29532 10.4598 -0.0449724
1576 2 7.13284 9.01776 1.74874
1575 2 3.5912 9.01986 1.82848
14 2 10.7047 10.7303 0.0865736
1087 3 9.00566 10.7764 1.90862
1086 1 9.11667 8.92734 0.0506477
2071 1 10.8559 9.11309 2.01434
580 3 12.5603 10.9704 1.98364
1088 1 14.1755 10.6034 0.34069
2073 1 12.4599 9.13178 0.0371329
2074 2 14.1512 8.85479 1.86532
15 1 17.8611 8.91525 1.89956
1581 3 15.9586 10.7902 1.94101
2076 3 17.7591 10.7382 0.0957252
2075 3 15.8473 8.84412 -0.0149611
2079 3 2.10002 12.7112 0.0808816
2078 3 1.84512 14.4855 1.7955
2077 3 0.151756 12.5532 1.80623
2572 2 0.0984648 14.4328 0.111862
2082 1 5.48283 14.4353 1.81164
2081 3 3.66937 12.595 1.83654
2080 3 5.5015 12.4604 -0.00181681
2576 3 7.20238 14.2578 0.123408
2575 2 7.25259 12.4322 1.84373
3071 3 3.80867 14.3262 -0.178584
1583 2 8.88699 14.2993 1.95385
2084 2 10.7295 14.1577 0.216654
2579 2 10.6348 12.4636 1.84327
3073 2 8.94287 12.3866 0.0293664
2085 1 12.441 14.2314 1.74987
2580 3 14.2659 12.625 1.79388
3074 2 12.4955 12.5521 0.139969
3574 2 14.2615 14.2322 0.0259371
581 2 17.9369 12.4782 1.94716
1089 1 17.7873 14.1863 0.120211
2583 1 16.1405 14.2375 1.92481
3075 3 15.9674 12.5076 -0.0958355
16 3 -0.0110885 17.8456 0.187562
2086 1 1.82456 17.8483 1.78173
2584 2 0.0550532 16.1077 1.82784
3076 1 1.7712 16.1923 0.256067
17 3 5.50277 16.1459 0.146994
1090 1 3.74525 18.1008 0.0835049
2585 3 7.17961 17.8414 0.164287
3079 2 5.41221 17.7397 1.81873
3078 2 7.33247 16.0817 1.74746
3077 3 3.66769 16.1475 1.87326
18 2 9.14047 15.9708 0.155831
1585 3 10.7116 17.9797 0.108261
3080 1 10.5925 16.1407 1.73015
3578 3 8.9389 17.9968 1.70742
19 3 12.4985 16.1189 0.0981567
2088 3 14.3818 17.8458 0.096848
3081 3 14.2115 15.93 1.67942
3581 3 12.5758 17.9388 1.83079
20 1 16.0269 16.0223 0.143827
1586 3 17.7337 16.064 1.88091
3083 2 15.9713 17.7772 1.89133
3082 2 17.831 17.9021 0.0724822
584 2 1.86872 1.88299 7.03582
1564 1 0.203019 -0.019007 3.49026
2588 2 1.92006 0.176105 5.29177
2563 2 1.94718 1.91124 3.61929
3084 2 0.113854 0.264426 6.99096
3583 3 0.124717 2.03864 5.28303
22 3 5.37748 1.90598 7.14482
1069 1 3.64883 0.100141 3.69655
1566 1 7.17336 0.128632 3.6669
2089 1 5.4562 0.0303076 5.41601
2590 1 3.79196 0.103299 7.20137
2564 2 5.4271 1.73754 3.66638
3085 2 7.07982 0.0643301 7.17006
3585 1 3.68436 1.97651 5.42325
3584 1 7.10146 1.75718 5.33495
586 3 8.87513 1.85554 6.99301
2066 1 10.8712 0.151978 3.63447
2593 2 8.76664 0.122084 5.3748
2565 1 8.98104 1.94316 3.80917
3086 2 10.688 0.174494 7.24122
3586 2 10.6242 1.86818 5.32611
23 3 12.7448 1.83335 7.08192
24 2 14.4076 0.0771815 7.05977
25 2 14.2534 2.0876 5.24881
2568 2 14.4351 0.0900906 3.57305
2567 3 12.62 1.9037 3.40385
3087 1 12.5533 0.356485 5.32533
568 3 17.8034 0.218554 3.81754
588 1 15.8836 1.97248 6.9343
1587 3 17.9064 0.241741 7.27208
3088 2 15.9998 0.0209301 5.49327
3588 1 17.8214 1.88292 5.54742
3564 3 16.1194 2.09023 3.63169
27 1 1.95206 5.41258 7.17971
28 3 1.84306 7.1392 5.48028
589 2 0.172593 5.33382 5.46386
2067 3 0.228219 3.63151 3.50842
3090 1 1.89081 3.71798 5.41008
3590 3 0.119212 7.16297 7.18706
3589 3 0.213169 3.61415 7.26161
3567 2 0.065335 7.00398 3.67023
3566 2 1.91625 5.4362 3.80508
29 3 3.76191 3.79608 7.22358
593 1 3.6191 7.23721 7.41119
592 3 7.12801 5.6059 5.42855
591 1 7.28917 7.42705 7.30368
590 1 3.69978 5.44757 5.48476
1095 2 5.41945 5.63892 7.30224
1094 2 5.37162 7.3032 5.62697
1073 3 3.57354 7.23716 3.51956
2068 1 7.31093 7.15426 3.68601
2069 3 3.66332 3.68456 3.72567
3593 3 5.4461 3.73607 5.31764
3592 2 7.16277 3.72352 7.00671
3570 3 5.4627 5.40199 3.56124
3568 3 7.0844 3.67051 3.67144
31 3 9.12774 3.80394 5.44256
569 1 10.8545 7.20249 3.48907
594 1 10.8868 5.37253 5.40674
1097 3 8.87884 5.39826 7.26966
1590 3 8.9737 7.25607 5.5902
1589 1 10.907 7.18492 7.26507
3594 3 10.8447 3.69684 7.33959
3572 1 10.8662 3.765 3.59986
3571 3 8.96824 5.68665 3.70979
33 2 12.5135 3.74959 5.36641
35 1 14.3895 3.59054 7.29584
571 2 12.6948 5.62718 3.77114
595 1 14.44 7.46658 7.10879
1100 1 14.3418 5.36338 5.45637
1099 1 12.8052 5.39106 7.30851
1592 3 12.8015 7.40238 5.43014
1572 3 14.5111 7.40496 3.73707
3069 2 14.383 3.67513 3.51719
573 1 16.2312 5.54661 3.45751
1080 1 17.9734 3.65945 3.58058
1595 1 16.163 7.16052 5.4548
1594 1 16.1811 5.40602 7.39049
2094 3 17.8466 7.28768 7.2383
2092 1 17.901 3.7209 6.99199
2571 1 17.8373 7.2152 3.58074
3092 3 17.9111 5.36976 5.56726
3595 2 16.1392 3.88916 5.33065
13 1 0.106405 10.5404 3.64407
597 1 0.308193 10.8326 7.22595
596 3 1.87026 10.7422 5.29264
574 2 1.8006 8.8897 3.55184
1102 3 1.94209 8.80956 7.31843
1101 2 0.0845986 9.01133 5.56425
38 3 3.57499 10.7719 7.03186
578 1 3.74414 10.6803 3.61996
577 2 5.53647 8.88179 3.69564
1106 1 7.22286 10.8665 7.15931
1104 1 5.48885 10.9396 5.50635
1103 1 3.63503 9.03355 5.19353
1084 2 6.93025 10.8071 3.63166
1597 1 7.24102 9.11061 5.42149
1596 1 5.38906 9.0916 7.09108
39 2 10.8857 10.8953 7.06739
599 2 9.14619 10.7027 5.43494
579 2 10.8637 10.7867 3.61401
1107 2 8.90934 9.3552 7.19236
1578 3 8.99498 8.81276 3.5733
2097 3 10.6754 8.89003 5.32565
1108 3 12.6206 10.7191 5.33634
1598 3 12.5801 8.87304 7.08404
1579 2 12.4768 9.12607 3.66578
2072 2 14.3047 10.9235 3.77914
2099 1 14.3414 10.8426 7.25432
2098 2 14.5396 9.20096 5.32161
1599 2 16.2037 9.11307 7.20978
1580 2 16.1852 9.11316 3.65561
2100 2 16.2322 10.9398 5.48305
3093 3 18.0241 10.6867 7.11368
3597 1 17.7359 9.09463 5.54493
3573 3 17.8517 10.7153 3.61647
1110 2 0.267972 14.3266 7.12835
1582 2 1.91657 12.4575 3.63356
2103 3 1.88023 12.6641 7.1174
2102 2 1.87023 14.5913 5.24694
2101 1 0.0801202 12.5929 5.58469
2573 2 0.117041 14.5063 3.94474
1112 3 7.23607 14.1365 7.11845
1600 2 5.37335 12.4567 7.14162
2104 1 5.36614 14.2576 5.49409
2083 3 3.71904 14.6138 3.58698
2601 3 7.28877 12.462 5.35179
2600 3 3.70885 12.7753 5.2698
2599 3 3.72947 14.1787 7.25119
2577 2 7.23692 14.3955 3.70261
2574 3 5.43814 12.8288 3.59119
2604 2 8.83213 14.2584 5.35785
2603 1 10.7339 14.3343 7.06577
2602 2 10.8476 12.5137 5.43717
2578 3 8.97339 12.496 3.71337
3097 2 9.10181 12.5934 7.11622
3072 2 10.7075 14.2032 3.50149
602 2 14.3146 14.5087 7.15069
1603 2 12.5469 12.6851 6.9876
2605 1 14.2793 12.4767 5.647
2581 3 12.5029 12.5623 3.79492
3098 3 12.6191 14.4166 5.28421
3575 2 14.4372 14.1745 3.49632
1114 3 18.0071 12.6055 5.64341
1584 1 17.8734 14.6114 3.81617
2582 1 16.1827 12.5746 3.65386
3100 2 16.2754 14.3115 5.44947
3099 3 16.0175 12.567 7.20264
3599 3 17.983 14.3738 7.34608
582 2 0.258456 17.9524 3.66752
1605 1 1.78855 17.9649 5.49008
1604 3 1.92837 16.1609 7.13966
3104 2 0.0550862 16.2051 5.6116
3103 2 0.0278221 17.9369 7.30939
3576 2 1.92578 16.193 3.74214
2087 1 3.52876 17.9847 3.6418
2607 3 5.43443 17.8227 5.50535
2586 2 7.14049 17.9271 3.56065
3107 1 7.19586 18.062 7.22088
3106 2 5.55726 15.9331 7.23278
3105 2 3.7867 17.9048 7.2648
3602 2 3.65739 16.1483 5.50994
3601 3 7.144 16.1905 5.48778
3577 2 5.47973 16.1433 3.68433
1091 1 10.6674 17.8196 3.64205
2107 3 8.83187 15.9351 7.07758
2608 1 9.00871 17.7605 5.30144
3109 3 10.7503 17.8633 7.12012
3603 3 10.7719 16.0151 5.33144
3579 2 8.87929 16.1508 3.41534
41 3 14.4075 16.1052 5.35476
2610 1 12.4535 17.8298 5.42117
2609 2 14.4186 17.8221 7.11923
2587 2 14.2462 18.0168 3.64152
3604 2 12.4787 16.1916 7.24379
3580 3 12.7651 16.0289 3.50728
583 1 15.8487 16.1462 3.43397
1606 3 18.1721 17.989 7.41955
2109 2 16.0149 16.0774 7.31735
3112 2 16.138 18.1495 5.48754
3110 3 17.9196 16.1756 5.58416
3582 3 17.6449 17.6634 3.82534
21 3 0.0611873 1.83618 8.82478
604 1 0.0945186 0.307244 10.8542
2110 3 1.87494 1.98834 10.7132
2589 3 1.93099 0.0529443 8.97994
585 3 7.10154 1.87785 9.06382
1092 2 5.51435 0.052858 8.98906
1608 3 7.14566 0.20068 10.8402
1607 1 3.68836 0.287937 10.6613
2111 3 5.51227 1.98958 10.6131
2591 3 3.62819 1.78719 8.8317
1116 3 10.6706 0.260318 10.9537
2612 3 8.98204 2.02434 10.7744
2592 1 10.6056 1.9296 8.93652
3587 1 8.94568 0.183778 8.89627
587 3 14.4746 1.83248 8.93904
1609 3 14.34 0.071175 10.8642
2090 2 12.4958 0.172473 9.00911
2613 3 12.4722 1.94294 10.8151
26 1 16.272 0.133209 9.29099
2594 2 18.0019 1.89928 9.03992
3116 1 16.2539 2.02847 10.8287
3115 1 18.0685 0.104173 10.8114
1093 3 1.93191 7.02296 9.09954
2091 3 2.05322 3.60228 8.98892
2615 2 0.0562959 3.64171 10.7804
3118 1 0.0382832 7.07136 10.6512
3117 1 1.85488 5.29397 10.7462
3089 3 -0.027409 5.37823 8.99076
30 2 5.36362 3.75687 8.95612
45 3 7.22327 7.43777 10.7427
1096 3 3.65028 5.58905 8.94024
2112 1 7.21649 3.54264 10.8615
2616 1 3.76456 3.78366 10.9329
3091 1 7.16183 5.39603 9.15595
3608 2 3.73002 7.28681 10.7213
3607 2 5.32413 5.44053 10.8834
3591 1 5.59544 7.1357 9.08066
46 3 10.7607 7.31027 10.8357
1098 2 10.8487 5.55526 8.95131
1591 1 9.19246 3.55401 8.94075
1588 1 8.82287 7.47816 8.92244
2113 3 10.653 3.67539 10.8103
3609 1 8.84453 5.57589 10.4336
32 2 12.6381 7.25324 8.85918
34 2 12.5691 3.70684 8.93031
36 3 14.4076 5.53694 8.98521
609 1 14.2936 7.38847 10.7043
3119 2 14.4204 3.56035 10.907
3611 2 12.4593 5.39061 10.8098
1120 1 17.8866 3.74809 10.8794
1615 2 17.9112 7.29222 10.6646
1593 1 17.7299 5.54579 8.89289
2093 2 16.1856 7.29747 9.00013
2595 2 16.2173 3.57265 8.97213
3612 2 16.1398 5.53334 10.8567
48 1 1.88839 8.90993 10.8649
2095 2 -0.0180806 8.82014 9.05457
2596 3 1.93465 10.7553 8.99448
3120 1 0.0544269 10.5515 10.8494
37 2 3.64418 8.93565 8.9252
49 2 5.25394 9.11534 10.6835
612 2 7.08416 10.7397 10.7628
1105 3 5.23712 10.8611 8.96427
2096 3 6.98101 9.28549 8.98835
3121 1 3.60916 10.6595 10.8194
613 3 9.03636 9.15194 10.7568
598 3 10.8524 8.97071 8.78495
3613 2 10.7522 10.8974 10.7773
3596 1 8.9133 10.6027 8.99936
50 1 14.4381 10.7807 10.6867
614 1 12.5461 9.06441 10.9124
2598 3 12.4985 10.7345 8.83655
2597 2 14.4249 8.89575 8.96682
51 1 18.0282 10.8951 10.7945
600 2 17.9728 9.0722 9.04403
1122 3 16.1931 8.98296 10.8942
1109 1 16.0437 10.7195 8.83643
616 1 0.105945 14.3156 10.8492
601 2 0.118001 12.3985 8.90318
1123 2 1.75334 12.4241 10.7536
3094 2 1.83056 14.2654 9.25928
1124 1 5.38995 12.6807 10.8149
1111 1 5.49829 14.3681 9.08603
1619 2 7.27897 14.3383 10.8513
1618 3 3.42794 14.3685 11.0222
1601 2 7.08907 12.7594 8.98347
3095 3 3.69493 12.5738 9.05174
617 3 10.7746 14.3254 10.5957
1125 2 8.83946 12.556 10.6394
3096 2 8.97764 14.2829 8.95745
3598 2 10.8227 12.4569 8.95926
1126 3 14.2743 14.4161 10.6604
1113 1 12.4619 14.2005 8.82074
1620 1 12.6608 12.4107 10.6753
1602 2 14.1444 12.6195 8.92633
1621 1 16.0767 12.5148 10.5906
3126 3 17.923 14.189 10.6664
3102 3 16.0761 14.295 8.87836
3101 2 17.8427 12.6592 8.97628
1623 2 0.126317 17.8849 10.6018
2119 3 1.87871 16.0115 10.7441
2606 1 1.99252 17.7029 8.96059
3600 1 0.0859909 16.1417 9.03976
40 1 7.41735 16.0532 9.02709
619 3 3.53124 18.0225 10.8976
1127 3 7.13322 17.7378 10.8015
2120 2 5.27163 16.2188 10.9661
2106 3 3.56474 15.9681 8.95581
2105 2 5.3889 17.6042 9.02849
1624 2 10.8052 17.7937 10.7442
2108 2 10.7533 16.1974 8.8072
2625 3 9.05847 16.1202 10.8792
3108 1 9.10946 17.9931 9.22259
603 2 14.2271 16.1366 8.84868
1115 2 12.5764 17.8943 8.73398
2626 2 12.5494 16.13 10.6313
3620 2 14.4792 17.862 10.6164
2628 3 16.1818 16.0738 10.6729
2611 1 17.9416 16.1468 8.90994
3127 1 18.067 17.9491 10.8287
3111 3 16.3112 17.7388 8.97616
42 1 0.0418908 1.89623 12.4784
2121 1 0.131444 -0.0137645 14.2891
2629 3 1.9104 1.92494 14.4386
3113 3 1.71037 0.192262 12.5652
43 1 3.6242 1.80733 12.4951
605 2 7.16879 1.90912 12.6591
1625 2 7.24884 0.043999 14.2065
2123 3 3.79715 0.1448 14.3846
3128 3 5.39822 1.84729 14.383
3605 1 5.4041 0.270152 12.4115
606 3 10.7037 2.04832 12.6678
1627 2 10.785 0.102265 14.3065
3129 1 8.88183 2.00283 14.314
3606 2 8.92044 0.199315 12.5326
1117 3 14.3921 1.70169 12.642
2632 2 14.3549 -0.00199968 14.4451
3131 3 12.6086 1.86183 14.3667
3114 2 12.3284 0.178704 12.6556
44 1 16.244 0.199304 12.5528
501 2 18.013 0.300811 14.3651
2614 3 18.0443 1.95805 12.6037
3132 3 16.0948 2.01442 14.4333
607 2 1.71246 3.67049 12.4864
1119 1 1.74527 7.03545 12.4274
1118 2 0.17331 5.30627 12.445
2634 1 0.036152 6.97899 14.1481
2633 2 0.150074 3.54857 14.3902
3624 1 1.69432 5.39901 14.384
60 1 6.99926 7.30905 14.3939
608 2 5.50042 3.58738 12.505
1612 1 7.10983 5.40739 12.2721
1611 3 5.53943 7.26751 12.646
1610 2 3.56401 5.49539 12.5904
2128 1 7.16677 3.8108 14.359
2126 1 3.5545 3.89413 14.4176
3136 3 3.6856 7.29032 14.2955
3626 3 5.5104 5.43432 14.2117
1613 1 11.0123 5.44823 12.6104
2114 3 8.94314 7.02943 12.6454
3137 2 10.8213 3.88699 14.4301
3629 1 8.89113 5.46968 14.3533
3628 3 10.6794 7.12604 14.4825
3610 3 9.03094 3.78583 12.5939
610 2 12.7042 3.71892 12.5002
1614 1 14.5649 5.65504 12.6436
2617 2 12.5877 7.33816 12.5404
3138 2 14.4559 3.67437 14.2597
3631 2 14.4923 7.3611 14.3753
3630 1 12.7584 5.5411 14.3978
47 1 17.8731 5.68453 12.6495
65 1 16.1833 5.57946 14.2234
1138 3 17.8847 3.69309 14.1527
1121 2 16.1277 3.62822 12.6485
2618 1 16.1549 7.33642 12.481
3140 2 17.9494 7.27796 14.2283
67 3 1.82205 8.84263 14.2652
611 3 1.91919 10.7165 12.5573
2115 3 0.109285 8.96426 12.5592
2636 2 0.12895 10.8382 14.3904
69 3 7.25574 10.8501 14.2967
70 1 5.43813 9.00666 14.4449
1616 1 5.40056 10.6639 12.6394
2116 1 3.49025 8.81473 12.3881
2619 3 7.12021 9.09546 12.4836
3633 1 3.46414 10.7842 14.3496
71 1 9.08831 9.01491 14.3072
2117 1 8.93104 11.0389 12.4497
2620 1 10.6451 8.97803 12.5396
3141 1 10.8381 10.6646 14.4214
510 1 12.6469 8.87964 14.4369
1617 1 12.654 10.6582 12.6492
3122 2 14.3826 9.07192 12.6036
3635 2 14.3992 10.9348 14.1764
511 1 16.271 9.12306 14.4471
615 1 18.0541 9.0484 12.527
1639 3 17.9774 10.9586 14.2733
2118 1 16.0847 10.9728 12.4286
513 2 0.207323 14.2749 14.503
514 3 1.94349 12.5774 14.3135
2621 1 0.181071 12.4015 12.6692
3123 2 1.87258 14.3985 12.6796
72 1 7.32997 14.4943 14.5367
515 1 5.431 12.6796 14.3456
516 2 3.58621 14.3805 14.4062
3125 1 7.17973 12.6252 12.6909
3124 3 3.70806 12.4894 12.6433
3614 1 5.39287 14.4589 12.4681
73 3 10.8293 14.4279 14.2725
1145 1 9.15356 12.5185 14.3255
3616 1 10.7124 12.6525 12.3931
3615 3 9.06485 14.4599 12.4337
1147 2 12.5042 12.6449 14.2643
1146 3 14.3363 14.2448 14.2058
2622 1 12.7494 14.2881 12.4201
3617 1 14.3051 12.4793 12.5561
1149 1 16.1309 12.6452 14.4185
1622 1 18.0024 12.6234 12.5615
3146 2 17.9331 14.4099 14.3582
3618 2 16.1676 14.3407 12.4591
52 2 0.189844 16.1734 12.6609
518 3 0.0746239 17.8024 14.309
1150 1 1.82758 16.0212 14.4977
2623 1 1.73031 17.8328 12.5571
53 2 3.61236 16.1803 12.7316
618 3 7.2293 16.1839 12.6605
1151 1 3.54918 18.0323 14.2231
1642 1 5.37076 16.0568 14.3987
2142 1 7.37097 17.9632 14.5722
2624 3 5.48544 17.9691 12.7639
54 3 10.985 16.1581 12.5199
1643 1 9.03126 16.0748 14.3227
2649 1 10.8341 17.7748 14.3647
3619 2 9.01441 17.6996 12.6751
55 2 12.6285 18.0329 12.3896
620 2 14.3215 16.0286 12.5087
1646 1 12.6249 16.1196 14.3158
1644 3 14.4439 17.8268 14.1493
56 1 16.14 17.8041 12.2729
1647 1 16.1057 16.1096 14.2223
2627 1 17.9728 15.9331 12.4751
3644 3 17.8379 17.7865 14.319
57 2 1.90051 0.0936139 16.2266
621 2 -0.00300899 1.6812 15.9662
1128 3 -0.0796946 -0.0222926 17.9724
2122 3 1.85609 1.68057 17.9268
58 1 5.25261 0.100287 16.1275
1132 3 7.23881 0.107868 17.9192
1131 1 7.24917 1.91738 15.9714
1130 3 3.67493 0.0938183 17.8962
1129 2 3.50451 1.79722 16.2596
2630 3 5.39733 1.92549 17.8534
1133 3 10.9886 1.79907 16.0307
1626 3 10.7489 0.16313 17.8577
2631 3 8.82543 2.2151 17.9538
3621 3 9.10019 -0.0485948 16.1148
59 3 12.5187 0.0217545 16.0981
1134 2 14.1222 1.88373 16.0688
2124 3 14.3918 0.209397 17.9449
3130 1 12.5536 1.99676 17.8429
502 3 16.2069 0.157819 16.0115
3133 2 16.1835 2.11113 17.8153
3623 2 17.9367 0.27871 17.7395
3622 1 17.9173 1.89271 16.0454
503 2 1.80083 3.41635 16.1784
504 2 1.74057 7.05079 16.0398
1628 3 0.127142 5.30363 16.1711
2125 3 0.111388 3.50484 17.8933
3134 2 0.0272709 7.17123 17.8316
3625 3 1.82109 5.22234 17.8249
61 3 5.45892 3.50544 16.0756
505 3 3.64092 7.14287 17.9074
1135 1 7.19171 7.46221 17.7617
1631 3 5.15535 7.11066 15.9983
1630 3 3.47711 5.42874 16.1434
1629 3 7.11528 5.42927 16.0873
2127 2 3.58691 3.68829 18.0301
3135 1 7.0418 3.64106 18.0277
3627 1 5.39959 5.24315 17.833
62 1 8.86428 5.59823 17.9117
63 2 10.7458 7.27892 17.8021
506 1 8.92546 3.6868 15.9683
1632 1 10.7213 5.401 16.243
2129 1 9.00274 7.41658 16.1263
2635 3 10.8183 3.66648 17.9141
64 3 12.4702 5.42854 17.8977
1137 1 14.4877 7.30002 17.8089
1136 2 12.7219 3.73264 16.0362
2131 2 14.39 5.50708 16.2001
2130 3 12.6224 7.3643 16.1514
3139 2 14.4481 3.65339 17.9808
66 2 18.0284 5.38752 16.076
507 2 16.1951 5.56404 17.7244
1140 3 17.907 3.70167 17.8102
1139 3 16.171 3.70528 16.0135
1634 1 17.8494 7.26691 17.9232
1633 3 16.3285 7.27051 15.9833
508 3 1.86831 8.91384 17.8553
1141 1 2.04476 10.7608 16.2162
2132 2 0.120818 8.98154 15.8382
3632 3 0.155433 10.6443 17.771
68 3 3.64143 10.999 17.9941
509 1 7.30738 10.7761 17.899
1142 2 5.42102 9.11667 17.9284
1635 3 5.54625 10.8462 15.9894
2134 2 7.24342 9.0283 16.1153
2133 3 3.79621 9.16638 16.1222
1143 3 8.96872 9.06423 17.7529
1636 3 8.99653 10.8055 16.0063
2637 1 10.817 9.07683 16.2138
3634 2 10.8325 10.9154 17.8426
1144 1 12.6885 10.7611 16.1576
1638 3 12.6512 9.11463 17.7724
1637 2 14.6172 10.854 17.8188
2638 3 14.5716 9.0809 16.1131
512 2 17.968 9.17515 15.9812
1640 2 16.1776 8.99123 17.758
2135 1 16.1708 10.9696 16.0546
2639 3 18.0196 10.7116 17.9088
2137 3 0.21039 14.2312 17.9465
2136 3 1.88645 12.5165 17.9217
2641 2 1.90861 14.1869 16.168
2640 3 -0.0699141 12.4599 16.2222
2140 1 7.25406 14.33 17.8955
2139 2 3.62827 14.3429 17.7816
2138 1 5.39876 12.7168 17.9939
2643 2 5.42967 14.3184 16.0974
2642 2 3.64483 12.576 16.2236
3142 3 7.06536 12.5196 16.1338
2141 2 8.94241 14.4493 16.029
2645 1 9.03855 12.5998 17.8743
2644 2 10.7358 14.3329 17.785
3143 3 10.7236 12.6838 15.9938
2647 3 12.647 14.3815 16.063
2646 1 12.6213 12.491 17.8624
3145 1 14.5613 14.1928 17.9484
3144 1 14.5009 12.5808 16.0159
517 2 17.938 14.2268 17.9013
1148 3 18.0846 12.5828 16.1988
3148 1 16.3725 14.1927 16.0387
3147 1 16.188 12.6197 17.8107
2648 2 1.82364 17.6851 16.1266
3150 2 2.00116 16.1863 18.0257
3149 3 0.0419556 16.1213 16.1863
3636 2 0.0509947 17.8533 17.9688
1641 1 3.60943 17.9473 17.8458
2143 3 7.16465 17.8839 17.9179
3640 2 5.28232 17.9469 16.2027
3639 1 7.21258 16.1128 16.1273
3638 1 5.36543 15.9512 17.8842
3637 2 3.62565 16.1145 16.2268
74 2 8.97615 17.9506 16.1685
519 2 10.9576 17.8951 17.9597
3642 1 9.02817 16.1075 17.9315
3641 3 10.7063 16.1595 16.2245
75 2 12.7471 16.0357 17.8679
76 2 12.5734 17.8435 16.1374
1645 3 14.4291 17.8164 17.7949
3643 1 14.4403 15.8394 15.9809
77 2 16.1539 15.9973 17.7246
2144 1 17.8276 16.178 16.0397
2650 2 17.8694 17.9059 17.7189
3645 1 16.0289 17.8016 16.1266
520 3 -0.0771823 -0.0311858 21.5365
78 1 0.24914 1.84066 19.7829
2145 3 1.9457 1.91803 21.6121
3151 2 1.92272 0.0500675 19.8922
521 1 3.6595 0.039931 21.3235
80 3 3.75699 1.8188 19.7414
79 3 7.15092 1.87875 19.7191
2147 3 5.42365 1.94494 21.6234
2146 3 7.19453 0.111676 21.501
2651 3 5.39739 0.152448 19.6872
81 1 10.8717 1.83971 19.6969
1648 2 10.7136 0.108293 21.5082
2652 2 9.16803 1.97848 21.433
3152 1 9.15489 0.227498 19.6578
522 3 14.362 1.84972 19.6858
1649 1 14.5697 0.023407 21.3776
2653 1 12.6321 1.96178 21.3484
3646 1 12.5774 0.150807 19.618
82 2 17.8049 0.19525 21.4848
2654 3 17.8362 1.94833 19.7414
3153 3 16.2934 2.09497 21.5078
3647 1 16.1919 0.405898 19.5977
523 1 0.118432 5.41 19.5829
84 2 1.93155 7.03397 19.613
83 2 0.00350773 7.21562 21.3873
1650 2 -0.0100716 3.5555 21.3263
3155 1 2.02555 5.45102 21.4282
3154 3 1.95485 3.62407 19.791
524 1 3.83303 5.45705 19.5802
525 1 7.33552 5.66462 19.6101
526 2 3.76643 7.24481 21.3743
1153 1 7.25615 7.10492 21.3654
1152 1 5.40755 7.27677 19.6382
2655 2 3.65415 3.62805 21.6101
3156 2 7.23147 3.73634 21.2333
3649 1 5.37012 3.43988 19.6583
3648 2 5.31915 5.40899 21.2165
86 2 10.9393 7.19056 21.4445
85 1 9.07865 3.70607 19.8033
1155 3 10.8448 5.41836 19.5445
1154 2 9.1841 7.40651 19.4747
2656 1 10.8862 3.70884 21.4574
3650 2 9.11843 5.37182 21.2888
527 2 12.745 7.27878 19.7069
88 3 12.556 5.39926 21.3661
87 2 12.6273 3.84033 19.4866
1156 1 14.4459 5.67578 19.6315
2148 1 14.3599 7.22232 21.6597
2657 1 14.3575 3.48415 21.3258
528 1 18.0298 3.67154 21.6756
89 1 16.1299 5.64146 21.5586
1157 2 16.0852 7.38903 19.8973
3158 3 17.8192 5.68373 19.6501
3157 2 17.9265 7.3707 21.562
3651 3 16.3071 3.7632 19.6242
529 2 1.96493 8.804 21.2681
530 2 2.02594 10.6238 19.7342
1158 1 0.0289281 8.96194 19.7391
3652 2 0.223705 10.8062 21.428
531 3 5.41768 8.93726 21.3748
532 1 5.5135 10.8575 19.6264
533 1 7.36513 10.6539 21.3207
1159 1 3.47211 8.99748 19.5265
1651 2 7.11448 8.86995 19.6659
3653 2 3.82569 10.7486 21.3342
90 2 9.02789 10.7018 19.7004
1161 2 9.24025 9.00185 21.3061
1160 1 10.9238 10.8195 21.3224
1652 2 10.8788 9.06479 19.3555
534 2 12.6908 10.7376 19.4946
1162 3 12.5834 8.93367 21.4197
1654 3 14.3191 10.7253 21.5531
1653 1 14.4384 9.00072 19.5373
1656 3 16.1493 10.7518 19.5922
1655 2 16.1469 9.10727 21.4203
3159 3 17.9598 10.6802 21.5517
3654 1 17.8746 9.09103 19.6257
1660 2 0.13691 14.2714 21.2304
1659 3 1.89077 14.3252 19.6059
1658 1 1.76056 12.6039 21.4225
1657 3 0.141073 12.4521 19.7184
1163 3 5.44918 14.369 19.8126
1661 2 3.64154 14.1954 21.4915
2151 2 7.1997 12.7084 19.6501
2150 2 5.5053 12.5793 21.4098
2149 3 3.74315 12.5877 19.7779
3160 1 7.33629 14.2944 21.3428
1662 1 9.09939 14.2023 19.4894
2153 2 8.96978 12.4966 21.4162
2152 3 10.7051 12.4972 19.6417
2658 2 10.8446 14.3236 21.5072
2155 2 14.1808 12.4518 19.583
2154 3 12.5317 14.2472 19.6041
2660 2 14.3964 14.3873 21.3781
2659 1 12.6123 12.4486 21.3926
535 3 17.9483 12.4706 19.531
1164 3 17.9279 14.1183 21.4411
2156 2 16.2091 14.2982 19.7174
2661 2 16.139 12.4035 21.1612
1165 3 0.121752 18.0049 21.42
2157 1 1.68751 17.7884 19.8
2662 1 -0.0306875 16.1026 19.7459
3161 3 1.98115 16.0796 21.4543
1664 3 7.14163 17.7478 21.4953
1663 1 3.52006 17.9938 21.6123
2664 3 3.64314 16.1101 19.5955
2663 1 7.15633 16.1586 19.5827
3163 3 5.47633 16.1773 21.4999
3162 1 5.3462 17.8127 19.5847
536 2 10.9131 17.7404 21.3968
2665 2 10.8347 16.0589 19.4273
3164 2 8.99662 17.775 19.6457
3655 3 9.09584 16.0603 21.5329
2666 3 12.6769 17.7577 19.6997
3166 2 14.4453 16.0199 19.6517
3165 2 14.5062 17.9579 21.4105
3656 2 12.6008 16.1259 21.428
92 3 16.0853 16.054 21.4509
91 3 17.9191 17.7959 21.3776
1166 3 17.9115 16.1088 19.6453
3167 2 16.1628 17.7789 19.4621
93 1 1.8653 1.83378 25.0647
1665 3 1.63758 0.108639 23.3272
2667 2 0.0874924 0.00503153 25.1466
3168 3 0.0416748 2.01535 23.2981
2158 1 5.39894 0.213397 23.211
2670 1 3.69608 -0.0255656 24.9991
3170 3 7.35917 1.89822 23.0516
3169 3 3.59358 1.75318 23.3681
3659 3 7.07683 0.190353 25.0126
3658 1 5.48958 1.97073 24.9933
537 2 9.13662 1.81469 24.9187
2671 3 8.98803 0.09743 23.2521
3171 1 10.6959 0.0139728 24.8687
3660 2 10.76 1.78176 23.2362
2673 1 12.7769 0.200931 23.0118
3663 1 14.6582 1.97175 23.3077
3662 2 14.3841 0.109015 25.0243
3661 1 12.6078 1.73949 24.9344
539 1 16.2166 2.06924 25.0417
1167 3 17.8338 0.125115 24.9451
1668 3 18.2075 2.0428 23.3145
2160 2 16.1767 0.224532 23.147
99 3 2.02602 5.31209 24.9825
98 3 2.0482 7.10974 23.1599
97 2 0.314518 7.14334 25.1023
96 2 0.117944 5.33159 23.3075
3173 1 1.90886 3.71311 23.3249
3172 2 0.113437 3.78607 24.9958
540 2 3.73041 7.13496 24.8162
541 3 5.57615 7.06986 23.0951
542 1 7.24889 5.19391 23.0603
543 3 5.55438 5.38067 24.7812
101 2 7.30411 7.05377 24.8965
100 2 3.77296 5.38568 23.2011
2675 1 7.31972 3.69094 24.705
3175 2 3.58461 3.52225 25.0352
3665 1 5.19177 3.64967 23.1103
546 3 9.09425 7.06089 23.1902
547 1 9.01764 5.36447 24.8398
102 1 10.8007 5.38472 23.1262
1170 1 10.8341 7.12155 25.0057
3177 1 10.7636 3.46469 24.9079
3666 3 9.05186 3.71832 22.9618
548 1 14.2736 5.35608 23.1927
549 2 12.4579 5.44447 25.116
105 2 14.5161 3.95155 24.957
1670 3 12.6362 7.0521 23.2885
3179 2 12.6474 3.61392 23.1394
3667 2 14.2462 7.09847 24.9399
1172 1 16.2399 5.60507 24.9521
1672 1 17.987 3.87616 24.914
1671 2 16.0606 7.21341 23.279
2678 3 18.0562 7.25177 24.9878
2677 1 18.0305 5.49868 23.1782
3668 3 16.1163 3.84215 23.1935
550 1 0.292762 8.90298 23.1748
106 2 2.03599 10.8933 23.1089
1175 3 1.8915 8.81972 24.9593
3669 2 0.218421 10.6038 24.8489
108 1 5.43359 10.6636 23.0265
1180 1 7.34486 10.6464 24.6575
1178 1 7.269 8.89682 22.974
1177 1 3.59297 8.97117 23.1375
1176 2 5.50343 8.95084 24.751
3670 3 3.65159 10.62 25.0259
551 1 10.7381 10.7994 24.9417
552 1 9.09699 10.8233 23.0889
1181 1 9.21454 8.78402 24.9282
1674 1 10.7667 8.98238 22.9911
1182 2 12.6504 10.6618 23.2082
1676 1 12.616 8.80232 24.9112
1675 1 14.4778 9.06619 23.2591
2163 3 14.4131 10.8631 25.0498
1183 2 16.0324 8.94906 25.1462
1677 1 16.0945 10.8152 23.3884
2165 3 17.8404 10.8228 25.1547
3671 1 17.7191 8.99466 23.2584
555 2 0.147294 14.2833 24.9864
1184 3 1.94075 14.2494 23.1967
1678 2 1.94284 12.4887 24.822
2166 1 0.0901368 12.5297 23.2269
113 2 6.97326 14.181 24.9117
1185 1 5.32988 12.4838 25.0186
2170 3 5.51492 14.1809 23.168
2169 3 3.8043 12.3482 23.179
2168 3 3.51389 14.2834 25.0273
2167 2 7.11568 12.4521 23.115
1680 2 10.7458 14.3438 24.9016
2171 1 10.8719 12.6201 23.3439
2682 1 9.00586 14.357 23.1277
2681 2 8.97166 12.4722 24.7397
114 3 14.2864 14.2463 24.9905
1681 3 12.5192 12.4708 24.8674
2684 3 14.388 12.711 23.1663
2683 3 12.5526 14.3096 23.0785
557 2 17.8935 12.4853 22.9757
2173 2 16.1944 14.3301 23.3064
2685 1 16.1271 12.5323 25.0014
3183 3 18.0192 14.2504 24.9476
1684 1 1.78382 16.0464 24.804
1683 3 1.84665 17.8251 23.3048
2688 3 0.159293 15.9153 22.9963
2687 1 0.298288 17.8518 24.9255
2175 2 7.20161 17.896 25.0159
2174 3 5.54523 17.9416 23.329
2689 2 3.67327 17.9134 24.8236
3187 2 5.36732 15.9805 24.9673
3186 2 7.24186 15.8881 23.1198
3185 3 3.55486 16.082 23.2478
1687 3 8.94916 17.9708 23.1234
1686 3 8.91053 16.2125 24.831
2177 2 10.9031 17.8789 24.9394
3675 1 10.8272 16.0891 23.2007
2178 3 14.3723 17.7444 25.0906
2690 3 12.6323 17.8225 23.1142
3188 2 12.6391 15.9916 24.9864
3676 2 14.4329 16.1058 23.1072
1187 3 17.9135 16.0415 23.0654
1186 2 17.9787 17.8303 25.1178
1689 1 16.1322 16.0148 25.0468
3189 2 16.1879 17.9871 23.2923
1188 1 0.191519 0.182138 28.4582
2180 1 1.96241 1.97432 28.4632
2668 3 1.92785 0.0133371 26.6999
3657 2 0.187834 2.03091 26.808
559 2 7.25085 0.207738 28.459
94 3 7.25212 1.95533 26.5892
1189 2 3.74016 0.0857579 28.5771
1666 2 5.48744 0.206983 26.7625
2181 1 5.2365 1.99403 28.4027
2669 1 3.58388 1.83739 26.7552
560 2 10.8694 -0.0381688 28.2633
95 3 9.01276 0.152803 26.5813
2182 2 8.90511 1.89498 28.5374
2672 3 10.8689 1.97801 26.825
538 2 14.5694 1.91284 26.6611
1667 2 12.7569 0.00238586 26.5478
2184 2 12.6537 1.80027 28.5959
2183 1 14.3233 0.0830939 28.3935
2159 1 17.9379 1.8969 26.7521
3193 2 16.0697 1.87998 28.503
3679 2 17.7363 0.112494 28.4046
3664 2 16.1471 -0.0327674 26.7136
1168 3 1.93211 3.69029 26.6752
1669 3 2.05673 7.11687 26.6957
2186 2 0.0605835 7.32683 28.561
2185 1 0.125242 3.56912 28.5727
2674 2 -0.0687902 5.53028 27.0414
3194 3 1.71543 5.45094 28.5107
544 3 3.77947 5.37743 26.696
563 3 7.22994 7.05452 28.481
1691 2 7.17526 3.68449 28.4851
1690 1 3.65981 3.75817 28.5237
2676 1 7.24769 5.32012 26.7078
3196 3 3.6519 7.1156 28.6862
3195 2 5.37544 5.36643 28.6761
3176 2 5.48704 3.66593 26.6876
3174 2 5.54135 7.00434 26.6838
545 1 10.8027 5.51875 26.9429
1171 1 9.00416 3.69402 26.7188
1169 2 8.9676 6.93521 26.7854
2694 2 10.7268 3.86207 28.5887
3197 1 8.94852 5.41675 28.6258
3681 1 10.6446 7.35889 28.5682
104 3 12.6052 3.60878 26.7222
103 1 14.3636 5.57909 26.775
2695 2 14.393 3.76616 28.4108
3178 3 12.4617 7.15041 26.8538
3684 3 14.29 7.30445 28.5567
3683 2 12.6664 5.4363 28.619
622 3 17.9081 3.58001 28.5431
1004 2 17.9308 7.26382 28.5062
1174 1 16.2082 7.42173 26.806
1173 1 18.0545 5.51727 26.6847
3180 3 16.1636 3.80708 26.8635
3685 1 16.0832 5.70436 28.4382
1673 3 0.204602 8.98483 26.7988
2161 2 1.85406 10.7457 26.7514
2696 2 0.188896 10.6247 28.5829
3687 1 1.92604 9.01064 28.7145
122 3 7.33561 10.6274 28.5369