ITEM: TIMESTEP
5000
ITEM: NUMBER OF ATOMS
4000
ITEM: BOX BOUNDS pp pp pp
-9.4439903922776125e-03 3.5690273990391830e+01
-9.4439903922776125e-03 3.5690273990391830e+01
-9.4439903922776125e-03 3.5690273990391830e+01
ITEM: ATOMS id type x y z
1 3 3.54751 1.6769 1.6469
563 3 0.0957458 0.125018 0.116913
564 2 3.61379 0.215254 3.80215
568 2 0.0855071 3.75325 3.73331
569 3 3.60925 3.57484 0.155357
1064 2 1.56059 1.80301 0.197766
1563 1 1.89 0.0196922 1.8828
2064 2 -0.0526661 1.87285 1.94644
2570 2 3.27842 3.41072 3.62942
2569 3 0.0583926 3.53221 0.199287
2565 3 3.61278 -0.0182114 0.0505004
2564 2 0.0220127 0.0318638 3.41538
3063 2 1.50547 1.87558 3.64386
3566 2 1.845 3.68931 1.9634
1065 3 5.33011 2.08869 3.7734
1566 1 5.43902 3.68016 1.7999
3064 3 5.69717 2.04255 0.181772
3564 1 5.34613 0.0982176 1.5623
2 1 10.8979 2.01869 1.79202
565 1 7.26807 0.0968539 0.154736
566 1 10.7185 -0.0450795 3.44469
570 2 7.22474 3.60891 3.57735
571 1 10.4193 3.52306 0.0242655
1066 1 8.91289 1.80467 -0.206861
1564 1 9.10585 0.0347649 1.66557
2065 2 7.18598 1.74465 1.95586
2572 3 10.8277 3.60232 3.78625
2571 3 7.38821 3.56155 0.0961407
2567 2 10.6902 -0.249086 0.127878
2566 1 7.28652 0.0205993 3.36876
3065 2 9.06319 1.62165 3.77564
3567 1 8.90831 3.29464 1.95375
567 2 14.2231 -0.0444834 -0.0907727
572 3 14.2511 3.53319 3.27967
1067 3 12.4557 1.82331 3.58272
1567 1 12.5127 3.63208 1.53991
2066 2 14.2628 1.55064 1.85467
2573 2 14.3971 3.51152 -0.0203572
2568 3 14.261 -0.112653 3.66051
3066 1 12.6252 1.75472 0.060461
3565 1 12.6129 -0.279554 1.63208
756 1 17.712 3.71164 3.4592
751 1 17.8322 -0.0458804 0.195262
1068 1 15.8662 1.52121 -0.00818675
1565 3 16.0343 -0.127352 1.93524
2001 3 17.6667 1.95619 1.83694
2819 2 17.681 3.5384 0.0305884
2814 2 17.9443 -0.0770818 3.48777
3067 1 15.9665 1.67099 3.48411
3568 1 16.0365 3.81193 1.65768
3 1 0.139522 5.47085 1.93355
1069 2 1.83318 5.50196 3.67395
2067 2 3.72006 5.39414 1.86923
3068 2 2.12206 5.25726 0.00436016
1070 2 5.54004 5.21722 0.0467444
3069 1 5.37551 5.27302 3.65062
4 1 7.21231 5.37707 1.81503
1071 2 8.94252 5.40914 3.35221
2068 2 10.7602 5.21597 1.80318
3070 2 9.0238 5.28491 0.112228
5 2 14.1728 5.31572 1.60711
1072 1 12.6343 5.50676 -0.180326
3071 1 12.4653 5.22853 3.48501
253 1 17.878 5.32287 1.75094
1073 2 15.8639 5.34043 3.45428
3072 3 15.9362 5.43393 -0.218837
6 1 3.51198 8.94095 1.61329
579 2 3.69135 10.7039 -0.207262
578 1 -0.191731 10.4607 3.44134
574 2 3.90791 7.10555 3.52799
573 3 0.173396 6.98715 -0.0431607
1074 2 1.84837 9.04554 -0.0976213
1568 1 1.82944 7.16827 1.70827
2069 1 0.0724546 8.78565 1.66952
2580 2 3.51638 10.6916 3.56454
2579 3 -0.122748 10.6264 0.101213
2575 1 3.51577 6.8984 0.155837
2574 1 0.0504651 7.22106 3.63137
3073 2 1.93015 8.86163 3.42547
3571 1 1.71843 10.6151 1.58326
1075 1 5.26669 8.87063 3.56286
1571 1 5.31742 10.5112 1.72806
3074 2 5.23047 8.42611 -0.112535
3569 3 5.41352 7.13385 1.93145
7 3 10.7105 8.82345 1.90111
581 1 10.4804 10.6478 0.136218
580 3 7.19239 10.8132 3.65751
576 2 10.6348 6.96837 3.32245
575 1 7.10801 6.97838 -0.0381843
1076 2 8.93803 8.76635 -0.0889075
1569 3 9.00132 7.18829 1.67314
2070 3 7.19589 9.06426 2.03031
2582 2 10.8331 10.548 3.62905
2581 2 7.06315 10.4564 0.0533845
2577 1 10.7965 6.94386 0.0230344
2576 3 7.21184 7.11361 3.66018
3075 1 8.87006 9.1841 3.57307
3572 2 8.84116 10.8215 1.71358
582 2 14.3216 10.7476 3.54986
577 2 14.1543 7.06972 0.179682
1077 2 12.6579 8.82446 3.46564
1572 2 12.4931 10.7123 1.88376
2071 2 14.1629 8.9203 1.84552
2583 2 14.1753 10.6578 0.106796
2578 2 14.159 7.0561 3.46684
3076 2 12.5444 8.90034 0.146808
3570 2 12.5539 6.92609 1.76913
766 1 17.8048 10.8899 3.79779
761 3 17.8108 7.18664 0.180409
1078 2 15.9272 8.9047 0.162621
1570 1 15.8742 7.04933 1.83101
2006 3 17.5689 9.00216 1.98858
2829 2 17.844 10.6534 0.00676217
2824 3 17.8255 7.28609 3.63945
3077 3 16.0858 8.76507 3.95191
3573 3 16.0235 10.723 1.93038
8 3 -0.105278 12.5915 1.56324
584 2 3.71006 14.0749 3.58426
583 3 -0.0744349 14.6032 -0.136245
1079 1 1.67511 12.2377 3.5506
1573 3 1.8145 14.2713 2.05679
2072 1 3.5696 12.4444 1.78174
2585 2 3.46085 14.5066 0.229823
2584 1 -0.00923429 14.3581 3.58589
3078 3 1.85647 12.7208 -0.140231
1080 3 5.27505 12.5652 -0.110716
3079 1 5.28486 12.3836 3.9112
3574 1 5.26009 14.24 1.97342
9 3 7.04472 12.4417 1.82492
586 3 10.9132 14.4201 3.72572
585 3 7.09521 14.2224 0.0752726
1081 1 9.14035 12.3612 3.58753
1574 2 9.05972 14.263 1.89367
2073 2 10.7201 12.5054 1.63411
2587 1 10.6266 14.1914 0.0262986
2586 1 7.33751 14.0555 3.63492
3080 1 8.47213 12.2845 0.0368435
10 2 14.4517 12.6775 1.49132
587 3 14.4019 14.2331 -0.480323
1082 2 12.4074 12.4014 0.0973599
2588 1 14.1946 14.3487 3.64003
3081 2 12.5648 12.3463 3.49365
3575 3 12.4257 14.1713 1.70086
258 1 17.6707 12.5385 1.62668
771 3 17.8377 14.2972 -0.178146
1083 2 16.0844 12.5568 3.47513
1575 2 16.1534 14.3257 1.4868
2834 1 17.691 14.5363 3.3455
3082 2 16.1277 12.6291 -0.220575
11 1 3.6128 15.977 1.93437
627 1 3.52249 17.8006 3.39235
626 1 0.138561 17.9228 0.0187066
1084 3 1.92987 16.2024 -0.320145
1688 2 1.65045 18.1082 1.78642
2074 2 0.0301812 16.4269 1.66884
2690 1 3.23255 17.9937 -0.299274
2689 1 0.0741105 17.6625 3.53002
3083 2 1.656 15.9912 3.3728
1085 3 5.29855 15.9301 3.59793
3084 3 5.36651 15.8575 0.220633
3689 2 5.53036 17.6335 2.04756
12 1 10.5714 16.0767 1.91068
629 1 10.9211 18.079 3.47441
628 2 7.1907 17.7062 0.00413622
1086 2 8.91668 16.1532 0.0399412
1689 3 8.87642 17.5523 1.9193
2075 2 7.18745 16.0066 1.96455
2692 2 10.7259 17.7415 0.271329
2691 1 7.03256 17.832 3.54875
3085 3 9.00254 16.0704 3.68626
630 3 14.2455 17.603 -0.0802396
1087 3 12.6605 16.1037 3.19962
2076 3 14.2748 15.8732 1.52725
2693 3 14.5921 17.5872 3.17376
3086 1 12.4968 16.0645 -0.233618
3690 2 12.6072 17.8083 1.77627
876 3 18.0551 17.8633 0.00437288
1088 2 16.2713 16.0899 -0.103012
1690 3 16.2198 17.9806 1.759
2011 2 17.8431 16.1166 1.6211
2876 2 17.6576 18.0487 3.72937
3087 2 15.9685 15.9537 3.50478
13 1 -0.192143 1.85779 5.34559
1579 2 1.95057 3.78253 5.45575
2077 2 3.44418 1.68538 5.4476
3576 3 1.6874 0.173877 5.44756
1576 3 5.50235 0.113784 5.70917
3580 3 5.31228 3.56844 5.49642
14 1 7.17487 1.83836 5.4649
1581 1 8.94706 3.44206 5.47276
2079 3 10.7058 1.84127 5.44849
3577 3 8.87363 0.00944915 5.41639
16 3 14.029 1.75495 5.12425
1578 1 12.4459 -0.223436 5.32436
3582 3 12.51 3.69412 5.47106
263 2 17.7987 1.86884 5.15727
1582 2 15.9593 3.31869 5.22241
3579 1 15.8186 0.0124692 5.62098
17 2 3.73247 5.21038 5.64963
2080 1 -0.0255858 5.48858 5.20408
19 2 10.4909 5.34639 5.45338
2082 2 7.05403 5.51283 5.35952
2083 3 14.2752 5.37679 5.21745
2017 3 17.7279 5.23167 5.2166
20 2 0.164514 9.0487 5.44445
1587 1 1.71787 10.6097 5.20403
2085 3 3.51779 8.92067 5.25579
3583 1 2.04331 7.00591 5.18867
1584 3 5.13206 7.13634 5.49492
3588 2 5.27206 10.6058 5.1535
22 3 7.02112 8.90141 5.36706
1588 2 9.1019 10.7234 5.41359
2086 2 10.7418 8.81253 5.04613
3585 1 9.16767 7.13991 5.26018
23 2 14.2964 8.98241 5.30261
1585 2 12.2742 7.03716 5.22179
3589 2 12.5162 10.6717 5.28394
270 3 17.9082 8.90565 5.57013
1590 1 16.052 10.8386 5.2585
3586 3 15.8392 7.03336 5.41122
25 2 3.36305 12.2477 5.36734
2088 3 0.123898 12.3018 5.47107
3591 2 1.61939 14.0751 5.24346
1591 3 5.30756 14.284 5.59726
26 1 11.0427 12.5649 5.23183
2089 3 7.18775 12.3593 5.35474
3592 3 9.0725 14.366 5.51866
1593 3 12.6084 14.592 5.61663
2091 1 14.0216 12.4856 5.36038
2025 2 17.8073 12.8305 5.04626
3594 1 15.9346 14.2429 5.2457
28 2 0.325063 16.2089 5.3942
2092 1 3.47901 15.8638 5.50425
3701 3 1.90414 17.9238 5.19642
1701 2 5.12437 17.562 5.32225
29 2 7.26671 16.0276 5.26696
2094 3 10.9632 16.2067 5.45427
3702 3 8.78436 17.8219 5.18121
31 2 14.5864 16.1821 5.63016
1703 3 12.6832 17.9942 5.4604
278 1 17.6223 16.0339 5.24166
3704 3 16.0716 18.0997 5.57898
598 1 0.124986 3.77337 10.6617
595 3 3.51706 0.106021 10.6798
588 3 -0.0883963 0.0431034 7.17349
1089 1 1.60974 1.89773 7.13039
1594 2 1.78698 0.0201001 8.78965
1580 2 -0.0280274 3.77557 7.15161
1577 2 3.55832 0.0728343 7.22931
2095 3 0.0979139 1.84229 9.17304
2600 2 3.69802 3.60295 10.3329
2599 3 1.73573 3.62577 8.93941
2595 2 0.168865 0.0508091 10.874
2590 1 3.61138 3.38358 7.28517
3095 2 3.60899 1.80872 8.99202
3094 1 1.72231 1.76212 10.7001
1096 3 5.43005 1.95631 10.5894
2078 3 5.3676 1.9207 7.20117
2596 1 5.49993 0.267103 8.94665
3599 2 5.49703 3.65496 9.06076
33 1 7.04971 1.64551 9.0065
600 3 7.21433 3.5748 10.7793
599 1 8.97886 3.55007 8.69319
597 2 10.7872 -0.126277 10.8989
590 2 10.8871 3.46257 7.25863
1097 2 10.6739 1.45907 8.91501
2601 3 10.4554 3.47284 10.6056
2597 2 7.20495 0.0870189 10.8333
2589 2 7.03125 -0.0872365 7.36798
3096 3 8.97349 1.75374 10.7356
3088 2 9.07059 1.81984 7.24139
3596 2 9.02619 0.0767504 9.12282
3581 2 7.09222 3.38786 7.2834
3578 3 10.529 -0.160087 7.11766
15 1 12.3431 1.65969 7.32995
601 3 14.4219 3.57551 10.6621
596 1 12.5491 0.0852192 9.23074
589 2 14.0496 -0.0478572 7.15232
1098 1 12.5777 1.58158 10.6002
1600 1 12.5916 3.42809 9.12198
1583 1 14.2022 3.13616 7.25945
2098 3 14.4148 1.59927 9.1285
2598 3 14.4133 -0.304876 10.7591
786 3 17.8273 3.53213 10.7965
776 2 17.9154 -0.0437342 7.03223
1090 2 16.1477 1.92364 7.25098
1768 1 17.6651 3.6609 7.01866
1597 1 16.1178 -0.0535118 8.80346
2032 3 17.6909 1.71532 9.07321
2845 2 17.7597 -0.00451991 10.7829
2602 1 16.1558 3.51229 8.8998
3097 2 16.0461 1.73941 11.01
36 3 3.85472 5.60032 8.97876
1099 2 1.96285 5.35033 10.7595
2081 3 1.86687 5.48432 7.23413
3098 1 0.0334098 5.46073 8.91757
3099 1 5.62143 5.52175 10.8994
3089 1 5.26571 5.39901 7.16427
18 3 8.86394 5.71832 7.32804
1101 2 8.82835 5.42981 10.5216
1100 2 7.09025 5.50585 8.98658
2101 2 10.8229 5.30709 8.72878
1091 3 12.6711 5.12733 7.12482
3101 3 14.5112 5.23355 8.88922
3100 1 12.4354 5.39919 10.5499
1102 1 15.9791 5.39714 10.77
2084 2 16.1404 5.22924 6.98582
3348 2 17.7446 5.06493 9.06679
39 3 -0.0487789 8.73459 9.03921
606 3 -0.245039 10.756 10.752
605 1 1.78355 10.824 8.88432
603 3 3.65542 7.21367 10.7563
592 1 3.82167 10.9705 7.14996
1103 2 3.6765 9.20986 8.93185
2607 1 3.59819 10.8531 10.8758
2603 3 0.0908094 7.02544 10.6985
2591 3 0.320528 7.17169 6.95799
3102 1 1.73634 9.00822 10.6436
3090 1 1.89945 9.09998 7.45729
3602 3 1.87516 7.22961 9.01992
3587 3 -0.10273 10.8222 7.37458
3584 3 3.60534 7.35423 7.28576
21 1 5.3222 9.12002 7.12898
602 1 5.48234 7.27239 8.76804
1104 1 5.16642 8.96689 10.8818
1606 1 5.20918 10.9172 9.08403
607 1 7.021 10.9149 10.6803
604 3 10.628 7.09749 10.4461
591 3 7.00867 7.27962 7.00929
1092 1 9.00021 8.99301 7.104
1603 1 8.79369 7.38359 9.04205
1589 1 7.27595 11.0244 7.186
1586 2 10.8429 7.07399 7.22172
2104 2 6.92493 9.24286 8.71301
2609 1 10.7881 10.7186 10.8248
2608 2 8.88548 10.8666 8.67572
2604 2 6.71976 7.49278 10.7063
2593 1 10.6358 10.7608 7
3104 2 10.7869 9.02121 8.76787
3103 2 9.08769 9.34441 10.5428
42 2 14.3096 9.02324 8.67312
609 1 14.4866 10.8452 10.5127
1105 3 12.5619 8.90105 10.5329
2087 1 12.4192 8.99544 6.93347
2606 3 14.057 6.99409 10.7547
2605 2 12.6712 7.1663 8.89275
2592 1 14.1073 7.1821 7.12182
3608 2 12.6481 10.7464 8.78702
3590 1 14.3876 10.9267 7.30969
289 2 17.6805 9.02338 8.73842
794 2 17.7466 10.7303 10.565
608 1 16.2233 10.7641 8.71108
2853 2 17.6759 6.98888 10.4278
2841 1 17.7863 7.0033 7.14486
3105 2 16.2034 9.1442 10.5807
3091 3 16.1204 8.91058 7.18082
3837 1 17.7228 11.037 6.74061
3605 2 16.0621 7.16653 8.8922
24 1 1.72228 12.7807 7.18142
610 1 3.47949 14.3707 10.7256
593 2 -0.0913835 14.2335 6.89919
1107 2 1.80533 12.6871 10.6586
1106 3 -0.218247 12.627 9.01897
1609 1 1.57322 14.309 8.85637
1592 2 3.69136 13.9188 7.20293
2107 2 3.53335 12.7469 9.15687
2610 2 -0.108041 14.386 10.8562
1093 1 5.5458 12.6275 7.2355
2611 1 5.37167 14.4266 8.80826
3106 2 5.20297 12.5867 10.6102
45 1 10.9109 12.6116 9.08535
612 1 10.6283 14.4163 10.672
1108 1 9.03679 12.9354 10.7269
2090 1 9.21368 12.6475 7.20528
2612 1 6.71656 14.3606 10.6817
2594 2 7.43037 14.4096 7.04807
3107 2 7.19702 12.416 8.94966
3611 2 8.72917 14.5131 8.97512
3593 1 10.5504 14.2575 7.34836
611 2 12.5062 14.5322 9.03745
594 1 14.2315 14.3349 7.16555
1109 1 14.3148 12.4179 8.98549
2613 1 14.1631 14.3325 10.917
3108 2 12.5244 12.6119 10.8486
3092 2 12.4631 12.4428 7.12878
27 2 15.9085 12.5652 7.12595
781 1 17.8712 14.5684 7.12233
1293 2 17.7008 12.4805 8.87197
1110 3 16.0151 12.5606 10.5417
1612 1 16.0519 14.2876 8.88273
2860 3 17.9252 14.2462 10.6057
658 3 3.65944 17.8288 10.7111
651 3 -0.113602 17.7284 7.30367
1094 1 1.75504 15.9946 7.35787
1719 2 1.65374 17.9744 8.81581
1702 3 3.62714 17.84 7.08088
2110 2 -0.0648616 15.8907 8.83166
2720 1 0.00341043 18.024 10.5835
3110 1 3.66831 15.9942 8.83087
3109 2 1.66207 16.0111 10.6168
1111 3 5.39988 16.0738 10.7236
2093 2 5.39342 16.0814 7.34814
2721 3 5.2043 17.821 8.90605
48 2 7.11587 16.2874 8.86486
660 1 10.4362 17.8562 10.7985
1112 2 10.6492 16.2411 9.13568
2722 1 7.1431 17.8739 10.7629
2714 2 6.90595 17.8333 6.93636
3111 2 8.80416 16.1491 10.6099
3093 1 8.8301 16.3186 7.23521
3721 3 8.8998 17.9765 8.88699
3703 2 10.676 17.9672 7.12478
30 1 12.4947 16.4701 7.37834
659 1 12.5787 17.6679 8.91213
652 2 14.5243 17.9233 7.17453
1113 2 12.5319 16.1998 10.6971
2113 2 14.3433 15.9087 8.95904
2723 3 14.4687 17.6995 10.5865
901 2 17.8258 17.8808 7.40077
1095 2 16.0372 16.0654 7.31642
1722 1 16.11 17.8798 9.04963
2047 2 17.8179 16.1026 9.20194
2907 1 17.9341 18.089 10.7956
3112 2 16.1603 16.2467 11.0058
32 3 0.175071 1.79934 12.4676
616 3 3.52876 3.65027 14.2592
613 2 -0.0399718 -0.155942 13.9972
1114 1 1.68422 1.7578 14.1207
1598 1 1.80039 3.69985 12.23
2096 1 3.50508 2.10728 12.483
2616 3 -0.177196 3.47029 14.2737
2614 3 3.76373 0.0321019 14.0641
3595 1 1.97484 0.0430054 12.7082
1595 1 5.39928 0.0306857 12.2943
3113 1 5.45445 1.74421 14.1117
3600 2 5.43826 3.55161 12.5767
34 2 7.31161 1.86001 12.6537
617 2 10.5368 3.59505 14.2932
614 2 7.38404 -0.278325 14.1315
1115 2 9.0685 1.62286 14.4109
1599 3 9.21254 3.50402 12.4088
2097 1 10.6018 1.90485 12.4844
2617 3 7.26597 3.76077 14.4213
2615 2 10.7903 -0.201976 14.3057
3597 1 9.02891 -0.133742 12.6466
35 1 14.2678 1.65771 12.4768
615 3 14.0778 0.0417881 14.3352
1596 1 12.4569 0.0234922 12.4704
2618 2 14.2576 3.44318 14.4568
3114 2 12.2819 1.75523 14.2935
3601 1 12.6006 3.50904 12.4994
282 1 17.8642 1.88033 12.5523
801 2 17.6465 0.127193 14.3152
1116 1 16.0307 1.84279 14.2934
1601 3 16.0096 3.46682 12.5811
2866 2 17.7771 3.66274 14.2143
3598 3 16.0318 -0.04331 12.657
37 3 3.52794 5.24633 12.5695
2099 3 -0.0148752 5.29455 12.4181
3115 1 1.80441 5.31108 14.2477
1117 1 5.49212 5.19924 14.1957
38 1 10.7469 5.39276 12.3756
2100 1 7.06646 5.61301 12.4919
3116 1 8.83629 5.4827 14.2289
1118 2 12.1257 5.26183 14.1272
2102 1 14.1501 5.12264 12.8125
2036 3 18.102 5.38823 12.5766
3117 3 16.0282 5.51388 14.1592
40 1 -0.0880343 8.84372 12.6789
621 3 3.54673 10.5984 14.3617
618 2 -0.0999748 7.24553 14.1774
1119 3 1.71224 8.84463 14.3654
1605 2 1.81283 10.8632 12.3311
2103 3 3.41481 8.77234 12.5994
2621 2 -0.066474 10.6717 14.1063
2619 2 3.70738 7.01907 14.3237
3603 1 1.81532 7.1503 12.3993
1602 1 5.24163 7.18501 12.7423
3118 3 5.38834 8.87268 14.244
3607 1 5.52848 10.7295 12.4027
41 2 6.9777 9.04199 12.397
622 2 10.7758 10.7367 14.2436
619 3 7.30282 7.34899 14.2148
1120 1 9.0776 8.9447 14.415
1607 3 8.90313 10.6541 12.31
2105 1 10.8997 9.08042 12.4062
2622 3 7.28088 10.9473 14.2587
2620 3 10.7736 7.17376 14.2051
3604 3 9.0366 7.27434 12.1846
43 2 14.313 9.099 12.1732
620 3 14.3211 7.21218 14.3416
1604 3 12.2261 7.09931 12.3869
2623 2 14.5622 10.9167 14.0701
3119 2 12.4934 8.96504 14.4043
3609 1 12.5837 10.7653 12.3509
290 3 17.9123 9.0746 12.4124
806 2 17.7855 7.33778 14.2391
1121 3 16.0895 9.12924 14.1887
1608 1 15.9965 10.7934 12.3564
2871 2 17.7659 10.6882 14.1323
3606 1 16.1213 7.1326 12.3013
44 2 3.73725 12.5304 12.5874
623 3 0.0113193 14.3491 14.1745
2106 1 0.162403 12.647 12.5459
2624 2 3.72083 14.4482 14.1491
3120 1 1.87401 12.3798 14.3126
3610 3 1.62572 14.275 12.3971
1122 1 5.3042 12.4519 14.2064
1610 1 5.42358 14.2797 12.4814
46 2 10.5923 12.535 12.4076
624 3 7.14784 14.3416 14.16
2108 2 7.10901 12.5745 12.2952
2625 3 10.6511 14.4252 14.2808
3121 1 8.7208 12.6136 14.3335
3612 2 8.8627 14.2729 12.5365
625 3 14.1937 14.3225 14.3857
1123 2 12.5705 12.602 14.3191
1611 1 12.3747 14.2667 12.7312
2109 3 14.2574 12.4772 12.3856
811 1 18.2353 14.3961 13.9243
2043 3 17.9787 12.3233 12.3852
3122 2 16.1966 12.5593 14.3811
3613 3 16.0954 14.376 12.4727
47 3 -0.30504 16.0707 12.4815
676 3 0.0339322 17.9213 14.3931
1124 2 1.78898 15.9276 14.0394
2111 3 3.70669 16.0174 12.4097
2739 2 3.39727 17.8753 14.3568
3720 3 1.83513 17.6905 12.5563
1720 1 5.02427 18.0768 12.6415
3123 3 5.2142 16.2976 14.3864
49 2 7.12985 16.0907 12.5066
677 3 6.98061 17.9533 14.5334
1125 2 8.8496 16.1858 14.248
2112 2 10.7102 16.1437 12.4626
2740 2 10.7167 17.8703 14.2579
3722 3 8.90687 17.6896 12.5554
50 3 14.4192 16.1565 12.6764
678 3 14.593 18.0848 14.3095
1721 1 12.5877 17.7624 12.8686
3124 3 12.7137 16.1459 14.35
297 2 17.8581 16.3447 12.5346
926 1 18.0631 18.0343 14.215
1126 1 16.0862 16.0786 14.323
3723 3 16.1595 18.0386 12.489
51 1 3.69101 1.95375 16.1559
502 2 3.74558 -0.0656029 17.8224
506 1 0.166558 3.74567 17.9288
1613 1 1.87111 0.0358492 16.0022
2114 2 0.272911 1.75932 16.0573
2632 1 3.34746 3.50032 17.7626
2626 3 0.0756213 -0.0446889 17.8367
3125 2 1.88172 1.75688 17.7498
3616 3 1.79082 3.69477 15.8835
1128 1 5.57983 1.55423 17.8145
1616 2 5.47452 3.79785 16.0323
3614 2 5.32784 0.180519 15.8042
52 2 10.7012 1.90742 15.9335
504 3 10.5377 0.175747 17.753
508 1 7.18958 3.61521 17.8934
1614 1 8.98378 0.0503546 15.9918
2115 1 7.19659 1.7678 15.9376
2634 3 10.9077 3.69758 17.9678
2628 2 7.32619 0.150898 17.9262
3127 1 8.83927 1.96936 17.5457
3617 1 8.86078 3.71804 16.1331
510 2 14.3303 3.80152 17.7701
1130 3 12.4723 1.8775 17.8389
1617 1 12.4385 3.62712 16.2356
2116 3 14.2763 1.85288 16.0704
2630 2 14.2715 -0.131631 17.75
3615 1 12.341 0.128534 16.1756
819 1 17.6341 3.71031 17.6887
1615 3 15.9946 0.203988 16.203
2051 2 17.6764 1.82993 15.9669
2501 3 17.6397 -0.0395028 17.8089
3129 1 16.0896 1.88837 17.6546
3618 2 16.1309 3.7622 15.9224
53 3 0.0218343 5.40758 15.9347
1132 3 1.8632 5.45171 17.7347
2117 3 3.5563 5.60078 15.8947
3131 3 5.1933 5.36216 17.8451
54 3 7.33502 5.40817 16.1248
1134 2 9.01736 5.12565 17.788
2118 3 10.5634 5.40388 15.9439
55 1 14.3107 5.54208 16.1213
3133 2 12.7286 5.56803 17.7346
303 2 17.873 5.21262 15.9859
1136 3 16.0084 5.59826 17.7096
56 1 3.66147 9.00599 16.0699
512 3 3.54117 7.22922 18.0344
516 3 -0.0324613 10.5101 17.9352
1618 1 1.66057 7.20946 16.2545
2119 2 -0.27327 8.77944 16.0926
2642 1 3.39025 10.6655 17.924
2636 3 -0.172012 7.12387 17.9048
3135 3 1.72129 8.91717 17.9465
3621 3 1.65795 10.6455 16.0791
1138 3 5.49473 8.8846 17.8572
1621 1 5.53786 10.6156 16.0251
3619 3 5.48739 6.9988 16.0869
57 1 10.6464 9.05352 16.2004
514 3 10.7954 7.14456 17.6173
518 2 6.94478 10.7858 17.8451
1619 3 9.19981 7.19487 16.0732
2120 3 7.29887 8.99484 15.976
2644 1 10.6968 10.8578 17.981
2638 1 7.11435 7.07274 17.9718
3137 3 8.82263 9.28301 17.8242
3622 3 8.80918 10.9194 16.1161
520 3 14.3226 10.7163 17.7111
1140 2 12.3299 9.03136 17.9706
1622 3 12.499 10.5838 16.2991
2121 1 14.4888 8.9449 16.05
2640 2 14.245 7.56894 17.852
3620 3 12.633 7.33207 16.0378
829 3 17.9978 10.7198 17.7962
1620 2 16.1754 7.29019 15.9962
2056 3 17.8774 9.00039 16.1545
2511 3 17.6933 7.1046 17.7695
3139 3 16.2284 8.93604 17.8731
3623 3 16.2107 10.7053 16.0813
58 2 0.0499364 12.6203 15.8881
522 2 3.47725 14.2735 18.0487
1142 1 1.66458 12.2486 18.0428
1623 3 1.79982 14.1643 16.1265
2122 1 3.42419 12.5077 16.0046
2646 1 -0.114708 14.2045 18.0434
3141 3 5.14775 12.3918 17.91
3624 1 5.12081 14.3068 16.1504
59 2 6.91347 12.7788 16.1324
524 2 10.5602 14.2962 17.9085
1144 2 8.88204 12.5667 17.8336
1624 2 8.74389 14.1516 16.0575
2123 3 10.7637 12.6749 16.0499
2648 3 6.85245 14.3677 17.7958
60 3 14.2569 12.4889 15.7904
2650 2 14.5734 14.2294 17.8954
3143 2 12.8234 12.7 17.8612
3625 2 12.9013 14.5566 16.3303
308 1 18.0444 12.2458 15.9369
1146 3 16.147 12.4973 17.5937
1625 3 16.253 14.5283 16.1106
2521 2 17.9218 14.2942 17.9487
61 1 3.24168 16.1049 16.0614
690 1 3.47998 17.7987 18.0102
1738 1 1.60564 17.8779 16.1262
2124 1 0.138086 16.2053 15.9419
2751 3 -0.074947 17.8455 17.9644
3145 2 1.67831 16.0582 17.7404
1148 3 5.2352 15.9843 17.7572
3739 3 5.07298 17.7966 16.2156
62 2 10.8511 16.1252 16.0863
692 1 10.6815 17.6433 17.7911
1739 3 8.82127 17.804 15.8643
2125 2 6.93626 15.8884 15.9129
2753 1 7.18155 17.6564 17.7634
3147 2 8.7348 15.9278 17.7106
1150 2 12.5339 16.1235 17.8338
2126 2 14.5488 16.1986 15.9663
2755 1 14.1812 17.8992 17.8989
3740 3 12.5016 17.9138 16.0981
1740 2 16.2881 18.1726 16.2259
2061 2 17.9417 16.1785 16.3812
2938 3 18.0569 17.9877 18.0449
3149 2 16.2465 16.0428 17.9399
63 3 -0.0328753 1.86645 19.5742
1628 2 2.03482 3.54367 19.6292
2127 3 3.59368 1.68474 19.5451
3626 1 1.91778 0.0309053 19.7151
1626 3 5.47372 0.0636402 19.6439
3629 3 5.25759 3.65371 19.4614
64 3 6.96401 1.8745 19.6178
1629 2 9.02219 3.34048 19.6995
2128 1 10.8662 1.63132 19.6894
3627 3 8.94395 0.0154991 19.7091
65 1 14.4387 1.86701 19.4887
1627 1 12.54 0.183807 19.5327
3630 1 12.4572 3.50962 19.5549
313 3 17.6467 1.71288 19.4426
1630 3 16.1346 3.5879 19.7532
3628 3 15.8226 -0.266807 19.6167
66 2 3.66464 5.49222 19.6967
2129 1 -0.0169707 5.40752 19.7934
67 3 10.7455 5.32564 19.476
2130 3 7.26934 5.21103 19.5769
2131 1 14.2955 5.1373 19.4412
2316 3 17.6461 5.38522 19.6037
68 1 -0.296982 8.96802 19.5364
1633 3 1.58462 10.6465 19.8544
2132 1 3.68371 9.03567 19.5243
3631 3 1.77283 7.11224 19.6995
1631 1 5.58479 7.07429 19.7722
3634 1 5.14909 10.7458 19.591
69 2 6.96558 8.94947 19.7629
1634 2 8.93246 10.7121 19.6802
2133 2 10.4788 9.01186 19.8529
3632 2 8.91404 7.21545 19.3594
70 3 14.2947 9.02709 19.7642
1632 2 12.4619 7.21815 19.8214
3635 3 12.4746 10.9275 19.6398
318 2 17.7558 8.92106 19.6761
1635 3 16.0303 10.8503 19.6091
3633 2 15.9351 7.05514 19.6074
71 2 3.3856 12.4806 19.7949
2134 3 -0.117548 12.4647 19.7854
3636 1 1.61795 14.3586 19.6278
1636 1 5.46334 14.3608 19.6829
72 2 10.4829 12.5842 19.6223
2135 2 7.22588 12.4891 19.498
3637 3 8.74742 14.1442 19.6998
1637 2 12.3818 14.2043 19.5912
2136 2 14.383 12.6112 19.5002
2321 3 17.8187 12.4768 19.5974
3638 1 15.9723 14.2953 19.7404
73 2 -0.283061 16.1222 19.5094
2137 2 3.49686 15.8785 19.87
3751 2 1.55333 17.854 19.7445
1501 2 5.11358 17.5729 19.6059
74 2 6.97587 15.9942 19.6817
2138 2 10.6518 15.9839 19.6758
3752 3 8.87583 17.5475 19.5257
75 2 13.9947 16.0487 19.5936
1502 2 12.2542 17.9377 19.6959
323 1 18.0773 15.8703 19.5758
3753 1 15.9894 17.8054 19.5954
501 2 0.0581141 0.305385 21.246
507 3 3.52368 3.77042 21.4813
76 3 3.68669 1.80385 23.3421
1127 1 1.94327 1.88688 21.4892
1638 2 1.7779 0.109057 22.9877
2139 2 0.206955 1.79469 23.2232
2631 2 0.120071 3.51455 21.3224
2627 3 3.57041 0.132553 21.3904
3642 1 1.82599 3.53246 23.3676
1642 2 5.47707 3.40429 23.2546
3126 1 5.17789 1.91845 21.2932
3639 3 5.55781 0.0581486 22.9673
503 1 7.68028 -0.105362 21.4743
509 1 10.9839 3.60143 21.6953
78 1 10.7645 2.00852 23.1104
1129 2 8.96113 1.8256 21.5006
1639 1 9.13403 -0.0599171 23.2937
2140 2 7.18024 1.74984 23.2742
2633 3 7.17775 3.52937 21.3843
2629 1 10.6884 0.128751 21.6336
3644 3 8.99607 3.36459 23.3294
505 2 14.1462 0.0677763 21.4702
1644 3 12.6462 3.50429 23.2678
2142 1 14.1855 1.56333 23.3226
2635 3 14.2869 3.67007 21.3755
3128 3 12.5297 1.62564 21.4434
3641 1 12.3379 -0.0793481 23.3203
814 1 17.8053 0.212083 21.4501
1131 3 15.8927 1.61662 21.5675
1641 2 15.8853 -0.10257 23.2829
2326 1 17.7789 1.62336 23.203
2506 1 17.6994 3.41932 21.6031
3645 3 16.0708 3.49615 23.1082
79 3 0.0222019 5.26471 23.2159
2143 2 3.71412 5.34242 23.2884
3130 2 1.78461 5.44888 21.4624
1133 3 5.35859 5.26069 21.5969
81 1 7.11862 5.22496 23.5187
2145 1 10.6001 5.34628 23.3494
3132 1 9.05329 5.17562 21.3957
82 1 14.2374 5.46814 23.1344
1135 1 12.5529 5.35842 21.6211
329 1 17.7669 5.16593 23.0573
3134 2 15.8276 5.29007 21.5363
511 1 0.115596 7.33806 21.6791
517 3 3.50627 10.6392 21.4827
84 3 3.51284 8.81908 23.1943
1137 2 1.88769 8.87531 21.1984
1645 1 1.70343 7.04848 23.1225
2146 1 -0.0149313 8.93007 23.0999
2641 3 -0.0414334 10.7896 21.5263
2637 2 3.63361 7.01086 21.668
3650 1 1.77755 10.5751 23.1043
1650 2 5.4514 10.7426 23.0932
3136 3 5.17643 8.82875 21.4076
3647 2 5.54293 7.17498 23.2626
513 2 7.43532 6.81826 21.2852
519 1 10.7 10.8049 21.4357
85 1 10.7828 8.98698 23.1169
1139 1 8.75686 8.83798 21.5273
1647 2 8.9055 7.05087 23.1498
2148 2 7.09747 8.95391 22.945
2643 2 7.23526 10.858 21.4093
2639 2 10.639 7.18206 21.373
3651 3 8.88391 10.7684 23.4603
515 1 14.2719 6.99861 21.1435
1651 2 12.4486 10.6053 23.1031
2149 1 14.3002 9.12308 23.1543
2645 1 14.2106 10.6968 21.5584
3138 3 12.5682 9.07967 21.2723
3648 3 12.6018 7.38457 23.0935
824 1 17.6422 7.00088 21.1759
1141 1 15.9253 8.9605 21.4636
1648 2 15.7789 7.19741 22.8529
2333 3 17.6987 8.85214 23.0654
2516 1 17.721 10.7159 21.3933
3653 3 15.9747 10.783 23.2616
521 3 -0.0746751 14.28 21.4834
87 1 0.024731 12.5533 23.3547
1653 3 1.62705 14.2722 23.2978
2151 1 3.66454 12.259 23.2717
2647 3 3.5918 13.9879 21.651
3140 3 1.67329 12.6129 21.5458
1143 3 5.28479 12.5873 21.2505
3654 2 5.49305 14.2028 23.0608
523 2 7.07427 14.2954 21.4882
88 1 6.92924 12.5243 23.2584
1654 3 8.88846 14.3224 23.1089
2152 2 10.6255 12.5317 23.1914
2649 1 10.6468 14.2959 21.5668
3142 1 8.81021 12.6705 21.4647
525 3 14.3001 14.1671 21.4588
90 3 14.1303 12.2812 23.1395
1145 1 12.3393 12.3246 21.5538
3656 3 12.4386 14.0362 23.3253
834 1 17.6646 14.2107 21.5107
337 2 18.1622 12.2061 23.2377
1656 1 16.3421 14.1876 23.2452
3144 2 16.0202 12.4389 21.4369
689 1 -0.417609 17.9014 21.4101
91 2 3.68688 15.9418 23.2606
1147 1 1.59023 16.0121 21.5752
1513 1 1.63983 17.9699 22.958
2154 1 -0.183999 15.9475 22.983
2752 3 3.59186 17.7565 21.5891
3146 1 5.11458 16.2857 21.3762
3764 1 5.36162 17.7865 23.2641
691 2 6.9997 17.6782 21.1472
93 3 10.8159 15.8113 23.2012
1149 1 8.88574 16.026 21.3772
1514 1 8.93092 17.9394 23.409
2155 2 7.06153 16.0205 23.3428
2754 1 10.5828 17.7814 21.3008
693 2 14.2064 17.7862 21.1301
2157 1 14.1082 15.9302 23.1261
3148 2 12.2981 16.0323 21.3433
3766 1 12.5114 17.6474 23.4587
939 1 17.765 17.8217 21.2405
1151 3 16.0691 16.0138 21.3494
1516 2 15.9342 18.0663 22.9603
2341 2 17.9042 16.1729 23.1556
527 2 3.49844 3.33072 24.9767
536 1 1.71903 3.43716 26.7997
94 3 0.0841289 1.47785 26.5952
1159 1 3.54988 1.60606 26.558
2651 1 -0.0273069 -0.104206 24.8466
3150 2 1.90668 1.65667 24.8554
3657 3 1.8976 -0.107166 26.8171
3643 3 0.0116067 3.43448 25.0915
3640 1 3.89822 -0.21965 24.78
533 2 5.40736 -0.0548049 26.803
77 1 5.60306 1.5667 24.8684
1661 3 5.16584 3.24775 26.8345
526 3 7.15415 -0.137407 25.0338
1152 2 8.86833 1.81436 25.1519
1658 1 8.96769 -0.0967439 26.7689
1643 3 7.17335 3.45767 25.1652
1640 2 10.604 0.384516 25.0272
2159 3 7.1075 1.54563 26.709
2662 3 8.83673 3.52604 26.9714
2653 1 10.6362 3.50724 24.9866
3158 2 10.5933 1.94145 26.9515
97 2 14.2132 1.70882 26.776
2141 2 12.4921 1.9184 25.1628
2659 1 12.3096 0.0979964 26.7994
2652 3 14.1828 -0.070329 25.1177
3663 1 12.6323 3.61755 26.7896
3646 3 14.5792 3.33994 25.0417
539 1 16.2234 3.32536 26.8521
344 2 18.0987 1.54162 26.4374
2526 1 17.7878 -0.206762 24.8598
3151 2 16.1031 1.49798 24.8918
3893 1 17.62 3.31921 24.8356
3660 1 16.0907 0.0308129 26.6158
80 2 1.91911 5.32329 25.1463
1162 2 0.0304958 5.31291 26.5753
2162 1 3.70187 5.10183 26.7771
1153 1 5.32999 5.28019 25.1562
100 3 10.5094 5.16048 26.8051
2144 2 8.89374 5.32706 25.1695
3161 3 6.96079 5.19166 26.8676
1165 1 14.355 5.11428 26.7822
3152 2 12.7026 5.3188 24.9702
83 2 16.1221 5.34863 24.715
1349 2 17.8418 5.27503 26.4832
528 1 -0.0331567 6.99418 24.823
1154 2 1.66366 8.69367 24.6923
1664 3 1.62416 7.19468 26.7507
1649 1 0.343874 10.6354 25.0166
1646 3 3.6309 7.09168 25.0932
2165 1 -0.119893 8.78049 26.7397
2668 3 1.83392 10.6016 26.683
2655 1 3.6369 10.6641 25.014
3164 1 3.40825 8.94327 26.4746
2147 2 5.42081 8.90342 25.0184
2665 2 5.3038 7.17211 26.8718
3669 3 5.35738 10.9618 26.7416
530 1 10.7294 10.7001 25.2655
545 2 8.72835 10.708 26.8258
103 2 6.9125 8.93619 26.9552
1168 3 10.7961 8.88888 26.7324
2654 1 7.30967 7.15038 25.2263
3153 2 8.9564 8.90899 25.133
3666 2 9.06889 7.17474 26.9865
3652 2 7.00155 10.6845 24.8864
3649 2 10.5436 7.25522 25.034
529 3 14.2973 7.07264 24.9271
542 1 12.4708 6.85323 26.7233
86 3 12.4681 8.83006 25.1837
1670 1 12.6596 10.6439 26.8594
1652 2 14.2413 10.9342 25.0137
2168 3 14.2275 8.61409 26.8821
841 1 17.8432 6.93789 24.7897
1155 2 16.0514 8.91348 24.8635
1837 1 18.1399 10.6009 24.9547
1667 3 16.0969 6.89983 26.9066
2352 2 17.8969 8.69364 26.3424
2671 3 16.1688 10.8387 26.5835
106 3 3.41362 12.5151 26.8848
2150 3 1.92578 12.5714 25.0959
2656 2 -0.16502 14.4422 24.9548
3167 3 0.195871 12.7064 26.6182
3672 1 1.73759 14.5422 26.8971
3655 1 3.9355 14.3285 24.8361
548 3 5.3456 14.4651 26.7724
3154 2 5.34633 12.474 24.8694
531 2 6.99739 14.4689 24.8245
89 2 8.77095 12.5895 25.0495
1171 1 6.92505 12.536 26.6269
1673 3 8.74699 14.1627 26.714
1655 1 10.5443 14.1547 24.8928
2171 2 10.5318 12.362 27.0408
1156 2 12.5255 12.4625 24.8514
2674 1 12.2717 14.1675 26.6013
2657 3 14.3463 14.318 24.8733
3170 2 14.2874 12.5576 26.7907
2153 2 16.334 12.5046 24.9479
2531 2 17.7906 14.4445 24.967
3417 3 18.0749 12.6332 26.6985
3675 2 16.0456 14.2835 26.6286
109 3 0.0320053 16.1288 26.7808
1174 1 3.6065 16.218 26.7009
2776 1 -0.000230596 17.8475 25.0517
3155 3 1.90663 16.28 24.8603
3782 3 1.73988 17.9307 26.7462
3765 2 3.73532 18.0213 25.0415
721 2 5.42082 17.9177 26.7382
92 3 5.47451 16.1337 25.0216
714 2 7.21437 17.8244 25.0448
1157 3 8.95254 16.0938 24.9993
1515 3 10.6906 17.8046 24.8245
1533 3 8.81753 17.9348 26.858
2174 1 7.16738 15.9549 26.8352
3173 3 10.5977 15.9148 26.6417
112 3 14.1084 16.1998 27.0236
2156 1 12.5468 16.0163 25.2411
2784 3 12.4751 17.8748 26.7237
2777 3 14.2792 17.8482 24.8661
359 2 17.8356 16.0774 26.6988
2963 1 17.909 17.7272 24.9552