ITEM: TIMESTEP
5000
ITEM: NUMBER OF ATOMS
4000
ITEM: BOX BOUNDS pp pp pp
-2.6187574525447843e-02 3.5760247574525174e+01
-2.6187574525447843e-02 3.5760247574525174e+01
-2.6187574525447843e-02 3.5760247574525174e+01
ITEM: ATOMS id type x y z
1 1 0.0870243 1.8522 2.04553
1563 2 -0.0378007 -0.173767 0.00303326
2064 3 2.01481 1.75664 0.22068
3561 1 1.76144 -0.129721 1.7781
564 3 3.75783 1.71737 1.92848
565 2 7.13923 2.04665 1.81041
1565 1 7.12024 0.054991 0.055967
2065 1 3.83121 -0.139089 0.0660163
3061 3 5.15616 1.96006 -0.234073
3562 2 5.57931 -0.00502111 1.79776
566 1 10.4656 1.93538 1.72319
1070 2 10.6552 -0.0812867 -0.0350472
3063 3 8.79866 0.0200811 1.85071
3062 2 8.85321 1.87258 -0.124439
567 1 14.3451 1.98227 1.75852
2566 1 14.1175 0.0974449 0.232435
3064 3 12.3547 1.62354 -0.0635861
3563 2 12.4904 -0.325739 1.73901
2 3 17.7748 0.0467099 0.11727
3 1 15.9274 -0.000441485 1.88466
3066 3 17.7955 1.70016 1.88776
3065 3 16.0618 1.85947 -0.202015
4 2 1.88182 5.29806 0.143925
5 1 1.90759 3.44207 2.01947
6 1 1.85569 6.96565 1.87456
1071 1 -0.0243194 5.23742 1.84349
3067 3 0.142461 3.52083 0.19618
3565 3 -0.118754 7.12458 0.144585
7 2 5.51193 5.33403 -0.15524
8 1 3.53997 6.98059 -0.0503804
1072 1 7.24594 5.33206 1.8082
1075 3 5.63691 6.98999 1.82897
1074 1 3.77099 5.47347 1.895
1567 3 7.16409 7.17488 -0.0723519
2570 2 6.99052 3.6978 -0.0589173
2569 3 3.76445 3.7346 0.175957
3569 2 5.4355 3.81473 1.81468
9 2 8.98579 5.37097 0.00785736
10 2 8.87691 3.66359 1.82723
1077 3 10.7647 7.08098 -0.0759924
1076 2 10.7868 5.27268 1.83957
1568 2 8.97869 7.30956 1.8442
3068 2 10.6678 3.44031 0.0686201
11 3 12.4143 5.316 -0.235117
12 2 14.2835 3.80679 -0.0406547
570 2 12.4598 3.34421 1.64165
1571 3 14.2695 7.02467 -0.0721229
1570 1 14.022 5.23676 1.90189
1569 2 12.6501 7.08711 1.65909
572 1 15.9232 3.79585 1.72708
1081 3 16.1874 7.25935 1.84312
1079 2 17.7551 5.44014 1.59296
1078 2 15.8251 5.38917 -0.079343
1573 1 17.6362 3.61713 -0.0589423
2070 3 17.8666 7.34993 0.170095
575 3 1.75599 10.744 1.65285
1082 2 1.82316 8.82185 0.0690635
1574 3 0.110753 8.73936 1.73283
3070 3 0.0506464 10.6614 0.0305108
576 3 3.22784 10.7957 -0.0944602
1085 3 5.25945 8.85023 -0.0214279
1083 3 5.22752 10.6903 1.56595
1577 3 7.3568 10.3629 -0.115261
1576 3 7.18101 9.12251 1.96117
1575 2 3.59309 8.56744 1.73237
14 1 10.7186 10.7535 0.0405196
1087 3 9.01345 10.759 1.66591
1086 3 9.13215 8.71949 -0.0198772
2071 2 10.8834 8.9186 1.68773
580 2 12.76 10.6454 1.63249
1088 3 14.3463 10.4956 -0.171506
2073 2 12.5049 8.73812 -0.0294314
2074 2 14.2602 8.97696 1.76642
15 3 18.0255 9.29427 1.95176
1581 3 16.1992 10.6336 1.82658
2076 1 17.9009 10.8267 0.0749479
2075 2 16.0128 8.91585 0.132844
2079 2 1.63479 12.6659 -0.208106
2078 2 1.6942 14.3354 1.75133
2077 3 -0.0381154 12.4106 1.84435
2572 1 -0.0767299 14.351 -0.0759415
2082 1 5.2828 14.2895 1.7305
2081 2 3.53462 12.5067 1.79824
2080 3 5.2537 12.4846 -0.0185136
2576 2 6.99431 14.188 0.0111758
2575 2 6.97141 12.4729 1.61923
3071 1 3.50285 14.2577 0.209112
1583 1 9.00253 14.0152 1.57549
2084 2 10.6519 14.3099 -0.12773
2579 2 10.8097 12.5175 1.55587
3073 1 8.68143 12.5376 -0.0809797
2085 3 12.4945 14.2264 1.69395
2580 1 14.4613 12.5271 1.89233
3074 1 12.6912 12.6499 -0.17129
3574 2 14.4342 14.212 -0.131256
581 1 17.878 12.4792 2.04052
1089 2 18.2159 14.2301 0.018594
2583 1 16.2073 14.237 1.69751
3075 1 16.4297 12.5783 -0.00713284
16 3 -0.235486 17.8267 0.25936
2086 3 1.76121 17.6348 1.94011
2584 2 -0.192321 15.9827 1.67448
3076 1 1.93445 16.1844 0.154651
17 3 5.39664 16.1761 0.12371
1090 1 3.50885 17.7307 0.00395523
2585 3 7.01285 17.9144 0.204561
3079 1 5.44833 17.5093 2.06803
3078 1 7.23651 15.6334 1.83245
3077 3 3.61271 16.1371 1.88347
18 2 8.94932 16.0798 0.112729
1585 1 10.4672 17.8425 -0.0710183
3080 2 10.8345 15.9111 1.53188
3578 1 8.81687 18.0036 1.76328
19 1 12.7335 16.018 -0.0393436
2088 3 14.5679 17.7767 0.0622844
3081 1 14.1087 16.0464 1.96086
3581 3 12.4794 17.7943 1.43267
20 2 16.1852 15.7592 -0.00899929
1586 3 17.8828 16.216 1.48752
3083 2 16.4574 18.1266 1.7043
3082 1 18.178 17.9159 -0.22524
584 2 1.60893 1.86471 7.25349
1564 1 0.15356 0.082372 3.37643
2588 1 1.95121 0.159432 5.29543
2563 1 1.8775 1.7078 3.70449
3084 3 0.0312019 -0.151874 7.10604
3583 1 -0.0400169 1.71418 5.48371
22 3 5.09677 1.93991 7.32194
1069 3 3.78249 -0.0969959 3.50718
1566 3 7.26774 0.0143435 3.58858
2089 2 5.48678 -0.131436 5.29541
2590 3 3.42723 -0.0322625 7.13381
2564 2 5.48391 1.82479 3.603
3085 2 7.14396 -0.12511 7.12323
3585 1 3.84583 1.95142 5.33468
3584 1 6.76371 1.57892 5.62323
586 2 8.77159 1.80421 7.17233
2066 2 10.498 0.0647965 3.81742
2593 1 8.93454 -0.155422 5.34686
2565 1 8.84178 1.72862 3.90902
3086 3 10.9924 -0.255753 7.26697
3586 1 10.8077 1.63931 5.50721
23 3 12.3969 1.75061 6.97141
24 2 14.1443 0.134889 7.15604
25 3 14.2952 1.55846 5.20911
2568 1 14.087 -0.128394 3.24949
2567 3 12.4231 1.74963 3.4114
3087 2 12.5055 0.00971381 5.29982
568 3 17.9967 -0.182338 3.4517
588 2 16.1417 1.55453 7.14875
1587 2 17.8693 -0.114806 6.98462
3088 1 16.09 -0.0411623 5.35396
3588 2 17.8066 1.74194 5.4063
3564 2 16.0996 1.76054 3.58499
27 3 1.63037 5.22813 6.94986
28 1 1.89848 7.26531 5.07346
589 3 -0.0351787 5.36229 5.3659
2067 2 -0.16682 3.62227 3.35333
3090 1 1.65504 3.65034 5.35489
3590 3 -0.00848979 7.15307 7.25075
3589 1 -0.0296838 3.53559 7.06879
3567 2 -0.103089 7.00409 3.46647
3566 2 1.79914 5.07807 3.63745
29 1 3.20809 3.58521 6.67377
593 3 3.6048 6.93896 7.11215
592 3 6.93609 5.52073 5.33734
591 3 7.12857 7.06798 7.13514
590 1 3.80261 5.51519 5.31799
1095 1 5.35942 5.24089 7.45544
1094 2 5.40128 7.25108 5.37343
1073 2 3.52788 6.98787 3.4992
2068 2 7.09339 7.32996 3.63448
2069 3 3.79494 3.7941 3.67113
3593 1 5.33121 3.67691 5.54048
3592 3 7.04433 3.60979 7.16794
3570 1 5.47922 5.56499 3.65485
3568 1 7.24783 3.52091 3.62041
31 1 8.77405 3.65013 5.21815
569 1 10.6323 7.15077 3.37073
594 1 10.6329 5.2621 5.42227
1097 3 8.9507 5.28295 7.33423
1590 1 9.06901 7.08321 5.26636
1589 2 10.9246 7.01952 7.07422
3594 2 10.5112 3.42358 7.23529
3572 3 10.6916 3.59326 3.8169
3571 1 8.99986 5.4067 3.37871
33 3 12.5363 3.61473 5.41014
35 3 14.5882 3.44281 7.07153
571 3 12.29 5.2343 3.575
595 3 14.4393 7.11728 7.09625
1100 3 14.3803 5.36259 5.4072
1099 1 12.3788 5.26097 7.48622
1592 1 12.554 7.11097 5.15913
1572 1 14.2397 7.25531 3.47461
3069 3 14.2091 3.37632 3.55949
573 2 16.1376 5.28229 3.67989
1080 3 17.8535 3.60541 3.60533
1595 1 16.0946 7.15329 5.07347
1594 2 15.9481 5.45884 7.20384
2094 1 17.7184 7.27379 7.05348
2092 2 17.7234 3.42229 7.0648
2571 1 17.9881 7.19128 3.57918
3092 1 17.8105 5.49299 5.65151
3595 3 16.0796 3.50766 5.31955
13 2 -0.00557218 10.5935 3.499
597 3 0.26628 10.85 7.12568
596 2 2.18151 10.7916 5.17653
574 3 1.72555 9.01643 3.56623
1102 2 1.68816 9.0055 7.15847
1101 2 0.00830742 8.86675 5.24569
38 3 3.40361 10.8096 7.12157
578 2 3.58001 10.767 3.38705
577 2 5.12267 9.05616 3.56941
1106 3 7.11027 10.8106 7.25329
1104 3 5.55044 10.8551 5.37847
1103 3 3.47672 8.96952 5.72932
1084 1 6.71391 10.9901 3.57116
1597 2 7.13359 8.98016 5.49077
1596 2 5.17685 9.06204 7.13343
39 1 10.657 10.7808 7.05088
599 3 9.01916 10.9541 5.27035
579 3 10.9186 10.9125 3.10855
1107 3 8.84038 8.98733 6.89629
1578 1 9.15482 9.09168 3.89437
2097 2 10.787 8.66833 5.52927
1108 1 12.4364 10.6489 5.42097
1598 3 12.5587 8.70775 6.98921
1579 1 12.3355 9.04275 3.55611
2072 2 14.29 10.8222 3.50805
2099 3 14.3129 10.8294 6.97121
2098 1 14.1621 8.85981 5.14444
1599 3 15.9023 8.83465 6.96947
1580 3 16.0275 9.06757 3.6051
2100 1 16.0917 10.9014 5.40226
3093 2 17.9199 10.6991 7.14967
3597 2 17.8826 8.76648 5.23996
3573 2 17.9101 10.8878 3.76
1110 3 -0.108921 14.4112 6.94146
1582 1 1.72054 12.5732 3.52801
2103 1 1.84704 12.7826 6.92707
2102 1 1.82378 14.2434 5.23941
2101 1 0.0312117 12.5571 5.10965
2573 3 -0.000184736 14.3799 3.44342
1112 3 7.22329 14.4295 6.92375
1600 3 5.50113 12.5505 7.14579
2104 2 5.42094 14.2946 5.27831
2083 3 3.55572 14.6412 3.53383
2601 1 7.29353 12.4452 5.34053
2600 2 3.64 12.7058 5.27368
2599 1 3.50858 14.359 7.11373
2577 3 7.23733 14.0207 3.59885
2574 2 5.25076 12.6458 3.43729
2604 3 9.00192 14.4133 5.09224
2603 2 10.7071 14.5894 7.27121
2602 3 10.8005 12.6861 5.20732
2578 3 8.90176 12.3844 3.33997
3097 3 9.30024 12.8185 7.0958
3072 2 10.6644 14.3099 3.48241
602 1 14.1216 14.336 7.18635
1603 2 12.3925 12.7668 6.98103
2605 1 14.1925 12.6973 5.22139
2581 2 12.6555 12.5184 3.49018
3098 2 12.5378 14.3607 4.96455
3575 2 14.346 14.4813 3.60297
1114 3 17.8964 13.012 5.34735
1584 1 17.9642 14.3036 3.4486
2582 2 16.2252 12.5165 3.75034
3100 2 16.0256 14.6349 5.3878
3099 3 16.1258 12.7493 7.05593
3599 1 17.8875 14.5689 7.14756
582 1 -0.0878772 17.6001 3.63902
1605 2 1.65016 17.9973 5.12189
1604 2 1.82756 16.0391 6.92433
3104 1 -0.00707546 16.2264 5.39795
3103 2 -0.249388 18.0947 6.90243
3576 2 1.68307 16.1833 3.61854
2087 1 3.57681 17.963 3.72449
2607 2 5.21547 18.0727 5.30563
2586 2 7.30563 17.97 3.5595
3107 1 7.06061 17.8825 7.01804
3106 1 5.38124 16.2884 7.03599
3105 2 3.57224 17.7339 7.15202
3602 2 3.74672 16.1913 5.1807
3601 3 7.14975 16.0827 5.17935
3577 1 5.63073 16.0063 3.48852
1091 1 10.6385 17.8641 3.2525
2107 2 8.97743 16.0907 7.14883
2608 2 8.88339 17.9294 5.29088
3109 2 10.6614 17.8865 7.07139
3603 3 10.6414 16.1342 5.09631
3579 1 8.97884 16.2311 3.3545
41 2 14.0514 16.1336 5.35181
2610 1 12.3501 17.8877 5.2959
2609 1 14.347 17.955 6.915
2587 2 14.3352 17.8015 3.72744
3604 1 12.4731 15.9489 6.95122
3580 1 12.5167 16.2437 3.38309
583 2 16.2484 16.0246 3.57539
1606 1 17.801 17.903 6.97367
2109 3 16.0552 16.194 7.13614
3112 3 16.2282 17.9822 5.23814
3110 3 17.9781 16.293 5.1435
3582 1 18.1607 18.0008 3.31228
21 1 0.158195 1.8749 9.04874
604 2 -0.0174503 -0.042405 10.7281
2110 1 1.77309 1.82621 10.7146
2589 3 1.83112 0.189946 8.97451
585 2 7.11372 1.63085 8.91032
1092 2 5.39659 -0.0749574 8.95365
1608 3 7.27075 -0.157748 10.819
1607 1 3.80568 -0.313247 10.4982
2111 3 5.32119 1.70157 10.6907
2591 3 3.49723 2.02717 9.06539
1116 3 10.4144 0.0495001 10.4554
2612 2 8.81609 1.86239 10.7993
2592 1 10.7151 1.91394 8.76085
3587 1 9.00529 -0.162235 8.62401
587 1 13.9892 1.7881 8.87353
1609 3 14.485 0.0694185 10.7424
2090 1 12.4946 -0.0591987 9.03276
2613 3 12.4192 1.84415 10.8893
26 3 16.2447 0.0651188 8.96143
2594 1 17.8829 1.6947 8.97058
3116 1 16.2885 1.62978 10.9017
3115 1 18.1737 -0.116495 10.7092
1093 2 1.90613 6.88879 8.76669
2091 2 1.56313 3.60533 8.97902
2615 1 0.135487 3.23753 10.6554
3118 3 -0.0087833 7.11305 10.6287
3117 1 1.83907 5.40966 10.6169
3089 1 -0.0531432 5.40005 8.90508
30 1 5.411 3.47753 9.0799
45 2 6.96045 7.18509 10.4935
1096 1 3.41269 5.12709 8.84334
2112 2 6.87685 3.45608 10.8869
2616 2 3.78515 3.6998 10.8454
3091 2 7.18746 5.31438 8.99117
3608 2 3.42288 7.0213 10.7639
3607 1 4.99942 5.57347 10.5707
3591 1 5.32313 7.19203 8.91002
46 3 10.6408 7.22515 10.518
1098 1 10.465 5.28664 8.92634
1591 1 8.67729 3.54214 9.25671
1588 1 8.65705 7.29813 8.91759
2113 1 10.6586 3.77899 10.7361
3609 3 8.791 5.58063 10.8236
32 3 12.5468 7.18025 9.00299
34 2 12.4579 3.40891 9.02664
36 3 14.2877 5.29407 8.9947
609 2 14.2203 7.37321 10.7089
3119 1 14.4416 3.55229 10.9327
3611 3 12.2373 5.43244 10.5191
1120 1 17.8625 3.46102 10.7614
1615 3 17.8239 7.14527 10.6941
1593 3 17.7556 5.33686 8.99937
2093 2 16.0068 7.12563 9.02313
2595 2 16.0585 3.40086 9.06697
3612 3 16.1254 5.51001 10.8098
48 2 1.94063 8.60234 10.4552
2095 2 0.043395 8.81039 8.96208
2596 1 1.9002 10.7676 8.98682
3120 2 -0.148073 10.8759 10.6515
37 1 3.52132 8.8663 8.82084
49 2 5.0758 9.20755 10.6244
612 3 7.0902 10.8676 10.6906
1105 3 4.92236 10.855 9.00294
2096 3 6.9455 9.06232 8.86412
3121 1 3.39313 10.8844 10.6963
613 3 8.80739 8.67601 10.715
598 1 10.5131 8.90658 8.92028
3613 1 10.2923 10.6428 10.6196
3596 1 9.03542 10.8814 8.84894
50 3 14.454 10.567 10.4176
614 1 12.7171 9.24392 10.5827
2598 1 12.2054 10.633 8.74307
2597 2 14.3474 8.72991 8.80323
51 2 17.8173 10.6205 10.7134
600 2 17.7698 9.00743 8.89698
1122 3 16.1068 8.83616 10.6641
1109 1 16.235 10.8678 8.8262
616 2 -0.144067 14.471 10.6143
601 1 -0.181433 12.6434 9.05104
1123 2 1.55167 12.6583 10.5364
3094 3 1.65303 14.4337 8.59439
1124 1 5.48195 12.6462 10.922
1111 3 5.62946 14.3873 8.917
1619 3 7.30894 14.2243 10.7401
1618 3 3.40464 14.34 10.8431
1601 3 7.20152 12.5925 8.84942
3095 3 3.66218 12.7954 8.9676
617 1 10.6501 14.3296 10.7235
1125 2 8.87802 12.7172 10.4526
3096 1 8.74459 14.4516 8.85091
3598 3 10.8735 12.7785 8.926
1126 1 13.883 14.0029 10.6728
1113 2 12.4585 14.4936 8.95634
1620 2 12.3335 12.2224 10.7651
1602 3 14.1358 12.3379 8.96272
1621 1 15.9808 12.6001 10.6841
3126 1 17.8631 14.2942 10.8941
3102 3 16.1626 14.3803 9.10666
3101 3 17.7992 12.7199 8.80979
1623 2 -0.15219 17.7845 10.5787
2119 2 1.67856 16.0487 10.5911
2606 1 2.00611 17.8696 9.0013
3600 3 0.143669 16.2023 8.76581
40 3 7.10417 16.1133 8.89753
619 2 3.61062 17.8229 10.6071
1127 1 7.18533 17.7783 10.536
2120 3 5.38955 15.9549 10.8813
2106 1 3.72165 15.7713 8.88853
2105 3 5.22489 17.8549 8.92478
1624 2 10.7039 17.9342 10.5618
2108 2 10.8225 16.1592 8.90857
2625 3 9.04623 16.1234 10.7595
3108 2 8.78261 17.724 9.06512
603 1 14.1023 16.1432 8.89181
1115 3 12.4444 18.0143 8.94628
2626 1 12.465 16.1648 10.5532
3620 1 14.3072 17.9377 10.6636
2628 1 15.7697 16.1157 10.5009
2611 1 17.99 16.3238 8.74259
3127 1 17.8287 17.7845 10.7483
3111 2 16.2523 17.9745 8.87443
42 2 0.00258296 1.54307 12.6275
2121 2 -0.168364 -0.0474309 14.3824
2629 3 1.67353 1.92995 14.1925
3113 3 1.76906 -0.0515559 12.3723
43 1 3.61773 1.95477 12.631
605 3 7.10988 1.82433 12.5186
1625 2 7.09679 -0.0338172 14.1923
2123 1 3.16524 -0.322885 14.4511
3128 3 5.19984 1.81219 14.1743
3605 1 5.24148 -0.0909231 12.7646
606 2 10.8304 1.8768 12.6486
1627 2 10.8046 -0.0872294 14.3877
3129 2 8.81949 1.68996 14.3006
3606 1 8.99303 -0.104411 12.544
1117 1 14.3934 1.89849 12.9845
2632 3 14.129 -0.0911484 14.4605
3131 2 12.6796 2.16303 14.4715
3114 2 12.4601 -0.14945 12.5761
44 2 16.2638 0.206178 12.5909
501 2 18.019 0.064103 14.3141
2614 3 17.9963 1.9235 12.5572
3132 2 16.2634 1.69658 14.4905
607 3 1.81143 3.47716 12.4149
1119 1 1.92859 7.49214 12.606
1118 3 -0.114359 5.70255 12.5622
2634 3 -0.130835 7.3936 14.2716
2633 2 0.195961 4.06909 14.2553
3624 1 1.57741 5.76314 14.1409
60 1 7.06656 7.09973 14.1667
608 2 5.2615 4.11089 12.6899
1612 1 7.18989 5.47058 12.3958
1611 1 5.3218 7.05276 12.4523
1610 2 3.43149 5.45243 12.644
2128 3 6.87167 3.89394 14.3895
2126 1 3.78043 3.79927 14.4022
3136 1 3.56959 7.2207 14.2785
3626 2 5.08283 5.51871 14.4052
1613 1 10.633 5.63752 12.7882
2114 3 8.62506 7.35608 12.5131
3137 3 10.8567 3.71971 14.3013
3629 2 8.66786 5.30021 14.3732
3628 2 10.4502 7.14991 14.3266
3610 3 9.02645 3.6634 12.6455
610 2 12.4749 3.87773 12.5093
1614 1 14.2074 5.67386 12.2574
2617 3 12.4161 7.27924 12.3407
3138 1 14.2929 3.8316 14.2286
3631 3 14.0197 7.37926 14.3379
3630 1 12.5518 5.62775 14.3364
47 2 18.0593 5.35163 12.4466
65 3 16.3084 5.48601 14.3524
1138 2 17.862 3.64245 14.381
1121 3 16.2043 3.59022 12.468
2618 3 15.9626 7.27547 12.7765
3140 2 17.8967 7.32235 13.9798
67 1 1.884 9.08535 14.2505
611 1 1.78363 10.5601 12.522
2115 2 -0.124945 9.10315 12.2834
2636 1 0.034898 10.4515 14.2989
69 1 6.92613 10.7402 14.332
70 2 5.36945 9.13373 14.272
1616 2 5.57364 10.9296 12.488
2116 2 3.74588 9.06432 12.4647
2619 1 6.8758 8.85575 12.3569
3633 2 3.57798 10.9022 14.2739
71 1 8.66282 9.02738 14.3731
2117 3 8.64923 10.6433 12.514
2620 2 10.4863 9.00852 12.3717
3141 2 10.4837 10.7694 14.1497
510 3 12.5429 8.97458 14.1001
1617 1 12.5827 10.6492 12.5553
3122 2 14.2088 9.19149 12.3673
3635 2 14.3735 10.868 14.2133
511 3 15.9639 9.047 14.245
615 3 17.9217 9.1136 12.4437
1639 3 17.8374 10.9359 14.454
2118 2 16.0384 10.7218 12.5061
513 3 0.144716 14.1406 14.3086
514 3 1.55106 12.211 14.2254
2621 1 -0.21727 12.486 12.6632
3123 2 1.58601 14.1097 12.3421
72 2 7.1321 14.4159 14.2855
515 2 5.27041 12.5843 14.4343
516 3 3.20496 14.3178 13.9137
3125 3 7.15295 12.5875 12.5073
3124 3 3.67621 12.3324 12.6223
3614 2 5.35622 14.2372 12.2833
73 3 10.6044 14.3352 14.297
1145 2 8.87104 12.6176 14.306
3616 3 10.5342 12.203 12.222
3615 3 9.10827 14.2977 12.6697
1147 3 11.9532 12.4761 14.0689
1146 2 14.0533 14.216 14.1097
2622 2 12.3224 14.0851 12.5075
3617 2 14.0116 12.638 12.5546
1149 2 15.9008 12.5133 13.9559
1622 3 17.9081 12.4815 12.6249
3146 1 17.8635 14.6059 14.1742
3618 3 15.9334 14.4909 12.4817
52 1 0.03369 15.9861 12.5388
518 1 -0.140936 17.7919 14.0878
1150 2 1.71465 16.1683 14.0384
2623 1 1.65482 17.8788 12.3234
53 3 3.32461 16.1803 12.4065
618 2 7.09136 16.1255 12.4657
1151 3 3.39121 17.9692 14.0914
1642 3 5.43452 15.9224 14.1553
2142 1 6.75311 17.8069 14.3105
2624 3 5.3052 18.0896 12.3916
54 2 10.7161 16.2872 12.4684
1643 3 8.68308 16.3466 14.3637
2649 2 10.5356 18.1935 14.3256
3619 2 9.00766 18.0212 12.689
55 2 12.3719 17.8737 12.5393
620 1 14.097 16.0666 12.3844
1646 3 12.3495 16.012 14.1138
1644 3 14.1699 17.9106 14.205
56 1 15.9386 17.7083 12.4296
1647 2 15.7256 15.9386 14.3351
2627 2 17.8443 16.0998 12.6267
3644 2 17.9337 18.0284 14.1571
57 1 1.68173 -0.0543941 16.2678
621 2 -0.132724 1.8028 15.791
1128 2 -0.277997 0.11612 17.8488
2122 2 1.77644 1.64782 18.1067
58 1 5.1995 0.0264296 15.7984
1132 1 7.11835 -0.00230307 17.7036
1131 3 7.02065 1.79516 15.9849
1130 2 3.55868 -0.320555 17.9744
1129 1 3.51063 1.72722 16.2301
2630 2 5.35431 1.50785 18.0127
1133 3 10.7803 1.76051 15.7418
1626 3 10.5782 0.0845748 17.8995
2631 2 8.92839 1.86357 17.8827
3621 2 8.82386 0.0173269 16.0823
59 3 12.4524 0.0202252 16.0124
1134 3 14.3906 1.94722 16.3263
2124 1 14.3782 0.0492615 17.9157
3130 3 12.672 1.97214 17.9805
502 3 16.1655 0.160936 16.1009
3133 2 16.2952 1.70061 17.8175
3623 3 18.1084 -0.135547 18.0133
3622 1 18.2583 1.58264 15.9782
503 2 2.04392 3.34866 16.0481
504 2 1.77552 7.26399 15.9829
1628 1 0.0549895 5.60134 16.1498
2125 1 0.16841 3.8349 17.8115
3134 2 -0.313697 7.2638 17.9771
3625 3 1.65474 5.62159 17.9439
61 1 5.08006 3.06751 16.2338
505 2 3.54969 7.08321 17.9205
1135 3 7.14462 7.15229 17.8886
1631 3 5.36398 7.19952 16.1025
1630 1 3.27639 5.48588 16.2152
1629 1 7.04689 5.56555 16.0291
2127 1 3.436 3.24789 17.9642
3135 3 6.92478 3.47136 17.9115
3627 3 5.12074 5.22815 17.8933
62 2 8.88263 5.28425 17.8864
63 1 10.3914 7.07513 17.7732
506 3 8.84603 3.82691 16.1363
1632 1 10.4692 5.49551 16.2244
2129 2 8.66649 7.1977 15.9662
2635 3 10.6905 3.79097 17.7534
64 2 12.5093 5.61786 17.8154
1137 2 14.545 6.99291 17.621
1136 3 12.3628 3.73256 16.0575
2131 1 14.2666 5.22161 15.9606
2130 3 12.3827 7.07324 16.2734
3139 1 14.4062 3.91079 17.8514
66 3 18.1111 5.47297 15.9307
507 1 16.455 5.39416 17.7459
1140 3 18.0762 3.63203 17.8114
1139 3 16.2574 3.5297 16.128
1634 1 17.9794 7.3371 17.8039
1633 1 16.179 7.11659 16.0586
508 3 1.91917 9.18105 17.8234
1141 3 1.58517 10.874 16.0889
2132 2 -0.045557 9.0446 16.192
3632 1 -0.170307 10.8678 17.8569
68 1 3.7937 10.7936 18.1456
509 1 7.00576 10.7144 17.9922
1142 3 5.3015 8.80622 18.0082
1635 1 5.59409 10.8012 16.0451
2134 1 7.10603 8.81151 15.9929
2133 3 3.60105 9.16462 16.0022
1143 2 8.79881 8.87432 17.6746
1636 2 8.8487 10.8384 16.0523
2637 3 10.6433 9.05678 16.3966
3634 3 10.58 10.8511 17.9343
1144 3 12.2993 10.8807 15.8747
1638 3 12.5108 9.1922 17.8981
1637 2 14.1396 10.8629 17.7863
2638 2 14.2726 9.10194 16.1432
512 3 17.8193 9.10182 16.1437
1640 2 15.8794 9.28941 17.7636
2135 2 15.8665 10.9022 16.0119
2639 2 17.7149 10.9078 17.7252
2137 2 -0.0681454 14.3964 17.7426
2136 2 1.71536 12.4752 17.931
2641 2 1.81782 14.4139 15.9724
2640 3 -0.148057 12.3941 16.1502
2140 1 7.24919 14.4775 17.8319
2139 1 3.71961 14.3334 17.919
2138 1 5.35884 12.5637 17.8441
2643 2 5.34519 14.1643 16.196
2642 3 3.52746 12.7391 16.1234
3142 2 7.06819 12.7078 16.1453
2141 2 8.72267 14.3426 15.912
2645 1 8.69787 12.5406 17.8235
2644 2 10.6429 14.2082 17.7756
3143 2 10.4678 12.6226 16.1288
2647 3 12.3751 14.0728 16.1668
2646 2 12.2329 12.4705 17.9072
3145 3 14.2601 14.2994 18.0099
3144 3 14.0816 12.3514 16.088
517 1 17.859 14.2008 17.5634
1148 1 17.5044 12.7011 16.1173
3148 1 15.6441 14.2219 15.8502
3147 1 16.025 12.665 17.7456
2648 1 1.92491 17.8195 15.9699
3150 1 1.98547 16.0062 17.7755
3149 3 0.133249 16.2735 15.8026
3636 1 0.383702 17.5499 17.6862
1641 2 3.62625 17.9716 17.8318
2143 2 7.01036 17.8916 17.6866
3640 1 5.16938 18.0132 16.0325
3639 2 6.82704 16.2318 15.9277
3638 2 5.34841 16.1636 17.8038
3637 3 3.53765 15.9346 15.9858
74 1 8.92988 17.9642 16.0484
519 1 10.3724 17.835 17.6967
3642 2 8.83892 15.9796 17.7065
3641 2 10.5456 16.0994 16.143
75 2 12.0603 16.1594 17.965
76 2 12.4338 17.7158 16.119
1645 1 14.0139 18.1635 17.939
3643 1 13.8385 16.0482 16.2265
77 2 15.6085 16.11 17.6065
2144 1 17.5927 16.1134 15.9516
2650 2 17.5844 17.7522 17.6317
3645 3 15.8494 17.7795 15.9773
520 2 -0.0302577 -0.0497296 21.7416
78 3 -0.208065 1.89013 19.423
2145 1 1.60267 1.83634 21.3403
3151 1 1.43367 -0.0706913 19.6409
521 1 3.42683 -0.202564 21.3976
80 1 3.65123 1.61092 19.7393
79 1 6.96199 1.84356 19.7367
2147 1 5.39354 1.92507 21.8684
2146 3 7.27216 -0.156992 21.4613
2651 3 5.52532 -0.0797174 19.8552
81 1 10.5074 1.99128 19.5456
1648 1 10.8248 0.154096 21.5891
2652 1 9.05361 1.90135 21.4084
3152 1 8.82179 0.0464634 19.4749
522 2 14.2623 1.75086 19.7134
1649 1 14.1685 -0.0479351 21.4283
2653 3 12.4309 1.77252 21.6972
3646 3 12.2962 0.0405533 19.8159
82 1 17.7897 0.121242 21.3661
2654 2 17.6709 1.71386 19.7645
3153 3 16.0509 1.92805 21.4783
3647 2 15.9634 0.126142 19.7131
523 3 -0.104216 5.33146 19.5732
84 1 1.66961 7.04171 19.7067
83 1 0.107532 7.22619 21.401
1650 1 -0.256871 3.80822 21.55
3155 2 1.6633 5.27426 21.4741
3154 1 1.54246 3.40025 19.8428
524 2 3.396 5.30758 19.6607
525 3 7.14117 5.34633 19.3684
526 1 3.41965 6.98259 21.4737
1153 2 7.11311 6.93792 21.7399
1152 1 5.21299 7.17336 19.6309
2655 3 3.5903 3.62895 21.3931
3156 2 7.17743 3.63742 21.4637
3649 3 5.26787 3.47075 19.7236
3648 2 5.38048 5.29252 21.4291
86 1 10.5674 7.286 21.2941
85 2 8.8653 3.46786 19.7362
1155 1 10.8673 5.16262 19.4767
1154 3 8.78431 7.15221 19.929
2656 3 10.6431 3.87556 21.3636
3650 2 8.7829 5.35903 21.398
527 3 12.4676 7.27631 19.4851
88 3 12.1355 5.675 21.5122
87 2 12.4096 3.62705 19.5763
1156 1 14.2673 5.59814 19.3875
2148 3 14.1516 7.15331 21.3214
2657 1 14.1273 3.40845 21.3242
528 3 17.9332 3.5391 21.3755
89 2 16.0173 5.28442 21.4815
1157 1 16.0062 7.00428 19.6454
3158 2 17.9745 5.2122 19.6219
3157 3 17.7843 7.05795 21.0912
3651 3 15.9804 3.50325 19.7243
529 3 1.7343 9.34324 21.7503
530 2 1.86659 10.8739 19.5544
1158 2 0.18248 9.03926 19.8662
3652 2 -0.0119602 10.804 21.5699
531 3 5.03092 8.97756 21.5023
532 2 5.28919 10.7168 19.8397
533 2 7.23978 10.5428 21.4652
1159 3 3.32661 9.00464 19.761
1651 2 6.85575 8.84109 19.9074
3653 3 3.5078 10.8646 21.3725
90 3 9.00863 10.566 19.7641
1161 1 8.6799 8.8013 21.6676
1160 2 10.653 10.676 21.597
1652 2 10.5962 8.81705 19.517
534 3 12.1148 10.794 19.5817
1162 2 12.3898 8.91745 21.2846
1654 2 14.1284 10.8152 21.3371
1653 3 14.2009 8.95652 19.4626
1656 1 15.6781 10.9696 19.6605
1655 3 15.7403 8.97235 21.3936
3159 1 17.5772 10.7585 21.2513
3654 3 17.8095 9.11114 19.5454
1660 2 -0.0666974 14.3792 21.5185
1659 2 1.8885 14.3831 19.5986
1658 2 1.70562 12.6935 21.2692
1657 1 -0.173364 12.6926 19.553
1163 2 5.50463 14.6325 19.6134
1661 2 3.82827 14.2432 21.6238
2151 3 7.25652 12.4176 19.634
2150 2 5.34002 12.623 21.5143
2149 3 3.56099 12.5907 19.8105
3160 1 7.03157 14.1947 21.2682
1662 2 8.81615 14.1571 19.6186
2153 3 9.12384 12.1532 21.3356
2152 1 10.6358 12.4392 19.7493
2658 2 10.3852 14.1312 21.2732
2155 2 14.0122 12.4281 19.6704
2154 3 12.3703 14.5113 19.6415
2660 3 14.1148 14.209 21.4291
2659 2 12.3771 12.7596 21.3445
535 2 17.5626 12.3628 19.4568
1164 1 17.6271 14.2545 21.3819
2156 2 16.1547 14.3923 19.5971
2661 3 15.9879 12.587 21.2033
1165 1 -0.127133 17.5486 21.6838
2157 1 1.5885 17.6268 19.3926
2662 3 -0.239571 15.7549 19.5971
3161 1 1.53077 15.953 21.2729
1664 2 7.08528 18.0869 21.1607
1663 1 3.34961 17.5699 21.3792
2664 2 3.67749 16.0931 19.4722
2663 2 7.34072 16.4558 19.7416
3163 2 5.23802 16.4288 21.2642
3162 1 5.3499 17.609 19.4723
536 3 10.4854 17.9315 21.3029
2665 2 10.2075 16.3377 19.5943
3164 1 8.72591 18.3365 19.672
3655 2 8.93656 16.3339 21.4368
2666 1 12.2458 17.6241 19.6477
3166 3 14.0692 16.0816 19.6859
3165 2 14.5123 17.7783 21.2525
3656 3 12.1835 15.9281 21.4047
92 3 16.1133 15.9517 21.5217
91 2 18.2076 18.0605 21.4902
1166 3 17.6981 15.9171 19.2995
3167 2 15.9843 18.0158 19.7166
93 2 1.7346 1.86412 25.2105
1665 1 1.79652 0.0932239 23.2428
2667 3 -0.0134281 0.107904 25.1094
3168 3 0.0667843 2.05739 23.4527
2158 1 5.48168 -0.099251 23.2517
2670 2 3.60948 0.0918467 25.2443
3170 3 7.25516 2.12815 23.2661
3169 3 3.56433 1.8578 22.9365
3659 3 7.23445 -0.112443 24.9614
3658 2 5.22075 1.72308 25.1844
537 1 8.94629 1.64459 25.1116
2671 3 8.97619 0.132105 23.0021
3171 2 10.8484 -0.10087 25.1703
3660 1 10.6581 1.95267 23.6493
2673 2 12.3486 0.000107794 23.3661
3663 3 14.4125 1.7573 23.3885
3662 3 14.2988 0.0510719 25.1924
3661 2 12.7331 1.936 24.9229
539 1 16.1753 1.7978 25.0839
1167 3 18.0777 -0.119734 25.3242
1668 3 17.9047 1.87762 23.4451
2160 1 15.9948 0.0154211 23.3853
99 1 1.69923 5.1073 25.3143
98 1 1.94633 7.00354 23.4855
97 2 0.127977 7.25902 25.2692
96 3 0.0576601 5.40128 23.1964
3173 1 1.76195 3.69261 23.134
3172 3 -0.220755 3.52921 25.0573
540 2 3.51707 6.93637 25.0109
541 1 5.04473 6.96695 23.4692
542 1 6.99956 5.50252 23.2964
543 3 5.24366 5.29268 25.0142
101 1 6.91809 7.11839 25.2021
100 1 3.60042 5.12663 23.4044
2675 2 7.06411 3.59598 24.8366
3175 3 3.57095 3.39764 25.1847
3665 1 5.27669 3.71985 23.1333
546 2 8.70797 7.0836 23.3766
547 2 8.86076 5.55353 25.2123
102 1 10.5188 5.3247 23.3766
1170 3 10.6763 7.28738 25.0438
3177 2 10.6291 3.68127 25.1903
3666 2 9.11691 3.59171 23.1959
548 2 14.1922 5.34167 23.2315
549 2 12.5054 5.29547 25.159
105 3 14.1641 3.60908 24.906
1670 1 12.3026 7.22944 23.2943
3179 2 12.3087 3.67926 23.2823
3667 3 14.344 7.15449 24.9247
1172 2 15.9777 5.31309 24.93
1672 3 17.9635 3.48513 25.0675
1671 3 16.0868 7.02891 22.9916
2678 1 17.7221 7.05885 24.99
2677 1 17.5945 5.28093 23.2587
3668 3 16.0033 3.40961 23.3912
550 2 0.00810357 8.91717 23.124
106 1 1.70104 10.886 23.3235
1175 3 1.80176 8.96294 24.9937
3669 2 0.183246 10.7483 24.94
108 3 5.39394 10.8407 23.0066
1180 3 6.96645 10.8453 25.0481
1178 3 6.78841 8.92071 23.2726
1177 3 3.63943 9.02353 23.3808
1176 1 5.26537 8.93248 25.366
3670 2 3.32793 10.8739 25.0879
551 1 10.8867 10.8917 24.8599
552 3 8.89082 10.7769 23.6084
1181 1 8.51301 8.82879 25.0407
1674 1 10.7272 8.9978 23.3821
1182 1 12.4577 10.8021 23.1396
1676 2 12.4148 9.11702 24.8444
1675 3 14.1204 8.77647 23.2847
2163 1 14.2365 11.0598 24.921
1183 2 15.9208 9.16904 24.8768
1677 2 15.7313 10.8042 23.0093
2165 1 17.5717 10.6696 25.0555
3671 3 17.7167 8.8552 23.0251
555 2 0.0591897 14.3452 25.0248
1184 1 1.8145 14.0537 23.0501
1678 3 1.48083 12.5789 25.1228
2166 1 -0.0962792 12.6106 23.0675
113 1 6.7549 14.1091 25.2774
1185 1 5.15564 12.2366 25.0266
2170 3 5.41162 14.5851 23.1624
2169 2 3.59363 12.5144 23.1083
2168 1 3.78423 14.052 24.8605
2167 2 7.12013 12.7009 23.2419
1680 2 10.5666 14.4242 25.0342
2171 1 10.6677 12.7713 23.0597
2682 1 8.54161 14.5661 23.4095
2681 3 8.71755 12.6684 25.1272
114 3 13.9338 14.3535 25.0542
1681 2 12.4313 12.7192 24.9149
2684 2 14.3476 12.7277 23.1216
2683 3 12.2738 14.1678 23.0787
557 1 17.5453 12.4166 23.0196
2173 1 16.0814 14.3915 23.2885
2685 2 16.1628 12.6015 24.9121
3183 3 18.0406 14.201 24.9651
1684 3 1.77243 15.795 24.8798
1683 1 1.92966 17.6891 23.0205
2688 3 -0.344637 16.0561 23.2308
2687 3 -0.231725 17.9378 24.8405
2175 3 6.90942 18.0321 25.1759
2174 1 5.24495 18.0409 23.2119
2689 2 3.66139 17.8539 24.9262
3187 1 5.58438 15.9433 25.0343
3186 3 6.98588 16.2151 22.9076
3185 3 3.56737 16.1679 23.3701
1687 2 8.82986 17.8007 23.1359
1686 1 8.6651 16.3001 24.8889
2177 1 10.6306 18.0276 24.7971
3675 2 10.5089 15.8335 23.3156
2178 2 14.1713 17.6546 25.0257
2690 3 12.4508 17.6197 23.4247
3188 1 12.3066 16.1644 25.183
3676 2 14.1174 15.8124 23.4034
1187 2 17.7911 15.9053 23.0822
1186 2 18.0426 17.5386 24.8948
1689 2 16.1751 16.1443 24.8155
3189 3 16.1003 17.6861 23.0825
1188 2 -0.052113 -0.117938 28.6696
2180 2 1.72004 1.63635 28.7999
2668 3 1.8066 -0.062018 26.8335
3657 3 -0.231613 1.69988 26.8592
559 1 6.99433 -0.0412746 28.6553
94 1 7.31243 2.01117 26.8352
1189 2 3.53097 -0.204304 28.5949
1666 2 5.51931 0.077987 26.9194
2181 3 5.49363 1.79672 28.8719
2669 1 3.69772 1.62642 27.0201
560 2 10.789 -0.202804 28.5049
95 1 8.88865 -0.245162 26.8585
2182 3 9.04316 1.5401 28.4464
2672 2 10.7936 1.57317 26.6725
538 1 14.2586 1.78888 26.8259
1667 2 12.7791 0.00817788 26.7504
2184 1 12.4367 1.80791 28.3418
2183 2 14.3751 0.254329 28.7658
2159 3 18.0084 1.70277 26.8709
3193 3 16.326 1.46168 28.6767
3679 1 17.9464 -0.162336 28.4456
3664 1 16.1103 -0.0592334 26.7185
1168 3 1.63283 3.53098 26.8495
1669 2 2.27274 6.97353 26.9783
2186 3 0.0637064 6.84168 28.5892
2185 3 0.016794 3.55318 28.7243
2674 3 -0.28492 5.23531 26.8038
3194 1 1.90965 5.29987 28.6441
544 1 3.67285 5.18641 26.7802
563 3 6.96767 7.03475 28.4119
1691 1 7.25929 3.61792 28.8845
1690 3 3.62146 3.4733 28.6236
2676 3 7.00688 5.01792 27.0148
3196 3 3.4922 7.00425 28.8528
3195 2 5.20777 5.19377 28.8827
3176 2 5.42809 3.33589 26.9372
3174 3 5.09892 6.90031 26.7673
545 3 10.7479 5.62149 27.0185
1171 3 9.01615 3.71912 26.8299
1169 3 8.66496 7.13495 26.7403
2694 2 10.6996 3.45208 28.4135
3197 1 8.90567 5.48053 28.4836
3681 3 10.7145 7.2567 28.7294
104 1 12.5399 3.60057 26.573
103 2 14.1553 5.2134 26.8241
2695 3 14.3001 3.31767 28.5159
3178 3 12.5543 7.04456 26.7873
3684 2 14.1816 7.07373 28.5212
3683 1 12.4899 5.34432 28.4921
622 2 17.9779 3.28177 28.6261
1004 3 18.0136 6.70255 28.593
1174 3 15.9852 7.09802 26.8848
1173 2 17.9883 5.27501 26.7475
3180 2 16.3363 3.30732 26.8814
3685 3 16.0166 4.99534 28.5126
1673 3 0.130613 8.6319 27.0866