ITEM: TIMESTEP
5000
ITEM: NUMBER OF ATOMS
4000
ITEM: BOX BOUNDS pp pp pp
8.1914214891188664e-02 3.5652145785108750e+01
8.1914214891188664e-02 3.5652145785108750e+01
8.1914214891188664e-02 3.5652145785108750e+01
ITEM: ATOMS id type x y z
563 3 0.0462912 0.088043 0.029065
1064 3 1.87808 1.79266 0.242507
1563 1 1.95204 -0.131691 1.7927
2064 3 0.0810777 1.8344 1.91577
1 1 3.70243 1.71978 1.96966
565 3 7.16942 0.193976 0.037049
2065 2 7.06742 1.82018 1.7793
2565 3 3.75778 0.0353624 0.21487
3064 3 5.55036 1.85227 -0.13959
3564 2 5.44388 -0.0756751 2.02109
2 2 10.693 1.86172 1.83289
1066 2 9.10081 1.73848 0.0356376
1564 2 8.8323 0.167928 1.89049
2566 3 10.9488 -0.073995 -0.111396
567 2 14.344 0.126753 0.0868702
2066 1 14.5591 1.90243 1.79125
3066 2 12.5434 1.81679 0.132831
3565 3 12.5475 -0.038698 1.80615
751 1 17.8767 0.0394635 0.140126
1068 2 16.3546 1.85799 0.140694
1565 3 16.1931 0.128601 1.9148
2001 3 18.0509 1.99622 1.90046
3 3 0.174261 5.3966 1.91373
573 3 0.0864122 7.24224 0.103142
1568 3 1.90579 7.23919 1.72537
2569 2 -0.0200061 3.50366 0.108299
3068 1 1.74133 5.19672 -0.116042
3566 1 1.85534 3.46046 1.88859
4 1 7.28565 5.32003 1.67626
569 3 3.8487 3.52327 -0.0198787
577 2 7.28467 7.16662 0.175327
1070 1 5.50443 5.19759 0.216607
1566 1 5.11847 3.61417 2.00791
2067 2 3.58172 5.57245 2.08235
2576 3 3.68892 7.13065 0.077429
2571 2 7.30252 3.44367 0.101233
3570 3 5.45571 7.02592 1.737
570 2 10.7555 3.49707 0.292583
1570 3 8.81187 7.35933 1.88045
2068 1 10.7916 5.46762 2.03925
2578 2 10.6528 7.20602 0.275996
3070 2 8.99881 5.31256 0.186056
3567 2 9.09129 3.7276 1.88682
5 2 14.3299 5.39535 1.79453
581 3 14.2531 7.20125 0.140495
1072 1 12.6428 5.23229 -0.0978413
1567 2 12.5973 3.56457 2.00227
2573 2 14.2618 3.50195 0.0173389
3572 3 12.6559 7.1495 1.85046
253 1 17.674 5.40522 1.72472
761 2 17.852 7.20572 0.172374
1572 3 16.03 7.19955 1.90637
2819 1 17.9698 3.58599 0.163353
3072 3 15.9191 5.43308 -0.0305759
3568 3 16.073 3.70922 1.70175
1074 2 1.88889 9.10766 0.181098
2069 1 -0.141161 9.12697 1.80427
2574 1 -0.0769186 10.8404 0.0597264
3569 2 1.54834 10.6924 1.81526
6 1 3.71118 8.92401 1.85424
575 3 3.52569 10.8612 0.204363
1569 3 5.46476 10.6184 1.93556
2070 1 7.29522 9.14768 1.80267
2579 2 7.19847 10.7186 0.0708831
3074 3 5.34422 8.83308 0.309001
7 1 10.7697 8.96468 1.75938
578 3 10.7031 10.7977 -0.0389425
1076 2 9.0257 9.00971 -0.0688602
3571 2 9.03088 10.7209 1.9033
1571 2 12.3356 10.8686 1.72517
2071 1 14.3341 9.08416 1.71369
2582 3 14.3712 10.8775 -0.204808
3076 3 12.6108 8.94947 -0.0456234
1078 1 16.1052 9.00772 -0.0527215
2006 1 17.8011 9.09848 1.69908
2825 2 17.9071 10.8115 -0.072616
3573 1 16.2275 10.8023 1.87119
8 1 0.0370131 12.4606 1.82113
583 2 -0.0581472 14.3855 0.21288
1573 1 1.90367 14.3218 1.7223
3078 1 1.70601 12.4925 0.261933
9 1 7.04424 12.7175 1.88446
585 1 7.17832 14.3465 -0.0512775
1080 1 5.4031 12.335 0.172035
2072 3 3.54819 12.5145 1.82285
2585 2 3.6123 14.2038 0.209777
3574 1 5.40496 14.4477 1.9705
1574 3 8.92836 14.3802 1.96335
2073 2 10.621 12.6571 1.73935
2586 1 10.5972 14.5481 0.342785
3080 1 8.93874 12.5667 0.198431
10 3 14.374 12.5905 1.7079
587 1 14.3732 14.2906 0.103601
1082 3 12.4028 12.4808 0.14623
3575 1 12.758 14.3678 1.94599
258 2 17.9851 12.5714 1.76956
771 2 17.8349 14.3419 -0.104437
1575 3 16.1594 14.2759 1.89969
3082 1 16.1036 12.5945 -0.0547697
626 1 0.194337 18.078 0.00839683
1084 2 1.79299 15.9765 0.0265737
1688 3 1.74161 17.7732 1.97275
2074 3 0.0652231 16.189 1.86399
11 3 3.62948 16.0752 1.96944
630 3 7.0865 17.9 -0.0220796
2075 1 7.14683 16.074 1.77619
2691 1 3.39675 17.887 0.169814
3084 1 5.25761 16.0141 0.212625
3690 3 5.35709 18.0023 1.8442
12 2 10.6772 16.2292 1.99292
1086 2 8.90067 16.0708 0.0652987
1690 2 9.05968 17.9577 1.78176
2693 3 10.7219 17.6741 0.17225
634 3 14.2901 17.9068 0.0795118
2076 1 14.3356 16.1311 1.63484
3086 2 12.443 16.0016 0.101948
3692 2 12.6354 18.0458 1.85074
876 2 17.8321 17.7725 -0.0138367
1088 1 16.1857 15.9313 0.101148
1692 3 16.2283 17.9327 1.70417
2011 2 17.9577 16.1785 1.90111
13 3 0.0722447 2.00012 5.7192
588 1 0.0270779 -0.309977 7.22264
1089 3 1.85737 1.73155 7.21096
2564 1 0.0137209 0.0628637 3.7127
3063 1 1.92872 1.73306 3.6471
3576 3 1.66946 0.0282142 5.33611
14 1 7.16598 1.97282 5.50083
564 3 3.60552 0.157887 3.63235
1065 2 5.44236 1.74613 3.66226
1577 3 3.79049 0.134389 7.20323
1576 1 5.50763 0.249534 5.33946
2078 2 5.4292 2.105 7.2286
2077 1 3.45283 1.73655 5.45992
2589 2 7.27424 0.11497 7.1799
2567 1 7.19636 -0.00840167 3.4809
566 3 10.6373 0.0831942 3.5578
2079 2 10.7289 1.69218 5.21584
3065 1 8.97033 1.96624 3.41026
3088 3 8.94142 1.86709 6.97287
3578 3 10.7019 -0.0752789 6.97468
3577 2 8.73561 0.0408352 5.23137
15 3 12.5408 1.72631 7.30063
16 2 14.3227 1.72794 5.5732
589 1 14.3331 0.0183618 7.33858
1067 2 12.7678 1.62079 3.54084
1578 1 12.7061 -0.0953427 5.40438
2568 3 14.553 0.257065 3.6597
263 1 17.8797 1.95296 5.26273
776 1 17.9081 -0.019715 7.25361
1090 3 16.2688 1.81033 7.12612
2815 2 17.924 0.0494936 3.60019
3067 1 15.9787 2.01225 3.61963
3579 2 16.3897 0.0426806 5.45882
568 1 -0.0530952 3.55837 3.54437
1069 1 1.84105 5.37819 3.64678
1580 2 0.0393457 3.54902 7.43801
1579 1 1.76054 3.66214 5.4935
2081 3 1.68089 5.42094 7.24655
2080 1 0.140047 5.50902 5.48908
2591 2 0.148991 7.23236 7.13275
2575 3 0.169924 7.37903 3.58845
3583 3 1.93786 7.30198 5.47167
17 1 3.55714 5.55694 5.36174
571 2 7.22787 3.65936 3.38785
592 3 7.55878 7.26305 7.06067
576 2 3.71577 7.12906 3.72263
1585 2 5.57556 7.17755 5.60077
2082 1 7.15334 5.36405 5.35371
2590 3 3.49416 3.77863 7.16768
2580 3 7.23263 7.03873 3.67803
2570 2 3.58239 3.56113 3.71162
3069 3 5.47896 5.50296 3.59841
3089 3 5.40241 5.46198 7.07362
3586 3 3.5948 7.14009 7.36075
3581 3 7.14338 3.60334 7.26456
3580 1 5.48839 3.55964 5.43925
18 3 10.7192 5.3305 5.40593
19 2 8.85103 5.26413 7.16319
590 3 10.8098 3.44106 7.21166
579 1 10.8265 7.20656 3.58079
1071 2 9.06133 5.3974 3.59318
1587 1 10.7737 7.24548 6.97658
1581 1 9.0249 3.57541 5.41748
2572 2 10.6528 3.60627 3.50219
3587 3 9.18902 7.25228 5.23757
572 3 14.2188 3.44282 3.70347
1091 3 12.4261 5.2465 7.02699
1589 1 12.6414 7.20153 5.47074
1583 1 14.4324 3.49831 7.36159
2083 3 14.2678 5.17538 5.4999
2593 1 14.1419 7.15373 7.21602
2583 2 14.4688 7.13039 3.55854
3071 2 12.4539 5.17821 3.74578
3582 1 12.3796 3.40699 5.32653
757 3 17.8831 3.67458 3.65369
1073 1 15.9932 5.27106 3.54407
1768 3 17.9385 3.65077 7.21576
1582 2 16.0798 3.75153 5.57293
2084 2 16.0162 5.37429 7.12721
2017 1 17.7994 5.25571 5.35647
2841 3 17.8135 7.07983 7.0093
2826 3 17.6523 6.90465 3.69352
3589 2 15.9577 7.0366 5.43819
20 3 -0.00371536 8.93106 5.53592
574 3 0.0787427 10.5791 3.68568
1584 1 1.96269 10.7678 5.52525
3073 1 2.09732 8.86365 3.89252
3090 1 1.87537 9.09411 7.14685
3584 3 0.170277 10.7675 7.23762
21 2 5.55354 8.83104 7.21701
22 1 7.14322 9.08087 5.34944
591 1 3.97859 10.7615 7.11391
580 1 7.2049 10.7345 3.5286
1075 1 5.29891 8.92664 3.6783
1588 2 6.97276 10.7442 7.01437
2085 1 3.74829 8.84823 5.57875
2577 1 3.6155 10.859 3.66603
3585 2 5.44693 10.7999 5.2772
1092 1 8.82995 9.10444 7.12466
1586 2 8.88868 10.7965 5.41351
2086 1 10.8742 9.12572 5.34772
2592 2 10.7267 10.558 7.23037
2581 2 10.5478 10.9602 3.49759
3075 1 8.98209 9.07405 3.71982
23 2 14.2321 8.94432 5.58576
582 3 14.329 10.5971 3.6293
1077 1 12.6197 9.11808 3.53548
2087 1 12.5821 8.85437 7.32923
3590 1 14.3396 10.5418 6.93175
3588 2 12.4469 10.8159 5.24038
270 2 17.8622 8.98114 5.08082
764 2 17.7015 10.7922 3.54936
1590 3 16.1342 10.627 5.359
3091 2 16.2762 8.91506 7.12645
3077 1 16.0367 8.93336 3.6552
3835 1 17.6345 10.5297 7.20653
24 3 2.15214 12.5692 7.31914
593 1 0.103215 14.3533 7.30033
1079 3 1.9679 12.3446 3.61897
2088 3 0.156654 12.5217 5.54729
2584 2 0.147011 14.3546 3.71552
3591 1 1.90794 14.2659 5.62685
25 2 3.65686 12.5787 5.4576
584 3 3.29818 14.4026 3.73475
1093 3 5.52617 12.659 7.18725
1592 2 3.63927 14.2945 7.35127
1591 1 5.28772 14.4134 5.39445
2089 1 7.24651 12.3632 5.17582
2594 2 7.28083 14.2622 7.15081
2587 3 7.09269 14.4431 3.66427
3079 2 5.26992 12.5943 3.45197
26 3 10.699 12.6467 5.21247
586 1 10.7847 14.2071 3.49729
1081 1 8.91265 12.5499 3.62842
2090 2 8.90385 12.3373 7.34357
3593 2 10.8193 14.1349 7.11679
3592 2 8.95369 14.1477 5.29395
594 2 14.2884 14.266 7.50502
1593 1 12.583 14.4979 5.53126
2091 3 14.3357 12.4516 5.22996
2588 2 14.2315 14.3476 3.43026
3092 2 12.5572 12.522 7.03652
3081 2 12.5408 12.4837 3.47142
27 3 15.9967 12.4251 7.05114
781 2 17.6707 14.3494 7.34506
1083 1 16.1145 12.5664 3.69704
2025 2 17.8996 12.509 5.45356
2835 3 17.9797 14.1484 3.6748
3594 1 16.1228 14.4047 5.51501
28 2 0.0789904 16.0913 5.47294
651 3 0.311409 17.9571 7.15386
1094 1 2.0783 16.1434 7.21229
2690 1 0.0434354 17.8186 3.77012
3083 3 1.6938 16.1944 3.53563
3701 2 1.91468 17.9231 5.37832
29 3 7.09544 16.093 5.54528
629 1 3.56964 18.0195 3.69966
1085 3 5.32693 16.2247 3.70779
1704 3 3.59751 17.855 7.35542
1703 1 5.32 17.8708 5.55371
2093 1 5.48235 16.1135 7.38744
2092 3 3.67088 16.0365 5.50177
2715 2 7.32469 17.8939 7.21334
2695 2 7.32915 17.8291 3.59183
632 2 10.8839 18.117 3.52846
2094 2 10.7322 15.9908 5.30624
3093 2 9.07503 16.0433 7.11818
3085 1 8.99888 16.087 3.68141
3704 2 10.6783 18.0099 7.18884
3703 3 9.27391 17.993 5.40597
30 1 12.4552 16.1361 7.23498
31 1 14.2975 15.8308 5.52224
653 2 14.3366 17.9552 7.28118
1087 1 12.4855 16.269 3.67647
1706 2 12.4174 17.7548 5.50213
2698 2 14.4095 17.9153 3.73405
278 1 17.8959 15.9852 5.55088
901 1 17.8723 18.0087 7.40012
1095 1 15.8815 16.2469 7.4
2878 2 17.7637 17.7819 3.7289
3087 3 15.977 16.0543 3.67627
3707 3 16.0172 17.9608 5.66217
1594 2 1.7782 -0.0431362 9.00017
2095 3 0.181121 1.81544 8.93098
2595 1 0.22541 0.0708661 11.0373
3094 2 1.91866 1.80134 10.7158
33 3 7.19328 1.74319 8.89097
595 2 3.72652 0.0132586 10.5715
1096 1 5.42098 1.88135 10.734
2597 1 7.08484 0.192376 10.9501
2596 3 5.60217 0.0391323 8.99306
3095 2 3.67576 1.70337 8.96617
596 2 10.7485 0.0012325 10.6597
1097 3 10.7995 1.615 8.98655
3096 1 9.05762 1.89651 10.9021
3596 3 9.15872 0.0724962 8.8507
597 3 12.4796 0.0830542 8.9543
1098 2 12.6466 1.77474 10.6905
2098 1 14.4072 1.71603 8.95784
2598 1 14.381 0.0327714 10.8166
1597 2 16.0861 0.112639 8.85772
2032 2 17.8032 1.76801 9.2193
2845 1 18.0846 0.0395246 10.7486
3097 3 16.2244 1.82808 10.8906
598 1 0.0442524 3.57759 10.7596
1099 3 1.95843 5.40525 10.7906
2603 1 0.0793469 7.31212 10.8943
2599 1 1.92808 3.54936 8.82907
3098 3 0.16792 5.34973 9.07071
3602 3 1.67366 7.28659 8.91352
36 3 3.54292 5.50291 8.95798
605 3 3.56632 7.33613 10.804
604 1 5.49845 7.09743 8.94039
600 1 7.24728 3.75456 10.7275
1100 3 7.3362 5.3493 8.91454
2606 2 7.29308 7.27988 10.7868
2600 3 3.50003 3.63638 10.7506
3099 2 5.2085 5.52479 10.8366
3599 3 5.38311 3.81705 8.97915
606 2 10.5743 7.10421 10.8549
599 3 9.06105 3.39807 8.90543
1101 1 8.98197 5.39101 10.8238
1605 2 9.10102 7.14797 9.02556
2100 1 10.7745 5.4535 8.82319
2601 1 10.7362 3.5672 10.8813
601 1 14.4396 3.6107 10.7783
1600 3 12.5476 3.49691 9.0363
2609 1 14.0807 7.28755 10.9036
2608 2 12.4114 7.04981 8.88408
3101 3 14.1689 5.29529 9.02903
3100 3 12.437 5.41137 10.8027
786 2 17.9665 3.67887 10.8058
1102 2 16.1249 5.49601 10.7047
2853 1 18.0836 7.31571 10.8783
2602 2 16.3031 3.72577 9.12465
3348 1 17.8859 5.53183 9.04426
3608 1 16.0092 7.06069 8.90643
39 2 0.0911153 8.77528 8.87477
603 3 0.0919307 10.7029 10.5651
602 3 1.8292 10.6716 8.85489
3102 1 2.02769 9.08741 10.7044
607 3 7.05392 10.5186 10.7539
1104 1 5.37616 8.82834 10.683
1103 3 3.59702 9.07067 8.87493
1603 3 5.45758 10.7393 9.01002
2104 2 7.36596 8.76927 8.85414
2604 2 3.53115 10.8243 10.619
2607 2 10.759 10.4869 10.6742
2605 1 8.91013 10.5926 9.06763
3104 3 8.87106 8.88892 10.8542
3103 1 10.5007 8.81993 8.90991
42 3 14.299 8.85876 8.94338
609 1 14.4055 10.5989 10.7829
1105 1 12.5715 8.86752 10.8957
3606 3 12.5386 10.5624 8.99554
289 2 17.799 8.87445 8.74831
792 1 17.9282 10.6803 10.8877
608 3 16.1059 10.5616 8.96902
3105 3 16.033 8.82574 10.6777
1107 2 1.73877 12.5775 10.6841
1106 1 0.049201 12.6164 8.90099
1609 2 1.87153 14.3165 8.88678
2610 2 0.100139 14.3745 10.654
610 3 3.54384 14.4048 10.7496
2107 1 3.78449 12.5419 9.13213
2612 3 7.36746 14.3125 10.6614
2611 1 5.48274 14.2088 8.94476
3107 1 7.39631 12.4875 8.88454
3106 2 5.54141 12.5767 10.8994
45 1 10.979 12.3243 8.93274
611 2 10.6943 14.3448 10.5167
1108 3 9.04744 12.4817 10.5638
3611 1 9.15031 14.3319 8.76508
612 1 12.4253 14.2389 8.83601
1109 3 14.2795 12.396 8.9158
2613 3 14.3057 14.2437 10.7103
3108 2 12.5198 12.488 10.5897
1293 3 17.669 12.3706 9.02421
1110 2 16.0595 12.4384 10.7671
1612 1 16.1288 14.2414 8.92816
2860 3 17.8302 14.327 10.7367
1719 2 1.82516 17.696 9.04106
2110 3 0.136766 15.9878 8.91341
2721 3 0.0882181 17.8191 10.7744
3109 1 2.01223 16.1649 10.7822
48 1 7.32608 15.8345 8.8935
659 2 3.78279 17.9393 10.8359
1111 2 5.48756 16.2108 10.5874
2724 2 7.1666 17.9156 10.6652
2722 1 5.36867 17.9189 8.93871
3110 3 3.66846 16.0367 8.87492
661 3 10.7995 17.7893 10.6888
1112 2 10.7448 16.0457 8.87858
3111 1 9.0104 16.2578 10.6715
3723 1 8.92413 17.7697 8.89551
663 1 12.4854 18.0079 8.9129
1113 1 12.5902 16.0605 10.6986
2113 3 14.25 15.9314 9.05273
2727 2 14.234 18.0087 10.5527
1725 1 16.2074 18.0161 8.92728
2047 3 17.8028 16.1669 8.98236
2908 2 18.035 17.895 10.6497
3112 3 16.0878 15.988 10.4581
32 2 0.174678 1.72931 12.5884
613 1 -0.0468839 0.18633 14.4934
1114 2 2.00132 2.00748 14.3918
3595 3 1.95586 -0.0707773 12.7151
34 1 7.23345 1.95421 12.4565
614 3 7.19202 0.145792 14.4201
1595 2 5.31428 0.0269483 12.5459
2096 1 3.79627 1.73671 12.7007
2614 2 3.82156 -0.0566545 14.4692
3113 2 5.36636 1.86917 14.2026
1115 2 9.122 1.77349 14.3237
2097 2 10.8145 1.68094 12.5636
2615 1 11.0073 0.130841 14.4143
3597 1 9.11621 -0.100947 12.5367
35 2 14.3486 1.85577 12.5259
615 1 14.5728 0.141914 14.3171
1596 3 12.6209 0.13196 12.5562
3114 1 12.4428 1.88248 14.2726
282 2 17.9527 1.69242 12.4011
801 2 17.8971 0.0171866 14.4827
1116 3 16.4162 1.91346 14.4235
3598 1 16.2346 0.0356124 12.6932
618 2 0.0459796 7.04215 14.3698
1598 1 1.79019 3.75729 12.5067
2099 1 -0.0979515 5.31767 12.5375
2616 2 0.0721859 3.55376 14.2795
3115 3 1.78295 5.38955 14.2942
3603 3 1.74453 7.22526 12.5481
37 1 3.61564 5.57053 12.5685
620 3 7.12695 7.15208 14.5606
616 3 3.64158 3.76433 14.0395
1117 3 5.36068 5.43117 14.1925
1604 1 5.41221 7.09918 12.3865
2101 1 7.21071 5.43253 12.6446
2620 2 3.67255 7.26747 14.2127
2617 2 7.17207 3.44154 14.3115
3600 3 5.44617 3.74044 12.5097
38 3 10.8551 5.34689 12.4499
617 3 10.7939 3.51553 14.4007
1599 1 8.9863 3.53448 12.4528
2621 2 10.9023 7.06591 14.4176
3116 3 8.94743 5.42453 14.2849
3605 2 9.07592 7.10557 12.664
622 2 14.4146 7.20892 14.2674
1118 3 12.6297 5.26838 14.3559
1607 1 12.5081 7.01423 12.6098
2102 1 14.491 5.24552 12.5848
2618 3 14.2718 3.53237 14.267
3601 2 12.7479 3.5601 12.3679
806 2 17.9046 7.1546 14.2889
1601 1 16.2164 3.44179 12.4157
2036 1 17.8468 5.48388 12.3876
2866 3 17.8522 3.74443 14.3036
3117 1 16.0833 5.52547 14.1947
3609 2 16.191 7.30446 12.5978
40 3 0.219875 8.99737 12.4674
1119 1 1.83854 8.95618 14.2808
1602 3 1.80999 10.817 12.5324
2619 3 0.104198 10.8876 14.4023
41 2 7.0941 8.89362 12.5398
619 3 3.6444 10.8311 14.2588
2103 1 3.43835 9.04605 12.6654
2622 3 7.10177 10.6805 14.3037
3118 1 5.3434 8.89237 14.244
3604 1 5.35686 10.5422 12.4245
621 1 10.8502 10.9358 14.1573
1120 2 8.97616 8.97542 14.2833
1606 1 9.14051 10.6514 12.5422
2105 2 10.746 9.03037 12.7912
43 2 14.3892 8.89733 12.5083
2623 3 14.4362 10.6379 14.128
3119 1 12.6382 8.9553 14.1438
3607 2 12.4993 10.7024 12.4168
290 2 17.9522 8.94805 12.5334
1121 1 16.1729 9.03624 14.1233
1608 3 16.1199 10.5983 12.3137
2870 2 17.7068 10.7571 14.4566
623 2 0.134514 14.275 14.278
2106 2 0.0746288 12.3964 12.5705
3120 3 1.94305 12.5603 14.3171
3610 3 1.74475 14.4804 12.5887
44 2 3.51492 12.6414 12.3605
624 1 7.25103 14.4358 13.9464
1122 2 5.46494 12.6681 14.2807
1610 2 5.47444 14.4573 12.2928
2108 3 7.22891 12.4682 12.5815
2624 2 3.63557 14.2062 14.1877
46 3 10.8913 12.4268 12.2124
2625 1 10.8419 14.3259 14.2474
3121 3 9.04845 12.475 14.2087
3612 3 9.34733 14.5315 12.4341
625 1 14.3763 14.4466 14.1992
1123 3 12.6277 12.6115 14.2507
1611 2 12.4586 14.1822 12.1525
2109 1 14.0845 12.4024 12.4282
811 2 17.6921 14.4217 14.4143
2044 2 17.6391 12.514 12.5831
3122 2 15.8944 12.4701 14.3741
3613 1 16.0148 14.3063 12.5132
47 1 -0.13442 16.1007 12.3593
676 1 -0.000800191 17.8377 14.1499
1124 3 1.67859 16.0628 14.2707
3720 2 1.8772 17.7179 12.6519
49 1 7.10647 16.0487 12.4249
678 2 7.16315 17.8542 14.3352
1721 2 5.43365 17.9185 12.5928
2111 3 3.64615 16.0755 12.4435
2740 1 3.5345 17.7801 14.4726
3123 3 5.46449 15.9668 14.1888
1125 3 9.15925 16.1779 14.1897
2112 2 10.9785 16.1581 12.299
2741 3 10.9085 17.8066 14.3286
3724 1 9.01943 18.0159 12.3845
50 3 14.2921 16.0687 12.3734
680 3 14.4085 17.9147 14.1324
1724 3 12.6086 17.9199 12.5013
3124 3 12.5609 16.1233 14.0303
297 1 18.028 16.1368 12.368
926 3 17.9642 17.8732 14.358
1126 3 16.1448 16.1646 14.2611
3726 2 16.1659 17.7051 12.2931
1613 2 1.93418 0.190142 16.0821
2114 1 0.156405 2.08347 16.153
2626 3 0.0376828 0.0824247 17.8908
3125 3 1.85329 1.94244 17.8215
51 1 3.69308 1.97978 16.0725
502 2 3.48523 0.316962 17.8689
1128 2 5.48913 1.98402 17.8372
2115 1 7.35294 1.72946 16.086
2628 1 7.34922 0.0205389 17.8067
3614 1 5.46443 0.022924 16.1662
52 2 10.7133 1.92712 16.1367
503 1 10.6983 0.282613 17.9269
1614 2 9.12685 -0.0694327 16.0981
3127 2 9.04025 1.90198 17.9788
1130 1 12.5775 1.75925 17.9612
2116 3 14.2776 1.82269 16.0128
2630 1 14.4188 0.174053 17.832
3615 3 12.6763 0.0847442 16.1379
1615 1 16.164 0.0570721 16.2736
2051 1 17.9686 1.98844 16.168
2501 2 18.0008 0.163321 17.8189
3129 2 16.1594 1.59706 17.9298
53 1 0.0804487 5.45665 16.0461
506 3 0.223498 3.72017 17.7748
1132 3 1.94654 5.42788 17.7909
1618 1 2.07247 7.17626 16.1306
2636 2 0.173094 7.21976 18.005
3616 1 2.0705 3.69193 15.9786
54 3 7.14493 5.39417 15.9053
508 1 7.28247 3.42049 17.8256
513 1 3.93126 7.28204 17.9992
1616 1 5.50114 3.55208 16.1446
2117 1 3.70503 5.4289 15.9315
2640 1 7.07357 7.02126 17.82
2632 3 3.5701 3.74512 17.8614
3131 3 5.49511 5.0672 18.131
3620 1 5.31436 7.00425 16.1229
515 2 10.7523 7.10817 17.8787
1134 3 8.77521 5.42313 17.7084
1620 1 9.05942 7.2292 16.064
2118 3 10.9588 5.28119 16.0797
2633 3 10.7203 3.55546 18.0451
3617 2 8.9348 3.57658 16.0863
55 1 14.3934 5.27457 15.9902
510 3 14.4603 3.61743 17.9671
1617 2 12.6319 3.47147 16.2699
2644 2 14.3643 7.01572 17.7454
3133 3 12.6166 5.32456 17.7577
3622 1 12.4864 7.2721 15.981
303 1 17.7992 5.39535 16.1383
819 2 17.8509 3.72193 18.153
1136 1 16.1395 5.37087 17.9703
1622 3 16.1653 7.16251 16.1085
2511 1 17.8565 7.11677 18.0035
3618 1 15.9215 3.72081 16.1124
511 3 0.205763 10.6949 17.9052
2119 1 0.0362893 8.82423 16.1754
3135 1 1.97628 8.93527 17.988
3619 2 1.97769 10.6456 16.0812
56 3 3.73732 8.9049 16.2027
516 1 7.26138 10.9676 17.9325
1138 2 5.66262 8.91783 17.8768
1619 3 5.50403 10.6918 16.3715
2120 1 7.27216 8.93196 16.0962
2638 1 3.5824 10.5712 17.9601
57 1 10.7249 9.10722 15.767
2641 3 10.8242 10.6361 17.7688
3137 2 8.86059 9.06438 17.8416
3621 3 8.93637 10.6871 15.9347
519 1 14.2545 10.8959 17.7982
1140 1 12.5398 8.9388 17.792
1621 2 12.4565 10.6522 16.0948
2121 3 14.5298 8.99058 15.9708
825 2 17.8476 10.7404 17.978
2056 2 17.8631 8.94768 16.0314
3139 2 16.1579 8.95192 17.9393
3623 1 15.979 10.7901 16.2084
58 2 0.216551 12.5373 16.108
1142 1 1.98905 12.4087 17.7428
1623 1 1.82964 14.3387 16.1151
2646 3 -0.0686122 14.4009 18.1813
59 3 7.24596 12.6059 15.9413
522 2 3.69392 14.4189 17.8679
2122 3 3.83932 12.5627 16.1184
2648 1 7.18821 14.1873 17.7609
3141 3 5.44364 12.6413 18.0692
3624 2 5.45664 14.4579 16.1621
523 3 10.8752 14.3792 17.7587
1144 1 9.00055 12.5862 17.7161
1624 2 8.9551 14.5361 16.063
2123 2 10.7278 12.5785 16.1627
60 1 14.3105 12.5033 16.0414
2650 2 14.2169 14.2442 17.858
3143 1 12.4209 12.4775 17.6375
3625 2 12.4975 14.421 16.0945
308 3 17.6483 12.5495 16.0309
1146 1 15.958 12.7498 17.8631
1625 2 15.9186 14.4155 16.1166
2521 2 17.8555 14.4179 17.8375
1738 3 1.78937 17.8797 15.9148
2124 2 0.120281 16.0413 16.025
2751 1 0.129563 17.9649 17.8307
3145 2 1.82988 15.9613 17.9908
61 1 3.53057 16.0047 15.9074
691 1 3.34528 17.6675 17.8094
1148 2 5.33981 16.1126 17.9451
2125 2 7.02778 16.1244 16.1377
2755 2 7.08552 17.7721 17.8833
3740 1 5.46282 18.0332 16.1545
62 1 10.8939 16.1723 15.8735
693 2 10.7853 17.6823 17.8168
1740 1 9.03437 17.7607 16.1479
3147 1 9.00446 16.1864 17.5458
1150 1 12.7239 16.2569 17.7739
2126 2 14.3503 16.1457 16.0882
2759 1 14.3825 17.8897 17.79
3742 2 12.6643 17.7439 15.8922
1742 2 16.0283 17.8411 16.0975
2061 3 17.8891 16.0205 16.2266
2938 3 17.86 17.7792 17.6448
3149 2 16.141 15.9056 17.8348
501 1 -0.0192589 0.00613447 21.3792
63 1 0.105507 2.06391 19.8648
1127 2 2.00333 1.84234 21.2874
3626 3 1.66671 0.174022 19.6001
504 1 7.15265 0.173652 21.3267
64 2 7.14696 1.88014 19.6339
1626 2 5.33039 0.278054 19.568
2127 1 3.69561 1.90906 19.5827
2627 3 3.71048 0.334321 21.4336
3126 2 5.40982 1.87514 21.5083
1129 1 9.1071 1.7329 21.3111
2128 2 10.691 1.78105 19.6472
2629 1 10.6015 0.0446466 21.3488
3627 2 8.97239 0.0188272 19.6431
505 2 14.2815 0.110915 21.5441
65 3 14.3489 1.71525 19.7932
1627 1 12.4227 0.0584103 19.7992
3128 1 12.5186 1.79045 21.283
815 3 18.1015 0.0565288 21.3657
313 1 17.8474 1.74167 19.6294
1131 1 16.3266 1.85928 21.5214
3628 3 16.3294 0.0514561 19.7271
512 1 0.0347325 7.11597 21.3688
1628 1 1.86568 3.8679 19.7195
2129 2 0.0171393 5.38575 19.5841
2631 3 0.0989974 3.68658 21.4527
3130 1 1.73232 5.39094 21.5625
3631 1 1.8921 6.95911 19.5907
507 3 3.61738 3.88899 21.3539
517 2 7.15237 7.10735 21.3625
66 3 3.82689 5.51601 19.6411
1133 2 5.43941 5.47729 21.4426
1632 1 5.57386 7.28899 19.7368
2130 1 7.34026 5.32044 19.7832
2639 2 3.61667 7.04118 21.354
2634 1 7.1408 3.56808 21.5297
3629 3 5.404 3.58682 19.6953
509 3 10.5878 3.60556 21.4669
67 1 10.7704 5.44964 19.4662
1629 2 8.93427 3.77759 19.6039
2642 1 10.7685 7.32977 21.0196
3132 1 8.98958 5.6675 21.3517
3633 1 8.88151 7.24402 19.5153
520 2 14.1478 7.16442 21.2425
1135 3 12.314 5.33129 21.3063
1634 2 12.708 7.08881 19.4853
2131 1 14.3577 5.2972 19.5225
2635 2 14.1875 3.77834 21.5187
3630 2 12.537 3.64363 19.5184
826 1 17.66 7.23922 21.2283
1630 2 16.1876 3.51516 20.0385
2316 1 17.8881 5.41518 19.6094
2507 3 18.1202 3.74014 21.2776
3134 2 16.0371 5.5489 21.5187
3635 2 15.9572 7.16054 19.7171
68 2 0.139231 8.92951 19.7835
1137 1 1.72207 8.98057 21.535
1631 3 1.88966 10.6271 19.8151
2637 3 -0.0405758 10.8604 21.5741
514 1 3.64122 10.9019 21.4739
69 2 7.25505 9.01956 19.6069
2132 3 3.61485 8.97245 19.9617
2643 3 7.23948 10.9102 21.4961
3136 3 5.55618 8.91388 21.3825
3632 2 5.53978 10.6804 19.5136
518 1 10.8477 10.6473 21.4298
1139 2 8.97774 8.97063 21.3546
1633 2 9.04751 10.6525 19.593
2133 2 10.65 8.88779 19.4971
70 1 14.5065 8.73264 19.6105
2645 3 14.4401 10.539 21.3348
3138 2 12.7459 8.97332 21.1398
3634 2 12.5852 10.5565 19.5007
318 1 17.9534 9.16964 19.5843
1141 2 16.4159 8.99954 21.3891
1635 2 16.2086 10.8411 19.5446
2514 1 17.9066 10.7794 21.4198
521 3 -0.240543 14.3604 21.5928
2134 1 -0.00435405 12.5774 19.8144
3140 1 1.90208 12.8114 21.5161
3636 2 1.80195 14.2578 19.7104
524 2 7.45252 14.2748 21.5405
71 2 3.4652 12.515 19.7272
1143 2 5.39629 12.6751 21.5143
1636 2 5.3739 14.3678 19.737
2135 2 7.14925 12.5931 19.8664
2647 2 3.62032 14.4921 21.3914
72 3 10.7318 12.4199 19.6007
2649 1 10.7949 14.0922 21.2472
3142 2 9.08413 12.5097 21.3415
3637 1 8.90437 14.4687 19.5348
525 3 14.2067 14.245 21.5764
1145 3 12.3973 12.2725 21.4711
1637 1 12.5858 14.1485 19.6659
2136 3 14.2401 12.4625 19.6576
835 1 17.994 14.304 21.3716
2321 3 17.8729 12.5822 19.4674
3144 2 16.1493 12.4669 21.4082
3638 1 16.0384 14.1836 19.6331
690 2 0.0335816 17.9309 21.6732
73 2 0.167756 16.2759 19.7396
1147 3 1.93292 16.0947 21.5634
3751 3 1.72566 17.8431 19.782
695 3 7.24742 17.8142 21.3377
74 1 7.24621 15.9635 19.5802
1502 3 5.29396 17.5972 19.6669
2137 1 3.54009 15.9993 19.5309
2754 3 3.6558 17.8607 21.5548
3146 2 5.46491 16.0513 21.487
1149 3 9.03994 16.1496 21.2543
2138 3 10.7098 16.1421 19.5753
2757 3 10.7666 17.9364 21.5398
3753 1 9.06774 17.8488 19.3687
698 1 14.5476 17.7869 21.4549
75 3 14.3566 16.1151 19.5021
1504 3 12.738 17.9033 19.7023
3148 3 12.5752 16.0738 21.2533
941 1 17.6919 17.714 21.3183
323 2 17.7126 15.8603 19.5931
1151 3 16.0728 15.9189 21.3648
3755 2 16.179 17.8112 19.5539
1638 1 1.92089 0.168059 23.2447
2139 3 0.3206 1.97266 23.1654
2651 2 0.001925 0.211945 24.8513
3150 1 1.78982 1.9667 25.0389
526 1 7.20431 0.273822 24.8866
77 1 5.33676 1.76122 25.0012
76 2 3.5209 2.16609 23.1489
2140 2 7.40079 1.92426 23.179
3640 3 3.43199 0.141522 24.9619
3639 1 5.42265 0.219936 23.269
78 2 10.9405 1.7502 23.0555
1152 3 9.13873 1.97804 24.8697
1640 2 10.9886 0.312211 24.9145
1639 1 9.00438 0.130669 23.3984
2142 1 14.5019 1.89671 23.0867
2141 1 12.9641 1.87304 24.7352
2652 3 14.2923 0.0189397 24.9863
3641 2 12.6091 0.103056 23.1404
1641 3 16.2747 -0.0236908 23.1973
2326 1 17.8325 2.19041 23.1664
2526 1 17.8659 0.246739 24.9122
3151 3 16.0479 1.93751 24.8491
528 1 0.0215364 7.49996 24.9763
80 3 1.65532 5.49951 25.0678
79 3 0.129478 5.44077 23.2579
1645 1 1.93997 6.98052 23.1836
3643 2 0.147626 3.6035 24.9668
3642 1 1.84857 3.77972 23.1519
527 3 3.4699 3.84562 25.1757
81 3 7.13264 5.517 23.234
1153 3 5.34978 5.45425 24.8327
1648 3 3.80736 7.26197 24.8639
1643 1 7.07196 3.597 24.9014
1642 3 5.50856 3.77229 23.1837
2143 1 3.70165 5.3121 23.2149
2655 3 7.26217 7.35243 24.98
3648 1 5.41163 7.19636 23.1671
1649 1 8.92022 7.09236 23.1524
2145 2 8.86191 5.21776 24.9253
2144 2 10.6327 5.38406 23.0534
2653 2 10.8257 3.74858 24.8188
3650 3 10.9552 7.02296 24.8294
3644 2 8.83082 3.7923 23.13
530 3 14.3292 7.09561 24.8569
82 1 14.2763 5.59766 22.9927
1644 2 12.5253 3.61206 23.1637
3152 3 12.5434 5.52203 24.9131
3652 3 12.5164 7.2001 22.955
3646 2 14.4322 3.82827 24.849
841 3 17.8377 7.13122 25.0043
329 1 17.9625 5.61402 23.0133
83 3 16.2137 5.4658 24.898
1651 1 16.0443 7.26713 23.1866
3893 3 18.0285 3.99842 24.8664
3645 2 16.0082 3.82911 23.2995
1154 3 1.77372 9.02496 24.8849
1646 1 0.0367919 10.6212 24.8995
2146 2 0.138941 9.00206 23.1755
3647 3 1.93918 11.0304 23.1965
84 3 3.7478 9.00889 23.0295
1647 3 5.49685 10.8719 23.1632
2148 2 7.26352 8.93065 23.2014
2147 3 5.47204 9.05073 24.8936
2654 3 3.71316 10.7375 24.9972
3651 1 7.16192 10.9098 25.1125
529 1 10.5405 10.8671 25.1727
85 2 10.7611 8.88178 23.1143
3153 2 9.12925 8.67633 24.872
3649 1 8.90535 10.8013 23.2324
86 1 12.5092 8.85508 24.9941
1652 2 14.353 10.725 24.9448
1650 1 12.5046 10.6094 23.1495
2149 1 14.3262 8.78195 23.1736
1155 3 16.133 8.98185 24.9092
1835 1 17.7899 10.9123 24.8988
2333 3 17.9927 8.83843 23.2003
3653 2 16.1985 10.6929 23.1442
87 3 -0.0587162 12.5941 23.2968
1653 1 1.98778 14.28 23.1178
2150 1 1.74365 12.478 25.2586
2656 3 0.0868433 14.3692 25.1223
531 1 7.26401 14.4902 25.0062
88 1 7.38999 12.4133 23.2241
2151 2 3.80753 12.5941 23.2986
3154 2 5.44983 12.4763 25.0424
3655 3 3.54162 14.3524 25.071
3654 1 5.58406 14.2024 23.2687
89 1 8.91254 12.7345 25.1014
1655 2 10.8887 14.142 25.0184
1654 3 9.03215 14.301 23.1802
2152 3 10.7859 12.5332 23.2156
90 3 14.4215 12.3336 23.1778
1156 1 12.5775 12.6068 24.8165
2657 3 14.3743 14.2809 24.872
3656 2 12.5353 14.3641 23.2778
337 3 17.9677 12.4852 23.1395
1656 1 16.1513 14.2592 23.0826
2153 1 16.2898 12.3213 24.9696
2531 2 17.8151 14.4696 25.1404
1513 3 1.82102 17.787 23.432
2154 1 0.0921099 15.8732 23.4018
2776 2 -0.0595219 17.8557 25.1861
3155 2 1.92476 16.1273 25.1923
715 3 7.28666 17.7547 24.9462
92 2 5.48119 16.1594 25.3577
91 3 3.76873 16.1333 23.4556
2155 1 7.23787 16.1408 23.2436
3767 1 3.69759 17.8242 25.1529
3766 3 5.4005 17.6997 23.2978
93 1 10.7913 15.8643 23.1995
1157 2 9.18642 16.0332 25.2088
1515 2 8.80952 17.6703 23.315
1516 1 10.9688 17.8642 24.8001
2157 1 14.2227 15.848 23.1079
2156 3 12.5112 15.916 25.0598
2778 3 14.155 17.7372 24.8787
3769 2 12.5746 17.8467 23.1038
1519 3 15.9734 17.7883 23.1959
2341 1 18.0229 15.9129 23.2352
2963 1 17.8316 17.92 24.9555
3156 2 16.0577 16.1413 24.8347
532 1 0.0177179 -0.0537004 28.4699
94 2 0.00942337 1.94334 26.7831
1158 1 1.81322 1.79566 28.5072
3657 3 1.7925 0.0224395 26.7149
533 1 5.1614 0.0636405 26.6354
534 1 7.11322 -0.0290546 28.59
1159 2 3.58526 1.88306 26.6504
2159 2 7.0417 1.8652 26.9171
2658 3 3.45352 0.179419 28.4887
3157 1 5.3481 1.88017 28.5679
1160 2 8.94129 1.93955 28.5914
1658 1 9.08242 0.140486 26.7331
2659 2 10.7039 0.250593 28.581
3158 1 10.9158 1.96025 26.7434
535 2 14.2654 0.0708881 28.4755
97 2 14.2458 1.9009 26.7636
2660 3 12.5407 0.143386 27.0263
3159 1 12.6666 1.97989 28.6763
845 2 17.7881 0.219889 28.4766
344 2 17.7456 1.81978 26.6265
1161 2 16.0156 1.9297 28.5029
3660 3 16.0222 0.163061 26.6696
536 3 1.78504 3.67408 26.9103
540 2 0.0729294 7.32478 28.722
1162 3 -0.00928916 5.59629 26.9902
1664 1 1.92135 7.37374 26.6571
2661 1 0.125835 3.57381 28.5915
3160 3 1.86018 5.63366 28.5757
537 2 3.7488 3.50204 28.464
543 3 7.2186 7.15967 28.3861
1163 2 5.34587 5.43873 28.5096
1661 1 5.43823 3.72973 26.7923
2162 1 3.49575 5.54725 26.7131
2668 2 3.82925 7.22832 28.481
2667 1 5.34689 7.2233 26.8109
2663 2 7.01288 3.56179 28.5751
3161 3 7.22297 5.4878 26.5476
538 3 10.922 3.5319 28.52
99 2 10.7363 5.23543 26.7511
2669 3 10.7376 7.1757 28.3886
2662 3 8.79257 3.54389 26.6626
3162 1 8.94362 5.35788 28.4443
3668 3 9.17384 6.99506 26.6956
545 2 12.6637 7.15584 26.7685
546 3 14.3164 7.25087 28.5709
1165 1 14.2759 5.59466 26.7232
1164 1 12.554 5.44439 28.4875
2664 2 14.3323 3.73009 28.4731
3663 3 12.6376 3.78354 26.5351
853 2 17.9785 7.42849 28.4688
539 1 16.2073 3.68637 26.8872
1349 1 17.9592 5.48109 26.823
1670 1 16.1332 7.22128 26.7631
2536 3 17.7538 3.50122 28.505
3163 2 16.2119 5.5388 28.525
1166 3 1.92623 8.79238 28.5563
2165 3 0.178537 9.03464 26.8702
2666 1 0.22137 10.5915 28.7281
2665 2 1.89104 10.7116 26.9413
541 2 3.68315 10.6543 28.4928
103 3 7.18914 8.93544 26.7402