ITEM: TIMESTEP
5000
ITEM: NUMBER OF ATOMS
4000
ITEM: BOX BOUNDS pp pp pp
1.6593743212324696e-01 3.5568122567876742e+01
1.6593743212324696e-01 3.5568122567876742e+01
1.6593743212324696e-01 3.5568122567876742e+01
ITEM: ATOMS id type x y z
3614 3 5.48955 0.33684 16.2393
1064 3 1.95109 1.88326 0.140214
52 3 10.8808 2.01313 16.2789
2061 2 17.8351 15.9495 15.9996
1 3 3.70346 2.04261 2.03776
2115 3 7.32809 1.85029 16.1068
2065 1 7.10914 1.85112 1.86787
2119 1 0.259149 8.78724 16.0752
502 2 3.73459 0.297273 18.0146
3564 3 5.54096 0.0951875 1.79035
2 3 10.7932 1.91998 1.91679
51 1 3.63788 1.80045 16.1334
1564 3 8.9865 -0.0208165 1.81584
2566 3 10.811 0.206063 0.150571
3619 2 1.90325 10.8314 16.1211
2066 2 14.427 1.75276 1.86391
3066 2 12.7103 1.92252 0.230894
3618 2 16.0795 3.79804 15.9318
1742 2 16.1925 17.8267 16.2211
1068 3 16.3117 1.90516 0.204059
56 1 3.77868 8.93273 16.0233
1622 3 16.1107 7.38063 16.0477
2120 2 7.26427 8.96352 15.9921
2114 2 0.18117 1.94912 16.1702
1568 1 1.90469 7.25275 1.93591
2126 3 14.4109 16.0559 16.2364
3068 3 2.01737 5.50231 0.134083
3566 1 1.90217 3.73489 1.935
4 3 7.33507 5.34185 1.96881
503 3 10.8434 0.135578 17.9054
577 3 7.34473 7.17765 0.129805
1070 3 5.51203 5.40872 0.22697
1566 1 5.66072 3.72888 2.01554
2067 3 3.73978 5.4531 2.06811
3726 2 16.0995 17.8283 12.5169
2571 3 7.32364 3.71447 0.0701817
3570 3 5.49592 7.09301 1.88806
570 2 10.9027 3.72478 0.208571
1570 3 9.01484 7.18713 1.83058
2068 3 10.8141 5.5709 2.03773
1126 3 16.0364 16.1507 14.3278
3070 3 9.12273 5.45456 0.0857494
3567 2 9.02453 3.68347 1.9862
5 1 14.535 5.49909 1.93091
581 2 14.4921 7.23489 0.225993
297 3 17.9263 16.218 12.3983
1567 3 12.7861 3.6247 1.99763
2573 3 14.4791 3.69375 0.170228
3572 3 12.6011 7.3266 2.00878
1150 1 12.5121 16.0642 17.739
3147 3 8.92106 16.081 17.9398
1572 3 16.1988 7.13664 1.85077
1740 1 9.04814 17.967 16.0261
3072 3 16.2254 5.476 0.0949709
3568 1 16.15 3.63801 1.96867
3124 1 12.5135 16.0023 14.337
2069 1 0.0635403 9.01057 1.92075
680 3 14.2408 17.7692 14.3635
3569 1 2.11985 10.5547 1.88855
6 1 3.79277 8.93225 1.85976
575 3 3.80301 10.7566 0.225953
1569 1 5.44824 10.8401 1.83264
2070 2 7.20645 9.05001 1.79084
2579 2 7.3278 10.7362 0.069837
3074 2 5.55491 8.95336 0.211031
7 3 10.8489 8.99806 2.03484
578 2 10.7878 10.8228 0.340026
1076 2 8.99305 9.02078 0.111234
3571 2 8.93828 10.5534 1.93891
1571 1 12.5716 10.6384 1.92823
2071 1 14.5328 9.06679 1.79265
2582 3 14.3478 10.7004 0.062457
3076 2 12.546 9.07122 0.118876
50 2 14.2854 16.114 12.4597
62 2 10.7803 16.0778 16.2848
2825 1 17.8468 10.7301 0.152845
3573 2 16.0457 10.9023 1.83213
8 2 0.184596 12.5714 2.03072
2116 3 14.2743 2.02286 16.1335
1573 3 1.80963 14.2805 1.98952
2112 1 10.6532 16.1851 12.434
9 3 7.32644 12.5226 1.8797
585 1 7.25059 14.4417 0.0848993
1080 3 5.4443 12.5866 0.142936
2072 3 3.84866 12.4585 1.88951
2585 3 3.57146 14.309 0.224236
3574 3 5.49982 14.2813 1.91092
1574 1 9.0005 14.2834 2.05521
2073 1 10.7858 12.4807 2.05989
2586 1 10.8688 14.4532 0.215466
3080 3 8.94848 12.5346 0.0426118
10 2 14.2791 12.6027 1.99011
1125 3 9.02919 16.0546 14.3533
3123 1 5.55328 15.896 14.3247
3575 3 12.6297 14.3298 1.87326
303 3 17.8481 5.59391 15.988
771 1 17.9166 14.4071 0.0978458
1575 3 16.0776 14.4327 1.8115
3082 2 16.0232 12.5532 0.0201893
2755 1 7.19901 17.7917 17.8521
1084 2 1.9659 15.9491 0.160199
3622 1 12.4626 7.29409 16.2099
2074 1 0.102304 16.1296 1.83775
11 2 3.68515 16.1858 1.9
630 3 7.27238 17.7674 0.224625
2075 2 7.22277 16.0437 2.09257
3615 3 12.4213 0.125993 16.112
3084 3 5.51018 15.9634 0.113813
2111 2 3.75762 15.956 12.4168
12 2 10.9257 16.1922 1.78034
1721 3 5.61272 17.8126 12.629
1690 2 9.15419 17.985 1.90665
2693 1 10.9967 17.8954 0.182317
1619 1 5.50981 10.6356 16.1079
2076 1 14.3898 16.1463 1.73567
49 1 7.34635 16.0059 12.4571
3692 2 12.6339 17.9249 1.99783
2125 2 7.362 16.0946 16.0773
1138 1 5.47138 9.06534 17.9551
1692 2 16.111 17.7227 1.871
1148 1 5.42792 16.1482 17.7605
13 2 0.206805 2.00163 5.43295
1617 1 12.5122 3.9683 16.1801
1089 1 1.90037 1.92674 7.217
510 2 14.1702 3.80645 17.8095
3063 1 1.88227 1.9919 3.93095
55 2 14.3806 5.65933 16.1437
14 1 7.23585 1.94191 5.30585
564 3 3.72605 0.335391 3.72187
1065 1 5.5561 2.01448 3.60587
1577 3 3.6876 0.160331 7.22619
1576 3 5.42702 0.257884 5.41518
2078 2 5.45876 1.95421 7.19539
2077 1 3.67119 1.99452 5.53706
2589 1 7.23003 0.164163 7.2502
2567 3 7.2342 0.19089 3.63022
566 2 10.6615 0.156544 3.64672
2079 1 10.5553 1.79412 5.53477
3065 1 9.09035 1.93025 3.67987
3088 2 9.00336 1.84879 7.16207
3578 2 10.8499 0.182587 7.23654
3577 3 9.01277 0.174673 5.52917
15 3 12.5189 1.84933 7.20696
16 2 14.5712 1.80406 5.39311
3617 1 9.12827 3.75103 16.1197
1067 1 12.7567 1.78923 3.68655
2633 3 10.9029 3.85871 18.0083
2118 1 10.9171 5.61061 16.1771
263 3 17.811 1.86944 5.5909
1620 3 9.06342 7.19442 16.0027
1090 3 16.093 1.78675 7.1798
61 2 3.65559 16.1423 16.1866
3067 3 16.3113 1.73238 3.83719
1124 3 1.99657 16.0192 14.4034
3145 3 1.88335 16.1547 17.8234
1069 3 1.96038 5.52262 3.65898
57 1 10.8248 9.10806 16.1141
1579 2 1.95155 3.79297 5.57646
2081 3 2.03379 5.54553 7.23255
2124 2 0.0626048 16.0959 16.151
2591 1 0.14707 7.14236 7.23573
2575 1 0.133262 7.23754 3.68006
3583 2 1.99171 7.22124 5.44372
17 1 3.66614 5.52363 5.50247
571 2 7.26781 3.66526 3.6742
592 3 7.25549 7.27135 7.29932
576 1 3.65813 7.12512 3.62416
1585 3 5.43647 7.19996 5.50827
2082 2 7.24494 5.54184 5.50866
2590 2 3.74492 3.78812 7.14148
2580 3 7.25277 7.19515 3.6129
2570 2 3.58569 3.76093 3.70462
3069 1 5.46958 5.29344 3.69839
3089 2 5.33132 5.4881 7.19379
3586 2 3.76159 7.3398 7.38525
3581 1 7.14821 3.60013 7.20102
3580 3 5.38734 3.66141 5.509
18 3 10.9032 5.3192 5.44929
19 2 8.9938 5.45357 7.30355
590 3 10.8147 3.61808 7.34535
579 1 10.9252 7.26478 3.76235
1071 3 9.072 5.47633 3.6483
1587 1 10.8387 7.21214 7.20661
1581 1 9.03604 3.59383 5.49179
2572 1 10.7633 3.65923 3.68965
3587 1 9.03983 7.19101 5.43436
572 2 14.4528 3.69334 3.77473
1091 1 12.6288 5.43258 7.31373
1589 1 12.6684 7.32168 5.50942
1583 2 14.5592 3.83904 7.23583
2083 2 14.5295 5.57741 5.5362
2593 2 14.3183 7.24471 7.34161
2583 2 14.4501 7.18467 3.75421
3071 3 12.6689 5.34387 3.65982
3582 3 12.6239 3.55757 5.36329
757 3 17.8227 3.60979 3.72202
1073 2 16.1765 5.48791 3.65819
2641 2 10.7526 10.7131 17.7879
1582 1 16.1054 3.8007 5.44359
2084 3 16.185 5.62396 7.20537
2521 2 17.9556 14.4503 17.8485
1625 3 16.0615 14.197 16.1451
2826 3 17.7506 7.28752 3.67285
3589 1 16.0354 7.32676 5.44813
20 3 0.232904 8.9303 5.45114
574 1 0.207449 10.6055 3.83683
1584 3 2.03145 10.6423 5.50444
3073 2 1.97113 8.82395 3.64088
3090 1 1.94043 8.87147 7.26764
3584 1 0.28631 10.8219 7.37593
21 1 5.54544 8.98607 7.19798
22 3 7.16552 8.93889 5.38394
591 1 3.76505 10.6904 7.27055
580 2 7.23738 10.7613 3.68611
1075 3 5.62608 9.05294 3.54179
1588 2 7.18435 10.6296 7.1744
2085 2 3.78221 8.91356 5.45364
2577 2 3.8009 10.8372 3.6348
3585 1 5.51084 10.8105 5.44978
1092 1 8.94933 8.94749 7.07317
1586 1 8.98721 10.7212 5.45938
2086 2 10.7994 8.95133 5.51421
2592 1 10.8423 10.8047 7.34032
2581 3 10.8229 10.7047 3.68752
3075 2 8.98535 8.86632 3.75592
23 3 14.3135 9.09077 5.39645
582 3 14.3324 10.7181 3.64127
1077 2 12.6432 8.89107 3.81261
2087 2 12.6957 8.99425 7.27892
3590 3 14.2736 10.837 7.41579
3588 1 12.6291 10.7161 5.6211
1146 1 16.0167 12.5268 17.7874
308 1 18.0414 12.5332 16.0566
1590 3 16.191 10.805 5.56111
3091 3 16.14 9.20897 7.2714
3077 2 16.1589 9.00914 3.71494
3625 2 12.6245 14.2373 16.046
24 2 1.98949 12.5144 7.3347
3143 3 12.5916 12.5009 17.8953
1079 3 2.01437 12.477 3.70985
2088 3 0.186725 12.4612 5.42796
3613 2 16.1477 14.3935 12.7442
3591 3 1.80057 14.3085 5.42925
25 1 3.59723 12.522 5.51128
584 3 3.51498 14.2949 3.76905
1093 2 5.43842 12.5201 7.12248
1592 3 3.67871 14.3095 7.18289
1591 2 5.39329 14.2919 5.39549
2089 3 7.33029 12.5441 5.48826
2594 1 7.29446 14.3649 7.01101
2587 1 7.30621 14.3746 3.79311
3079 2 5.62231 12.5306 3.73305
26 2 10.8154 12.4045 5.53443
586 2 10.8042 14.4932 3.57855
1081 2 8.99541 12.3969 3.56609
2090 2 9.01958 12.5567 7.20336
3593 1 10.7579 14.277 7.2469
3592 1 9.03005 14.3988 5.42043
594 2 14.166 14.3301 7.165
1593 3 12.6123 14.233 5.46713
2091 3 14.3396 12.4399 5.52397
2588 2 14.3605 14.3087 3.71117
3092 2 12.4658 12.5128 7.18831
3081 1 12.6004 12.635 3.51554
27 3 16.0057 12.6381 7.23013
781 1 17.8469 14.4586 7.09484
1083 1 15.9733 12.6082 3.6449
60 1 14.3716 12.6014 15.9686
2123 1 10.8887 12.5181 16.2313
3594 3 16.0302 14.4456 5.40567
1624 1 9.06791 14.2945 16.1354
3122 2 16.2215 12.488 14.3692
1094 2 2.01574 16.1002 7.29881
2690 3 0.10588 17.7936 3.67728
3083 3 1.92239 16.1315 3.63078
3701 3 1.81159 17.8507 5.44829
29 3 7.3031 16.139 5.32853
629 2 3.6598 17.8581 3.66952
1085 2 5.37613 16.1185 3.75531
1704 2 3.8152 17.8106 7.34051
1703 1 5.46238 17.8967 5.4481
2093 2 5.47446 16.0404 7.29915
2092 1 3.63245 16.1545 5.52878
2715 3 7.34629 17.8586 7.13685
3620 3 5.48661 7.17983 16.0908
632 2 10.7925 17.8131 3.73095
2094 3 10.809 15.9802 5.44805
3093 2 9.05593 16.099 7.1135
3085 1 9.14995 16.2639 3.4902
3704 3 10.7078 17.8497 7.13989
2044 3 17.8991 12.4558 12.5675
30 2 12.538 16.1783 7.31196
31 3 14.2587 16.1696 5.47584
811 2 17.8841 14.3174 14.3174
1087 1 12.5485 16.0621 3.58075
2640 1 7.30259 7.1081 17.7556
2117 3 3.59552 5.22813 16.1888
278 2 17.8368 16.108 5.41312
523 2 10.8498 14.3165 17.8047
1095 3 16.16 16.0288 7.13214
2878 1 17.8285 17.9898 3.71717
3087 1 16.2381 16.3124 3.64042
1616 2 5.41658 3.59812 16.2111
513 1 3.68454 7.22272 17.8532
3624 2 5.6143 14.4121 16.1526
2109 3 14.4041 12.4788 12.6206
3094 1 2.03093 1.75581 10.5776
33 2 7.2163 1.98579 9.02949
595 2 3.81819 0.202495 10.73
1096 1 5.56503 1.89059 10.6069
2597 1 7.32498 0.242083 10.834
2596 1 5.57641 0.181448 8.96272
3095 2 3.70365 1.97435 8.97287
596 3 10.7944 0.132643 10.6852
1097 1 10.7597 1.84397 8.8015
3096 2 8.95999 2.01629 10.6608
3596 1 9.07948 0.152468 9.00897
54 3 7.16395 5.49482 16.0252
1098 2 12.5264 1.81434 10.6455
2098 2 14.3857 1.90053 8.99747
2598 2 14.3705 0.0151428 10.8748
1597 1 16.1164 0.111758 8.96609
2032 3 17.9085 2.01165 8.8994
1611 2 12.4896 14.4437 12.63
3097 1 16.1082 1.9499 10.7365
598 2 0.238643 3.58829 10.4717
1099 2 1.95222 5.55151 10.7024
2603 2 0.170978 7.18771 10.754
2599 1 2.03707 3.77511 8.86243
3098 1 0.148955 5.70955 8.97097
3602 1 1.9996 7.19078 9.06049
36 1 3.737 5.46398 9.0249
605 3 3.66212 7.24887 10.7595
604 2 5.44469 7.19162 9.08281
600 2 7.18547 3.79121 10.7998
1100 1 7.34903 5.47893 9.05036
2606 3 7.2608 7.1457 10.8155
2600 1 3.47274 3.66699 10.8244
3099 3 5.31532 5.44826 10.828
3599 3 5.38609 3.78849 8.96323
606 3 10.7795 7.36783 10.6452
599 1 9.11322 3.79518 8.89415
1101 2 9.07296 5.47043 10.809
1605 3 8.95058 7.24518 9.00923
2100 3 10.9616 5.39164 9.07899
2601 2 10.9523 3.64846 10.6101
601 1 14.2841 3.64366 10.7213
1600 3 12.7376 3.61095 8.91624
2609 3 14.3418 7.3493 10.6831
2608 3 12.4728 7.36687 9.02622
3101 3 14.3905 5.53685 9.12114
3100 3 12.6116 5.5285 10.8468
786 3 17.762 3.825 10.9821
1102 3 16.017 5.45706 10.8615
2648 1 7.33607 14.3857 17.9199
2602 1 16.0259 3.75073 9.05268
2122 2 3.66672 12.5389 16.019
3608 3 16.1166 7.43055 8.90229
39 3 0.136761 8.98956 8.99302
522 3 3.78942 14.3995 17.8031
602 2 1.95643 10.794 8.97225
3102 2 1.96701 8.99697 10.9185
607 1 7.32703 10.8013 10.8187
1104 1 5.45073 9.0614 10.7659
1103 2 3.71001 9.10594 9.05794
1603 3 5.5408 10.7233 9.09204
2104 3 7.29321 8.99605 9.10143
2604 2 3.78958 10.8419 10.8751
2607 1 10.8476 10.8709 10.7666
2605 1 9.04163 10.777 8.90796
3104 1 9.10131 9.05251 10.6814
3103 1 10.9075 9.13504 9.04458
42 1 14.3849 9.00349 9.06968
609 3 14.3846 10.7857 10.8202
1105 3 12.6147 9.16018 10.7822
3606 2 12.5331 10.8701 8.98649
289 2 17.8201 9.15308 8.90895
792 1 17.8128 10.8358 10.7446
608 2 15.9935 10.7364 9.14923
3105 2 16.0594 8.97405 10.8229
1107 2 2.01517 12.6117 10.778
59 1 7.46192 12.6657 16.0805
1609 3 1.96184 14.233 8.94122
2610 2 0.287915 14.2921 10.8117
610 1 3.66315 14.2944 10.6935
2107 1 3.74098 12.5533 9.04857
2612 2 7.15928 14.285 10.7685
2611 3 5.64912 14.3144 8.82016
3107 1 7.26198 12.4557 8.81547
3106 3 5.48811 12.5483 10.8242
45 1 10.8847 12.6078 9.04385
611 3 10.8272 14.3183 10.8622
1108 1 8.92256 12.5296 10.9259
3611 3 8.94041 14.257 9.13992
612 2 12.6268 14.5346 8.96207
1109 3 14.477 12.6352 9.05527
2613 2 14.3244 14.4142 10.8503
3108 1 12.6306 12.5797 10.7825
1293 2 17.7629 12.6015 8.91881
1110 3 16.1243 12.6212 10.829
1612 1 16.1421 14.4028 9.00827
2860 2 17.8544 14.3333 10.7094
1719 1 1.90814 17.747 8.91196
1623 1 1.90889 14.301 16.2131
3616 2 1.92173 3.69377 16.0944
3109 3 2.11135 16.1071 10.6794
48 1 7.2818 15.9775 8.86905
659 2 3.72231 17.7624 10.8021
1111 3 5.57598 16.153 10.6598
2724 3 7.31337 17.8193 10.8747
1123 3 12.4997 12.5974 14.3114
3110 3 3.91195 16.0496 8.99414
661 2 10.7006 17.8532 10.765
1112 3 10.7225 15.9581 8.92693
3111 2 9.04197 16.0835 10.7863
1618 3 1.90889 7.14817 16.1326
663 2 12.5391 17.9157 8.97071
1113 2 12.5047 16.0786 10.8544
2113 2 14.3153 16.1492 8.96392
2727 1 14.2249 17.9355 10.7954
625 3 14.454 14.331 14.3142
3612 3 9.05041 14.3275 12.4558
3623 2 16.1291 10.9494 16.0408
3112 2 16.0925 16.0419 10.757
3121 3 9.14037 12.5545 14.3126
2056 3 17.8227 9.1339 16.0816
1114 2 1.9105 1.92121 14.1634
506 2 0.0819376 3.65971 17.8185
34 2 7.3625 1.83634 12.5086
614 3 7.40076 -0.0597342 14.252
53 1 0.093609 5.37853 16.1334
2096 3 3.64709 1.845 12.4857
3129 1 16.3026 2.03486 17.8341
3113 1 5.52232 1.78018 14.2302
1115 3 9.06371 1.89416 14.2957
2097 3 10.6673 2.02047 12.4721
2615 3 10.7076 0.152075 14.2579
3597 1 9.10305 0.0929557 12.4019
35 1 14.4379 1.87105 12.5856
615 2 14.2664 0.0410551 14.4011
1596 3 12.5026 0.252854 12.5132
3114 3 12.4943 2.05733 14.354
2121 1 14.4248 9.10102 16.1842
801 2 17.8178 0.134065 14.3069
1116 1 15.9725 1.85639 14.288
3598 2 16.0763 0.178042 12.5215
618 3 0.241412 7.18161 14.1239
1598 1 1.7819 3.67987 12.5613
2099 2 0.180994 5.36269 12.4924
2616 1 0.0402279 3.49604 14.3532
3115 3 1.90699 5.45136 14.2918
3603 1 1.89904 7.07355 12.4853
37 2 3.63744 5.46216 12.5564
620 2 7.22818 7.22644 14.2436
616 1 3.52159 3.63357 14.2627
1117 3 5.53422 5.48431 14.3038
1604 1 5.47473 7.18119 12.622
2101 1 7.25935 5.58064 12.5014
2620 2 3.61194 7.12177 14.3453
2617 3 7.36055 3.64635 14.4662
3600 1 5.48623 3.58769 12.6434
38 1 10.8911 5.29027 12.4969
617 2 10.9654 3.74683 14.3188
1599 1 8.87582 3.69654 12.5397
2621 2 10.8254 7.15976 14.1826
3116 1 9.01074 5.40591 14.3597
3605 1 8.99743 7.15394 12.6184
622 3 14.3949 7.34113 14.2592
1118 1 12.6046 5.53607 14.153
1607 1 12.6341 7.24852 12.4447
2102 2 14.4028 5.46066 12.5456
2618 2 14.3033 3.73129 14.344
3601 2 12.7038 3.61238 12.3837
806 3 17.9674 7.34045 14.2585
1601 3 16.1499 3.72319 12.6137
2036 2 17.8941 5.66812 12.606
1621 2 12.6613 10.797 16.0529
3117 1 16.0817 5.46464 14.3775
3609 2 16.1816 7.2236 12.5523
2625 1 10.8828 14.4583 14.216
1119 1 2.031 9.00974 14.5313
1602 1 1.97524 10.8539 12.5342
2619 3 0.287826 10.6529 14.4175
41 3 7.24044 9.03105 12.4935
619 2 3.72227 10.7943 14.2684
2103 1 3.63483 8.90007 12.7038
2622 3 7.11621 10.831 14.4123
3118 1 5.40319 8.92372 14.3006
3604 1 5.47479 10.6845 12.5439
621 3 10.8226 10.7231 14.313
1120 1 8.89598 8.91723 14.3338
1606 3 9.00011 10.7073 12.5546
2105 3 10.8188 8.99931 12.5572
43 1 14.3656 9.05291 12.5045
2623 3 14.3349 10.7499 14.4508
3119 3 12.6776 9.00609 14.319
3607 1 12.732 10.7274 12.5483
46 1 10.715 12.4596 12.4435
1121 1 16.0518 8.93334 14.2789
1608 3 16.2236 10.7107 12.4981
3621 1 8.96844 10.7688 16.1837
2624 2 3.61337 14.3128 14.4091
2106 2 0.266527 12.6169 12.4783
3120 1 2.04216 12.6072 14.3353
3610 1 2.04242 14.3499 12.599
44 3 3.80496 12.5475 12.5773
624 2 7.3596 14.3202 14.3579
1122 1 5.39858 12.7553 14.397
1610 2 5.54071 14.3236 12.3883
2108 3 7.11561 12.4618 12.6519
3805 1 16.1553 17.8698 33.7129
3187 2 16.0601 16.2326 32.0662
1127 1 1.90019 1.95719 21.3739
1685 2 16.1945 10.887 33.6477
504 1 7.38681 0.168982 21.3906
64 3 7.19423 2.01576 19.7422
368 2 17.9519 9.23739 33.6932
2127 3 3.71626 2.02177 19.7027
2627 2 3.63602 0.315913 21.426
3126 1 5.41378 1.81247 21.4058
1129 1 9.17275 2.12136 21.337
2128 2 10.7627 2.01929 19.544
870 1 18.0254 11.0089 31.9917
3627 1 9.0555 0.207513 19.696
505 3 14.3677 0.204882 21.37
65 2 14.412 2.01784 19.6166
1627 1 12.58 0.245096 19.5587
3128 1 12.5875 1.93691 21.4335
3684 3 12.4765 10.8161 33.816
1554 2 12.5421 17.8304 33.8756
1131 2 16.2152 1.9464 21.5381
1183 2 12.6446 9.03864 32.0947
512 3 0.110909 7.30471 21.4466
1628 3 1.78771 3.7334 19.588
1188 3 12.6576 16.1417 31.9767
125 1 14.2121 16.2347 33.761
3130 2 1.84309 5.40539 21.3911
3631 1 1.8032 7.21876 19.5604
507 3 3.81905 3.80327 21.2889
517 1 7.32411 7.25433 21.3378
66 3 3.78159 5.52267 19.4433
1133 1 5.4445 5.60065 21.4277
1632 2 5.5194 7.30023 19.6605
2130 2 7.30675 5.49885 19.6628
2639 3 3.68439 7.23709 21.4023
2634 3 7.26353 3.84438 21.4774
3629 3 5.61138 3.72054 19.7315
509 3 10.8257 3.93039 21.327
67 1 10.8369 5.54516 19.5966
1629 2 8.9908 3.83577 19.6279
2642 3 10.7225 7.31414 21.404
3132 1 8.85592 5.62445 21.4614
3633 3 8.95547 7.22008 19.5793
520 3 14.3255 7.24092 21.5798
1135 1 12.6043 5.45352 21.6252
1634 3 12.653 7.26233 19.744
2131 3 14.4121 5.44556 19.6874
2635 1 14.4058 3.70895 21.5689
3630 1 12.5989 3.69747 19.6489
826 2 17.9012 7.13721 21.2918
1630 3 16.1598 3.74094 19.7328
2316 1 18.0321 5.54723 19.5419
2507 2 17.928 3.69791 21.4558
3134 1 16.3351 5.53617 21.4117
3635 1 16.0148 7.19356 19.6892
68 2 0.189704 8.95183 19.6214
1137 3 1.95721 8.91774 21.3176
1631 3 1.84899 10.8166 19.6605
120 1 14.368 9.09196 33.6799
514 1 3.58439 10.6597 21.3755
69 2 7.2519 9.01919 19.7072
2132 2 3.65353 9.00556 19.5537
2643 2 7.2871 10.8511 21.3676
3136 1 5.40912 9.10434 21.2019
3632 3 5.52376 10.8132 19.6225
518 2 10.8521 10.8627 21.4671
1139 3 8.93267 9.00327 21.4503
1633 1 8.93606 10.8926 19.695
2133 1 10.7628 9.0808 19.6844
70 3 14.2378 8.98104 19.6671
2645 2 14.4449 10.7224 21.5672
3138 3 12.5909 9.05219 21.5111
3634 3 12.6836 10.8353 19.6222
318 1 17.7934 8.83505 19.6146
1141 2 16.1771 8.98496 21.4616
1635 1 16.0606 10.9191 19.8024
2514 2 17.9138 10.8236 21.4808
521 2 0.206884 14.3193 21.3262
2134 3 0.0982633 12.5282 19.5873
3140 1 2.07159 12.4298 21.417
3636 1 2.01179 14.3446 19.7673
524 1 7.20565 14.2554 21.4684
71 3 3.75537 12.5108 19.6259
1143 1 5.54735 12.5832 21.4061
1636 3 5.57464 14.4632 19.445
2135 1 7.28227 12.452 19.5192
2647 3 3.71874 14.3153 21.5368
72 3 10.7729 12.3961 19.6299
2649 3 10.8702 14.2146 21.362
3142 1 8.99538 12.765 21.3453
3637 2 9.10073 14.2841 19.6176
525 3 14.2839 14.3331 21.5408
1145 1 12.5884 12.4269 21.4235
1637 1 12.6951 14.2674 19.6794
2136 2 14.4253 12.6961 19.6703
3186 2 9.00326 16.0919 32.1313
2321 1 17.8473 12.4308 19.4486
3144 2 16.2473 12.4779 21.3674
3638 1 16.0635 14.2438 19.6971
560 1 14.1584 10.8951 31.9109
73 2 0.0933833 16.1264 19.7302
1147 1 2.0069 16.0705 21.5813
3181 3 8.95721 9.18691 31.9215
695 1 7.31946 17.8354 21.3698
74 2 7.196 16.167 19.6347
1502 3 5.49729 17.8559 19.7528
2137 2 3.82674 16.1486 19.7369
2754 2 3.72207 17.8822 21.4671
3146 2 5.53904 15.9794 21.4657
1149 3 9.15799 16.0583 21.4378
2138 3 10.6837 16.0105 19.5857
2684 1 10.7681 10.8675 31.9086
2183 2 10.8436 9.02006 33.7285
1683 1 9.06339 10.8218 33.7972
75 2 14.2833 16.136 19.6689
3682 3 5.38134 10.8045 33.8114
3148 3 12.4679 16.0091 21.4108
2188 2 10.733 16.2238 33.7411
2682 3 3.75785 10.6989 32.0997
1151 1 16.1655 15.9966 21.3632
3755 3 16.2662 17.8609 19.6195
2182 2 3.70088 8.9442 33.8056
1182 3 5.71066 8.9988 31.9062
119 2 7.28585 9.10289 33.7789
3150 1 1.88606 1.98394 24.8054
559 1 7.20795 10.8845 32.0628
77 1 5.58097 1.98445 24.9712
76 2 3.85865 1.89076 23.2878
2140 3 7.23253 1.94803 23.1744
3180 2 1.97801 8.99378 32.1754
3639 1 5.43176 0.136769 23.1728
78 3 10.837 2.06877 23.02
1152 1 9.03641 1.96395 24.9346
1681 2 1.86985 10.7433 33.7711
1639 2 9.06602 0.330171 23.0383
2142 1 14.2818 1.83255 23.0599
2141 1 12.4486 1.91645 24.8963
2652 3 14.288 0.116083 24.9852
118 1 0.152271 8.90563 34.0036
1641 2 16.1234 0.182066 23.184
2187 1 3.73345 16.1463 33.8239
1552 1 5.39647 17.7813 33.8241
3151 3 16.1477 1.75784 24.9168
528 3 0.127195 7.18289 25.0525
80 3 1.87729 5.44967 25.0007
79 1 0.261604 5.52033 23.0509
1645 3 2.06349 7.34541 23.2462
1187 2 5.5394 16.2082 31.9805
3642 2 1.97835 3.70942 23.1367
527 2 3.69377 3.83141 24.9751
81 3 7.17281 5.47421 23.1707
1153 3 5.50301 5.32985 24.9415
1648 1 3.73821 7.21427 25.0295
1643 1 7.30294 3.65956 24.9452
1642 2 5.56423 3.63633 23.007
2143 1 3.66681 5.37174 23.1072
2655 1 7.15333 7.24012 25.0463
3648 3 5.44959 7.35989 23.2004
1649 2 8.85902 7.31915 23.1092
2145 1 8.85397 5.59516 24.9541
2144 3 10.6714 5.72614 23.2611
2653 3 10.8477 3.72923 24.8217
3650 2 10.7717 7.42268 24.832
3644 3 9.03726 3.72263 23.2922
530 2 14.3588 7.27057 25.0325
82 2 14.5058 5.46629 23.2415
1644 1 12.5551 3.74814 23.1204
3152 1 12.6143 5.55572 24.8737
3652 3 12.5301 7.35613 23.2481
3646 3 14.4244 3.50175 24.7826
124 3 7.24905 16.1874 33.7929
740 2 3.63585 17.8925 31.9624
83 3 16.28 5.61941 25.0319
1651 1 16.1996 7.2879 23.251
3801 2 1.98736 17.8079 33.7853
3645 3 16.2027 3.67714 23.1006
1154 3 1.90898 8.88109 24.9543
1646 2 0.0676423 10.7234 25.0436
2146 2 0.223135 8.89003 23.2638
3647 1 1.63604 10.8313 23.3264
84 3 3.61299 9.10309 23.232
1647 3 5.49419 10.7107 22.9573
2148 3 7.18486 9.02007 23.2768
2147 1 5.53121 9.25451 24.9281
2654 3 3.65365 10.736 24.9443
3651 2 7.28862 10.7664 24.95
529 2 10.7436 10.8011 24.9781
85 1 10.6467 9.0517 23.2416
3153 2 8.81647 8.9268 25.0065
3649 1 9.04799 10.8584 23.2133
86 2 12.5014 9.12574 24.8921
1652 3 14.3082 10.7271 24.9812
1650 1 12.5494 10.7669 23.1974
2149 1 14.4505 8.98771 23.2206
1155 3 16.1503 8.9695 24.8763
1835 2 17.9262 10.8054 24.9301
2333 2 17.8386 9.00939 23.1941
3653 2 16.2066 10.7884 23.1883
3185 3 1.79695 16.072 31.9637
1653 1 1.92255 14.2833 23.2286
2150 3 1.81043 12.6335 25.0138
2801 3 0.0248251 17.8602 32.1177
531 3 7.28009 14.2439 24.9895
88 2 7.40542 12.6323 23.2499
2151 1 3.66018 12.363 23.2416
3154 1 5.39038 12.4254 25.0364
3655 2 3.5589 14.2142 24.983
3654 3 5.43423 14.2074 23.344
89 1 9.00458 12.6697 24.9114
1655 3 10.8021 14.3503 24.9433
1654 2 9.06947 14.3774 23.2978
2152 2 10.7377 12.5254 23.1918
90 3 14.4733 12.7 23.1997
1156 1 12.4821 12.6108 24.7711
2657 2 14.3338 14.1893 25.0718
3656 1 12.5555 14.2479 23.1038
337 3 17.8847 12.6466 23.2968
1656 1 16.2013 14.4532 23.1052
2153 1 16.1037 12.4841 24.9424
123 1 0.167741 16.1634 33.9241
1513 1 1.79754 17.8181 23.0056
2154 2 0.151261 16.1607 23.1549
3688 1 16.014 14.4705 33.7762
3155 3 1.80669 16.0869 25.169
715 2 7.30411 17.7866 24.9541
92 3 5.45088 15.911 25.0853
91 3 3.66486 15.9715 23.3497
2155 3 7.25444 16.029 23.141
3767 2 3.69309 17.7557 24.964
556 3 0.183743 10.6707 32.033
93 1 10.6408 16.1986 23.3365
1157 1 8.96661 16.0839 24.9319
1515 2 8.93331 18.0212 23.1026
3685 1 16.1191 7.29325 33.8863
2157 3 14.2754 15.9706 23.3468
2156 3 12.5004 16.1715 24.8849
3182 3 16.0474 9.11638 31.9825
2366 3 17.998 5.55003 33.8258
1519 3 16.1543 18.006 23.1381
2561 1 17.9067 14.3826 31.9193
1186 3 16.1244 12.693 31.9246
3156 1 16.2939 16.0742 25.0088
1680 1 16.1994 3.71935 33.7388
94 3 0.267296 1.96465 26.8226
1158 3 1.98033 1.92299 28.4819
1181 1 16.1602 5.54644 32.0926
866 2 17.8757 3.73195 31.9249
534 1 7.32827 0.283555 28.475
1159 2 3.69962 2.07135 26.6005
2159 3 7.30572 1.97412 26.791
3680 3 12.4484 3.68625 33.7537
3157 1 5.56285 2.03825 28.5068
1160 2 9.08261 1.95469 28.586
1658 3 9.00021 0.266038 26.5825
2659 1 10.7143 0.290117 28.3796
3158 2 10.7531 1.97475 26.6343
535 3 14.4213 0.154393 28.6913
97 1 14.2292 1.9796 26.694
2660 3 12.6081 0.0786326 26.9221
3159 2 12.7494 1.94096 28.4472
3184 1 12.6108 12.7731 31.9075
2688 2 14.5366 14.4239 32.0017
1161 3 16.1634 1.97381 28.4282
3660 3 16.0943 0.0564694 26.7467
536 3 1.92981 3.75579 26.8065
540 2 0.30539 7.00986 28.6009
1162 1 0.183764 5.53271 26.7879
1664 2 1.9853 7.23485 26.7156
2186 3 14.4181 12.5056 33.7341
3160 3 1.93846 5.56911 28.6469
537 1 3.78051 3.83222 28.5203
543 1 7.29957 7.14321 28.5595
1163 2 5.43587 5.52257 28.5135
1661 2 5.46211 3.76591 26.94
2162 1 3.62489 5.37337 26.6091
2668 1 3.74663 7.1404 28.3851
2667 1 5.53494 7.24604 26.7482
2663 1 7.34713 3.77064 28.505
3161 1 7.19635 5.33837 26.8619
538 1 10.9133 3.60624 28.4752
99 1 10.9771 5.52346 26.644
2669 2 10.7028 7.29895 28.3832
2662 3 8.96173 3.67518 26.6508
3162 1 9.10681 5.51199 28.483
3668 2 8.80953 7.33127 26.6599
545 3 12.538 7.43244 26.7351
546 2 14.2605 7.45211 28.4355
1165 1 14.4072 5.38352 26.7016
1164 1 12.5929 5.53052 28.3705
2664 1 14.5096 3.80114 28.3809
3663 1 12.4964 3.66357 26.5267
853 2 17.9005 7.36862 28.5093
539 2 16.0394 3.60983 26.511
1349 3 17.9718 5.56822 26.7176
1670 2 16.0607 7.29025 26.8816
2536 1 17.9577 3.77801 28.5205
3163 3 16.1609 5.49074 28.4814
1166 2 1.84095 8.91307 28.4284
2165 2 0.0210374 9.01205 26.8037
2666 1 0.0897636 10.7554 28.5768
2665 1 1.83329 10.6807 26.6915
541 1 3.60738 10.6969 28.6154
103 1 7.30691 9.16977 26.7811
2670 3 7.18086 10.8696 28.4922
3165 3 5.4069 9.10428 28.5638
3164 2 3.72466 8.84083 26.7661
3666 2 5.33042 10.7259 26.7306
542 1 9.07458 10.8723 26.7112
544 1 10.7226 10.8438 28.4425
1168 2 9.12512 9.0743 28.399
1167 1 10.707 8.98304 26.7107
1668 1 12.5346 10.8788 26.7181
2168 3 14.2255 8.9659 26.7575
2672 2 14.2362 10.7484 28.5235
3166 1 12.5141 8.98473 28.4681
1169 2 15.9929 9.03284 28.6735
2352 1 17.7893 8.9962 26.7837
2671 3 16.1805 10.6962 26.7232
2542 2 17.8726 10.8722 28.58
547 3 0.116425 14.4253 28.5962
3168 3 1.85874 12.4784 28.5565
3167 3 0.206087 12.5408 26.8326
3672 3 1.79637 14.2808 26.869
548 2 5.60453 14.2271 26.7838
549 3 7.23697 14.3429 28.5615
106 1 3.63581 12.6719 26.8335
1171 2 7.20789 12.4639 26.7336
1170 1 5.54537 12.5888 28.5786
2673 1 3.70018 14.3007 28.6175
1673 1 9.05687 14.2132 26.7925
2171 3 10.8316 12.495 26.8461
2674 1 10.8488 14.5863 28.5487
3169 1 8.91824 12.6584 28.503
550 1 14.3921 14.3263 28.5531
1172 2 12.5795 12.627 28.5731
2675 1 12.546 14.3517 26.7206
3170 3 14.2575 12.557 26.8112
860 3 17.9115 14.2937 28.3846
3417 1 17.837 12.4881 26.763
3171 2 16.147 12.4397 28.4344
3675 3 16.1126 14.2344 26.7241
721 1 0.0803679 17.77 28.4463
1687 3 12.6238 14.3557 33.766
1173 1 1.94884 16.1076 28.3272
3782 3 1.9963 18.0678 26.7436
724 3 7.32785 17.7395 28.5176
722 3 5.44826 17.7989 26.6663
1174 3 3.67312 16.0027 26.8185
2174 1 7.1322 15.9779 26.7741
3179 1 12.4471 5.51797 31.9834
3172 2 5.50342 16.0004 28.5879
1175 2 8.99971 15.997 28.5988
1535 1 9.04961 17.7937 26.7778
2786 3 10.6751 17.6906 28.5419
3173 2 10.6302 16.2244 26.686
727 3 14.402 17.7812 28.4142
112 3 14.3637 16.1062 26.7096
2788 1 12.4555 17.8453 26.8297
3174 2 12.5901 16.0929 28.5576
3687 3 8.99215 14.3155 33.7583
1185 3 9.01257 12.5574 32.004
1176 2 16.082 16.166 28.5597
3788 1 16.2661 17.8274 26.7592
1657 2 2.01577 0.23807 30.3321
122 3 10.8292 12.6073 33.7575
95 2 3.75139 1.90584 30.3321
2160 3 7.4047 2.01569 30.3546
2685 3 14.3882 7.19868 32.0564
96 2 10.8998 2.04952 30.1866
1659 2 9.17941 0.161017 30.2266
2161 3 14.2864 2.09248 30.2509
3659 1 12.6935 0.33237 30.2067
2181 2 14.1951 5.49043 33.807
562 1 10.9129 14.3291 32.015
98 1 0.054732 5.5374 30.3316
1665 3 2.03462 7.3613 30.347
3661 3 1.93855 3.66344 30.2576
100 2 7.27691 5.45509 30.1893
1662 3 5.66355 3.77085 30.2857
2163 3 3.86622 5.56928 30.1975
3667 1 5.50355 7.20084 30.259
1667 2 9.00763 7.36407 30.1757
2164 2 10.7711 5.47144 30.1005
3662 3 9.10076 3.78926 30.1732
101 3 14.3459 5.53435 30.2313
1663 1 12.5904 3.74609 30.1631
3670 3 12.5337 7.25574 30.2842
348 2 17.783 5.54892 30.3157
1671 1 16.033 7.42098 30.2937
3664 3 16.0798 3.89007 30.2567
3183 3 5.35801 12.4904 32.1559
3665 3 1.80901 10.7151 30.2686
102 3 3.68652 8.91776 30.3869
1666 3 5.43036 10.8627 30.2862
2167 2 7.39754 9.05958 29.9978
104 3 10.8159 9.08645 30.3167
3669 1 9.08802 10.8642 30.1546
1669 3 12.3531 10.9221 30.242
2169 2 14.2898 9.06613 30.2801
2353 2 17.9182 8.93295 30.2375
3671 2 16.2294 10.8974 30.1932
2687 1 7.22187 14.3304 32.1011
1672 3 1.80972 14.3319 30.1906
107 2 7.2027 12.5444 30.3537
2170 3 3.6052 12.477 30.2957
3673 2 5.5083 14.2893 30.4898
1674 1 8.99331 14.4535 30.3966
2172 2 10.7119 12.6838 30.175
108 2 14.3074 12.5584 30.1965
3674 2 12.6026 14.4653 30.2111
2185 1 7.2234 12.354 33.7508
1675 1 16.035 14.3113 30.0431
1684 2 12.4961 7.22419 33.7353
2173 2 -0.0847504 16.1823 30.2103
110 3 3.6466 16.1169 30.2574
2175 2 7.12058 16.2086 30.2369
555 1 14.2063 3.75268 32.0858
111 3 10.841 16.1252 30.3502
3683 2 9.09871 7.35991 33.7448
2176 1 14.4581 16.1708 30.2323
2680 1 10.8284 3.79412 32.0208
1679 3 9.28073 3.71923 33.8586
1686 2 5.32204 14.2899 33.6619
121 1 3.66786 12.5883 33.8261
2676 1 -0.0883655 0.189154 31.9404
3175 2 2.02603 1.95959 31.9534
1180 2 9.23988 5.47344 32.0783
117 1 10.9727 5.52297 33.9025
114 2 7.42292 1.99747 33.7856
1177 1 5.50002 2.0716 31.9066
558 1 10.8179 7.30576 31.9521
2177 2 3.86017 1.95138 33.6693
3679 2 5.61229 3.78292 33.8353
3178 2 5.57017 5.4511 32.0822
2178 2 10.8087 1.9293 33.9109
3176 3 9.29623 1.97153 32.0468
2679 2 3.74179 3.68717 32.0783
115 2 14.5165 2.02037 33.9182
1178 3 12.5244 1.88815 32.1103
1677 1 12.7098 0.142928 33.8856
2678 1 14.4117 0.223634 32.0214
561 3 3.47065 14.3317 31.9953
3686 1 1.93747 14.3665 33.8936
3177 3 16.0677 1.9879 31.9602
3678 2 16.2028 0.212411 33.7379
2686 2 0.0142109 14.2606 32.1093
1179 2 1.96245 5.58735 31.9085
1678 1 1.76143 3.937 33.6556
2184 3 0.0852053 12.5019 33.9701
1184 1 1.69094 12.4848 32.0836
3681 2 2.04426 7.11033 33.8537
554 2 7.38312 3.70584 32.0724
557 2 3.70271 7.22467 32.1912
116 2 3.73537 5.37582 33.8321
1682 3 5.64063 7.45008 33.7355
2180 3 7.3442 5.55543 33.6718
2683 1 7.2901 7.28823 31.8047
3149 1 16.1499 16.0303 17.9291
3135 1 1.94477 8.90967 17.8266
565 2 7.25369 0.217852 35.4996
3064 2 5.60992 2.08141 35.4412
1128 2 5.32827 2.00258 17.9015
1066 3 9.07613 1.93432 35.6807
1136 1 16.1544 5.3201 17.9091
3125 1 1.851 1.77473 18.0146
573 3 0.0829989 7.10687 35.6456