ITEM: TIMESTEP
5000
ITEM: NUMBER OF ATOMS
4000
ITEM: BOX BOUNDS pp pp pp
9.8790324660498641e-02 3.5635269675339416e+01
9.8790324660498641e-02 3.5635269675339416e+01
9.8790324660498641e-02 3.5635269675339416e+01
ITEM: ATOMS id type x y z
1 1 0.0694179 2.07462 1.83194
1563 3 0.109438 0.170637 0.066811
2064 3 1.82557 1.97095 0.151606
3561 1 1.91291 0.0418214 1.78474
564 3 3.56926 1.82027 1.94837
565 3 7.3608 1.9848 2.09941
1565 3 7.21388 0.207478 0.259659
2065 2 3.72741 0.0956788 0.0191991
3061 3 5.56076 2.01785 -0.0260667
3562 3 5.53778 0.276317 1.71137
566 3 10.8821 1.85583 1.778
1070 3 10.9006 0.0930191 0.0252819
3063 2 9.13126 0.0486841 1.8058
3062 3 9.02003 1.82622 0.0871351
567 3 14.3909 1.95848 1.84021
2566 1 14.3067 0.179958 0.117886
3064 2 12.5863 1.81869 -0.0513904
3563 3 12.6434 0.20877 1.93971
2 3 17.7429 0.160465 0.00992524
3 1 16.1225 -0.00224703 1.82827
3066 2 17.8053 2.02777 1.9157
3065 1 16.2291 1.93379 0.0604003
4 3 2.11549 5.48489 -0.120366
5 2 1.72608 3.75261 1.78586
6 3 1.92889 7.23787 1.83995
1071 1 0.225401 5.6689 1.84288
3067 1 -0.108835 3.76801 0.0891482
3565 2 0.22066 7.23032 0.0336612
7 3 5.45911 5.41404 0.164176
8 3 3.75435 7.25015 -0.100566
1072 1 7.14202 5.31564 1.69489
1075 3 5.43816 7.24022 1.90303
1074 3 3.56922 5.26923 1.94025
1567 1 7.16402 7.41878 -0.171613
2570 2 7.26895 3.64189 0.0395311
2569 2 3.58813 3.79083 0.1149
3569 3 5.41304 3.61715 1.76837
9 1 8.95444 5.45218 0.159874
10 1 9.10646 3.48985 1.90443
1077 2 10.7732 7.06772 0.0236371
1076 2 10.7277 5.27763 1.79831
1568 2 8.91876 7.25329 1.73789
3068 2 10.5703 3.52452 0.0707455
11 1 12.3478 5.24587 0.0624882
12 1 14.322 3.51085 -0.162114
570 2 12.6089 3.59864 1.75617
1571 3 14.2378 7.15996 -0.0556916
1570 1 14.3062 5.40582 1.64019
1569 1 12.4852 7.0596 1.76001
572 2 16.1046 3.58417 1.81393
1081 1 15.9996 7.06043 1.60301
1079 2 17.772 5.44111 1.77757
1078 1 15.9336 5.28376 0.0394089
1573 2 17.8481 3.61505 0.0813503
2070 1 17.7703 7.32686 0.060338
575 3 1.78606 10.6951 1.98543
1082 2 1.94792 9.03343 -0.0895381
1574 2 0.0620313 8.79941 1.78432
3070 3 0.179813 10.7789 0.0195683
576 1 3.46233 10.922 0.0582296
1085 1 5.30909 9.13825 0.0594392
1083 2 5.44874 10.8798 1.73757
1577 3 7.21705 10.8221 0.124578
1576 1 7.29804 9.0583 1.86676
1575 1 3.69855 9.14669 1.86726
14 3 10.7111 10.7212 0.000888679
1087 2 8.96887 10.9152 1.8883
1086 3 9.02746 8.93662 0.105272
2071 2 10.7173 8.62051 1.83778
580 3 12.3595 10.4856 1.71556
1088 3 14.4253 10.7798 0.145467
2073 3 12.4395 9.03911 -0.0458276
2074 3 14.2246 8.93996 1.7742
15 2 17.8503 8.86437 1.95784
1581 2 16.0617 10.7299 1.88866
2076 3 17.7797 10.5958 0.119427
2075 2 15.8657 9.05383 0.153752
2079 3 1.86052 12.4599 0.256575
2078 2 1.8487 14.2955 2.04039
2077 3 0.197837 12.6618 1.84273
2572 3 0.142073 14.2876 0.0238312
2082 2 5.49184 14.2758 2.03549
2081 3 3.64046 12.4243 2.00119
2080 1 5.39203 12.6207 0.141078
2576 2 6.928 14.271 0.0517082
2575 2 7.31942 12.7299 1.87296
3071 1 3.67867 14.2965 0.281124
1583 2 9.04841 14.477 1.85409
2084 1 10.7913 14.3643 0.071061
2579 3 10.8295 12.4087 1.77127
3073 1 9.01527 12.5023 0.263248
2085 2 12.5155 14.3042 1.5723
2580 3 14.3076 12.6018 1.88826
3074 2 12.6151 12.5216 0.0834767
3574 3 14.4146 14.3458 -0.00032309
581 2 17.7794 12.5524 1.82918
1089 3 17.863 14.4772 0.0938842
2583 1 16.1447 14.2625 1.8486
3075 2 16.048 12.5436 -0.0168408
16 3 0.0588557 17.9194 0.099787
2086 1 1.87834 17.9165 1.81307
2584 2 0.155774 16.2491 1.7841
3076 2 1.85191 16.1097 0.00324475
17 1 5.43164 16.0083 0.0972343
1090 2 3.78466 17.7954 0.170797
2585 1 7.27132 17.765 -0.0953897
3079 2 5.49387 17.8322 1.77094
3078 3 7.24576 16.1004 1.79044
3077 3 3.59653 15.9313 1.80846
18 2 9.01019 16.0748 0.121404
1585 1 10.6407 17.9089 -0.0230278
3080 3 10.7146 16.2183 1.95921
3578 2 9.07033 18.0262 1.91732
19 1 12.4217 16.2121 -0.143307
2088 2 14.065 17.9215 -0.0131089
3081 1 14.1467 16.0871 1.75613
3581 2 12.4342 17.7092 1.82384
20 1 15.9199 16.2313 -0.0797494
1586 2 17.5894 16.2423 1.72347
3083 3 15.9051 17.8989 1.73965
3082 2 17.8876 17.8731 0.0269909
584 3 1.91705 1.73192 7.24951
1564 2 0.196183 -0.00227409 3.70247
2588 2 1.7762 0.032936 5.50853
2563 2 1.79197 1.7591 3.49034
3084 3 -0.0645277 -0.0351365 7.4223
3583 3 0.0648137 1.97018 5.44339
22 2 5.41442 1.84091 7.39403
1069 2 3.55179 -0.0474531 3.65649
1566 3 7.38067 0.0148432 3.68008
2089 2 5.41076 0.0771652 5.52625
2590 1 3.73128 -0.0556466 7.47218
2564 3 5.36828 1.8648 3.63025
3085 1 7.25307 0.105518 7.53055
3585 3 3.54779 1.8502 5.44089
3584 1 7.03678 1.70972 5.50426
586 2 9.10807 1.8564 7.23591
2066 2 10.6672 0.115688 3.57356
2593 2 8.89156 0.0601285 5.65237
2565 1 9.0717 1.91052 3.8245
3086 2 10.7302 0.135926 7.15315
3586 3 10.7538 1.89118 5.5064
23 3 12.5591 1.7492 7.22899
24 1 14.3873 0.0179015 7.00898
25 3 14.2769 1.94946 5.38189
2568 1 14.1719 0.0891061 3.57136
2567 2 12.547 1.83019 3.82888
3087 2 12.512 0.226176 5.48513
568 2 17.9622 0.000873385 3.55897
588 3 16.1919 1.77445 7.18298
1587 3 17.919 -0.0343458 7.09596
3088 3 16.1501 0.054842 5.36143
3588 1 17.9203 1.80183 5.41168
3564 3 16.1748 1.8354 3.7884
27 3 2.08292 5.27942 7.27241
28 1 1.95424 7.22955 5.58953
589 3 0.283316 5.40514 5.46728
2067 1 0.0673138 3.68611 3.63087
3090 1 1.98332 3.51756 5.30653
3590 2 0.158312 7.14066 7.1438
3589 1 0.116535 3.66958 7.17546
3567 3 0.27352 7.18196 3.62643
3566 1 1.99547 5.41604 3.75999
29 3 3.69286 3.40917 7.06994
593 2 3.82425 7.20415 7.2519
592 3 7.29611 5.44594 5.40079
591 2 7.15875 7.19174 7.34725
590 2 3.68679 5.42387 5.25511
1095 3 5.34549 5.3929 7.39926
1094 2 5.55719 7.11223 5.32565
1073 1 3.67824 7.2089 3.63114
2068 3 7.24807 7.27299 3.47718
2069 3 3.60987 3.57775 3.56534
3593 2 5.51752 3.75923 5.39707
3592 1 7.10054 3.67517 7.24489
3570 1 5.58289 5.4693 3.41771
3568 1 7.05636 3.62413 3.80055
31 1 9.13678 3.73785 5.60408
569 3 10.757 7.03895 3.62741
594 2 10.6363 5.50305 5.37893
1097 2 8.933 5.45172 7.13037
1590 2 8.91778 7.15528 5.32436
1589 3 10.7213 7.22491 7.00238
3594 1 10.7991 3.57716 7.16142
3572 3 10.7018 3.52301 3.66941
3571 3 8.87263 5.48597 3.39707
33 1 12.6993 3.61627 5.50132
35 3 14.4534 3.71902 7.16588
571 2 12.5677 5.36264 3.77152
595 3 14.3404 7.34184 7.10508
1100 2 14.3743 5.53128 5.4084
1099 1 12.6506 5.51031 7.04583
1592 1 12.7087 7.42855 5.30679
1572 2 14.289 7.09737 3.58366
3069 2 14.3955 3.79749 3.5294
573 1 16.189 5.4479 3.5623
1080 2 17.8631 3.53952 3.68763
1595 1 16.1055 7.09451 5.39489
1594 2 16.242 5.47717 7.07679
2094 1 17.7821 7.27533 7.30274
2092 3 17.8104 3.66641 7.02868
2571 3 18.0202 7.15344 3.52783
3092 1 17.8961 5.46586 5.42676
3595 1 16.0799 3.73614 5.3729
13 3 0.147527 10.7261 3.81489
597 2 0.0846212 10.6853 7.20693
596 1 1.93142 10.8407 5.59383
574 1 2.0398 8.86472 3.67881
1102 1 1.98925 9.12282 7.21502
1101 3 0.255209 9.07593 5.49558
38 2 3.829 10.8216 7.00712
578 2 3.83064 10.6651 3.61075
577 3 5.4438 9.02834 3.54749
1106 3 7.16236 10.9252 7.15287
1104 3 5.4297 10.6832 5.38815
1103 1 3.78301 9.0144 5.42212
1084 3 7.2638 10.8327 3.52236
1597 3 7.25487 8.9229 5.36778
1596 2 5.4883 8.96585 7.10674
39 1 10.7726 10.5571 7.20981
599 1 8.8831 10.6875 5.59586
579 2 10.6832 10.7147 3.72653
1107 1 8.81547 8.92146 7.16283
1578 1 8.89392 9.04473 3.51192
2097 1 10.7527 8.98996 5.19902
1108 1 12.4843 10.4951 5.28349
1598 2 12.5779 9.16018 7.12939
1579 2 12.4204 8.8475 3.63015
2072 3 14.1523 10.641 3.39556
2099 2 14.1733 10.924 7.16856
2098 2 14.4042 9.02554 5.32532
1599 2 16.0892 9.14108 7.26271
1580 1 16.037 8.89685 3.67275
2100 2 16.0995 10.6514 5.27961
3093 3 17.8512 10.8677 7.27233
3597 3 17.8223 8.98538 5.56162
3573 1 17.9139 10.6723 3.66541
1110 3 0.238701 14.3837 7.30306
1582 3 1.94998 12.4252 3.70466
2103 3 1.83284 12.3336 7.23386
2102 3 1.78438 14.3668 5.36482
2101 1 0.219208 12.5602 5.42377
2573 1 0.225395 14.3456 3.57551
1112 1 7.16702 14.4655 7.17572
1600 1 5.36903 12.5487 7.22484
2104 1 5.48692 14.3135 5.38375
2083 3 3.70878 14.3511 3.71338
2601 1 6.9939 12.5488 5.44869
2600 3 3.80193 12.5869 5.31234
2599 2 3.57655 14.2447 7.09186
2577 2 7.3306 14.3853 3.70359
2574 3 5.50489 12.4613 3.59267
2604 1 8.9205 14.3999 5.43009
2603 3 10.8269 14.4411 7.13935
2602 1 10.9002 12.4694 5.29291
2578 1 9.06512 12.834 3.70345
3097 3 9.09638 12.7094 7.02852
3072 1 10.9855 14.3252 3.41673
602 3 14.4083 14.1162 7.1281
1603 1 12.4841 12.4816 7.14996
2605 1 14.2531 12.4606 5.21463
2581 1 12.5573 12.6465 3.51397
3098 1 12.6412 14.0607 5.31751
3575 1 14.4605 14.3057 3.5499
1114 2 17.9583 12.594 5.2109
1584 3 17.8341 14.3482 3.57475
2582 3 16.063 12.4356 3.6635
3100 3 16.122 14.2426 5.32756
3099 1 16.0646 12.4654 7.20725
3599 3 17.9389 14.2841 7.18031
582 2 0.0214452 17.7546 3.63474
1605 2 2.03854 17.8905 5.2253
1604 2 1.94695 15.9791 7.22975
3104 2 0.0822075 15.8765 5.42558
3103 1 0.0365243 17.9826 7.18798
3576 3 1.84916 16.1341 3.65111
2087 2 3.69565 18.0071 3.58799
2607 1 5.44898 17.7695 5.54946
2586 2 7.32426 18.0003 3.53558
3107 2 7.1964 17.9521 7.18883
3106 3 5.34914 15.9371 7.09523
3105 2 3.61427 17.716 7.08942
3602 3 3.59804 16.1868 5.39749
3601 2 7.12655 16.1175 5.23365
3577 2 5.38714 16.2253 3.54669
1091 1 10.9039 17.7399 3.65695
2107 1 8.95273 16.0265 7.13399
2608 1 8.99158 17.7238 5.38537
3109 2 10.795 17.7146 7.19674
3603 2 10.8705 16.0678 5.25124
3579 1 8.98899 16.0867 3.64683
41 3 14.3468 16.0542 5.38205
2610 2 12.6884 17.8087 5.44369
2609 2 14.4699 17.8534 6.99322
2587 1 14.3715 17.8634 3.6958
3604 2 12.7606 16.1574 7.19719
3580 1 12.6881 16.1611 3.48573
583 3 16.1025 16.3566 3.54228
1606 3 17.8981 17.9709 7.32048
2109 1 16.1029 15.9474 7.12649
3112 1 16.0482 18.117 5.29696
3110 3 17.8255 16.2508 5.43719
3582 3 17.9444 17.8761 3.61241
21 3 0.087043 1.8582 8.9883
604 3 0.128932 0.147134 10.7716
2110 3 2.02571 1.8743 10.7885
2589 2 1.9761 -0.0269531 9.17165
585 3 7.34067 1.94071 8.98245
1092 3 5.61839 -0.0594948 9.27941
1608 1 7.37388 0.199671 10.798
1607 2 3.72925 0.161031 10.9117
2111 3 5.51083 1.76724 10.7768
2591 1 3.65894 1.92148 8.99498
1116 1 10.8996 -0.00717002 10.8254
2612 2 9.22436 1.88406 10.8372
2592 1 10.9275 1.62301 9.03868
3587 2 9.04325 0.160462 8.93278
587 1 14.4196 1.8462 8.99381
1609 1 14.2383 0.149749 10.8094
2090 1 12.6177 -0.00493858 9.0284
2613 3 12.5767 1.92109 10.712
26 2 16.0137 0.135685 8.8923
2594 2 17.784 1.85616 8.92259
3116 2 16.1266 1.81704 10.655
3115 3 17.6973 0.0490392 10.5916
1093 1 2.13866 7.17987 8.8908
2091 2 1.89617 3.62534 8.9775
2615 3 0.138427 3.47562 10.8106
3118 2 0.303812 7.20104 10.7815
3117 1 1.78861 5.34732 10.9714
3089 1 0.113358 5.42686 8.99669
30 3 5.43901 3.62488 8.92557
45 3 7.23219 7.34886 10.7052
1096 2 3.65389 5.32598 9.12922
2112 1 7.41477 3.63282 10.7535
2616 1 3.66247 3.5362 10.8362
3091 1 7.40187 5.49023 9.1726
3608 3 3.77741 7.00977 10.8125
3607 3 5.36721 5.17986 10.7403
3591 1 5.47391 7.35613 9.03939
46 1 10.9 7.2702 10.7083
1098 1 10.6536 5.45522 8.94716
1591 3 9.10717 3.55842 8.9541
1588 2 9.0615 7.3069 9.06718
2113 1 10.8666 3.66145 10.9021
3609 1 9.16317 5.54505 10.6952
32 3 12.674 7.09444 8.71241
34 3 12.613 3.58203 8.90428
36 1 14.3071 5.36367 8.81399
609 1 14.0023 7.12228 10.7641
3119 3 14.5466 3.69418 10.834
3611 1 12.7233 5.28523 10.6134
1120 1 17.9849 3.67546 10.7766
1615 1 17.8216 7.16083 10.8046
1593 1 17.6262 5.43171 9.00388
2093 1 16.0219 7.36063 9.01344
2595 3 16.1267 3.66001 8.88128
3612 3 15.8825 5.49555 10.7868
48 1 1.81743 8.95589 10.771
2095 1 0.315638 9.02384 8.84392
2596 2 1.98988 10.6786 8.92472
3120 1 0.244704 10.6887 10.5346
37 2 3.92795 9.12802 8.89528
49 2 5.41869 8.93981 10.7568
612 1 7.36362 10.7948 10.7169
1105 2 5.52967 10.871 8.92021
2096 2 7.26631 8.96176 9.08021
3121 1 3.71997 10.7508 10.8073
613 3 9.04436 9.10677 10.6808
598 3 10.7985 9.0001 8.87374
3613 1 10.8176 10.7953 10.7379
3596 2 8.89878 10.7319 8.88233
50 2 14.1876 10.7003 10.7035
614 3 12.4566 9.03766 10.793
2598 2 12.5385 10.8567 8.91344
2597 2 14.2761 8.99019 9.01403
51 2 17.6591 10.7025 10.811
600 1 17.8703 9.00951 9.20865
1122 1 15.8792 8.91733 10.8234
1109 3 15.9258 10.8334 9.07268
616 3 0.174187 14.3152 10.7857
601 3 0.275222 12.4766 9.08569
1123 3 1.78715 12.5408 10.8001
3094 2 1.80366 14.3954 8.96402
1124 3 5.54948 12.5087 10.6335
1111 1 5.414 14.3392 9.03454
1619 2 7.25131 14.4752 10.6681
1618 3 3.47011 14.181 10.7925
1601 1 7.37067 12.6011 9.06205
3095 3 3.61939 12.616 8.94727
617 3 10.7026 14.3731 10.5851
1125 2 9.03354 12.6507 10.718
3096 2 9.01149 14.5 8.99116
3598 3 10.8135 12.5318 8.76478
1126 2 14.4187 14.3657 10.7883
1113 2 12.5511 14.3692 8.78068
1620 2 12.4262 12.6245 10.8322
1602 2 14.1525 12.5862 9.14185
1621 2 15.8658 12.5524 10.6974
3126 1 17.7076 14.2201 10.7576
3102 3 16.1095 14.3726 9.07325
3101 3 17.8094 12.5793 9.00224
1623 2 0.132289 18.044 10.775
2119 3 1.96561 16.1405 10.7506
2606 1 1.96814 17.8848 8.89953
3600 3 0.0717352 16.216 9.05593
40 3 7.14392 16.1979 8.85249
619 1 3.81183 17.806 10.6647
1127 3 7.32942 17.7172 10.7449
2120 2 5.42475 16.0295 10.9107
2106 1 3.73862 15.9212 8.9071
2105 1 5.32941 17.7694 8.85759
1624 2 10.8851 18.0338 10.5728
2108 2 10.9201 16.2466 8.8867
2625 2 9.36456 16.1333 10.6907
3108 3 9.10327 17.7297 8.94179
603 2 14.3197 15.9517 8.83213
1115 2 12.6313 18.0358 8.83558
2626 3 12.6223 16.185 10.7923
3620 1 14.327 17.9867 10.5836
2628 1 16.1454 16.1466 10.7173
2611 1 18.0113 15.9756 9.01243
3127 3 17.8212 17.9152 10.6706
3111 1 16.0592 17.9363 8.87652
42 2 0.129403 1.95891 12.5981
2121 3 0.143637 0.249635 14.2214
2629 2 2.02548 1.62603 14.3242
3113 3 1.85666 0.146568 12.4228
43 1 3.5784 1.94934 12.6206
605 1 7.26697 1.91089 12.301
1625 3 7.17283 0.0344977 14.2003
2123 2 3.70337 0.126033 14.2333
3128 1 5.54351 1.85759 14.4618
3605 1 5.40911 0.174989 12.5668
606 2 10.8019 1.91829 12.5952
1627 2 10.8317 -0.0591607 14.2605
3129 1 9.08011 1.95682 14.3198
3606 3 9.01353 0.175847 12.5223
1117 3 14.3457 1.90647 12.6246
2632 2 14.262 0.0618375 14.3582
3131 3 12.5814 1.90904 14.2894
3114 2 12.6811 0.00700311 12.547
44 1 16.0463 -0.0143669 12.4897
501 1 17.8757 0.15331 14.2918
2614 3 17.7112 1.91415 12.5432
3132 3 16.2229 2.00079 14.4275
607 3 1.72129 3.64916 12.6838
1119 1 1.90699 7.27642 12.7829
1118 2 0.0726712 5.42065 12.5828
2634 1 0.0600839 7.27822 14.5066
2633 3 0.186912 3.55196 14.5917
3624 1 1.95756 5.53306 14.2474
60 3 7.24101 7.24394 14.3123
608 1 5.48525 3.6044 12.4578
1612 3 7.19562 5.30498 12.5557
1611 3 5.39093 7.18264 12.5111
1610 1 3.64357 5.36479 12.5883
2128 2 7.54601 3.73981 14.3116
2126 2 3.57967 3.68864 14.2787
3136 2 3.77823 7.33099 14.2345
3626 2 5.41447 5.20852 14.3433
1613 1 10.7889 5.49577 12.3487
2114 3 8.92768 7.25905 12.4486
3137 1 10.863 3.80933 14.3951
3629 2 9.1127 5.58527 14.3514
3628 1 10.7939 7.04616 14.1289
3610 2 9.11198 3.68446 12.4826
610 1 12.6472 3.78691 12.4872
1614 2 14.0295 5.5669 12.5442
2617 1 12.5347 7.37444 12.4864
3138 2 14.3023 3.75695 14.2072
3631 1 14.2627 7.28283 14.5041
3630 2 12.5731 5.48391 14.3405
47 1 17.7656 5.54793 12.4909
65 2 15.9069 5.59508 14.3837
1138 3 17.9625 3.69978 14.1852
1121 3 16.1245 3.65215 12.4865
2618 1 16.142 7.12106 12.6663
3140 2 17.8748 7.31613 14.2298
67 2 1.99694 9.06882 14.3104
611 3 1.87594 10.5867 12.3638
2115 2 0.259906 8.90152 12.651
2636 3 0.185164 10.7369 14.229
69 1 7.43333 10.7092 14.3263
70 2 5.6086 9.09561 14.2621
1616 3 5.40345 10.683 12.5223
2116 2 3.75306 9.01158 12.3793
2619 3 7.30125 8.95836 12.6208
3633 2 3.78049 10.6313 14.277
71 2 9.1595 8.98139 14.3635
2117 2 9.05305 10.8578 12.5426
2620 3 10.723 9.02867 12.4724
3141 3 10.886 10.8808 14.3326
510 2 12.4663 9.12381 14.2096
1617 2 12.3461 10.8569 12.4062
3122 2 14.3571 8.90148 12.6528
3635 3 14.2054 10.6972 14.0614
511 1 16.0439 8.89506 14.3124
615 3 17.8349 8.82592 12.517
1639 1 17.7617 10.8418 14.3204
2118 3 16.001 10.667 12.5044
513 2 0.0117181 14.2765 14.2405
514 3 1.93653 12.3002 14.2104
2621 1 0.153008 12.5774 12.462
3123 1 1.8948 14.3517 12.5541
72 1 7.23825 14.3503 14.1933
515 3 5.31989 12.5812 14.3583
516 2 3.56112 14.3467 14.3679
3125 1 7.16604 12.6118 12.4218
3124 3 3.83009 12.5421 12.317
3614 1 5.53281 14.2375 12.4375
73 3 10.6544 14.2902 14.4135
1145 3 8.9505 12.477 14.3234
3616 2 10.7886 12.6682 12.6209
3615 1 8.83121 14.2503 12.5149
1147 3 12.4286 12.7003 14.3457
1146 2 14.0715 14.3351 14.3053
2622 3 12.3181 14.3666 12.4446
3617 3 14.2243 12.4911 12.5911
1149 1 16.0104 12.4468 14.2567
1622 1 17.7183 12.6333 12.5213
3146 3 17.8005 14.355 14.3669
3618 2 15.9303 14.2947 12.5844
52 2 0.0854075 15.9301 12.598
518 2 -0.0440593 17.8516 14.3615
1150 2 1.90817 16.4339 14.3852
2623 3 1.84777 17.9222 12.4734
53 3 3.50096 16.1443 12.4983
618 1 7.20079 16.1257 12.484
1151 2 3.62333 18.0135 14.4176
1642 3 5.31994 16.2876 14.3589
2142 1 7.14964 17.8521 14.3041
2624 3 5.33819 17.9114 12.4489
54 2 10.8506 16.167 12.5779
1643 1 9.15555 16.1416 14.3217
2649 2 10.8174 17.8677 14.2991
3619 3 9.08655 17.8969 12.3884
55 1 12.4551 18.0253 12.5565
620 3 14.3814 16.3547 12.4939
1646 1 12.5809 15.914 14.2979
1644 2 14.0706 17.7864 14.3489
56 3 16.0085 17.998 12.5
1647 1 16.0417 16.1663 14.2288
2627 3 17.6455 16.1423 12.4359
3644 2 17.9347 17.9117 14.3285
57 2 1.93691 0.0467553 16.1269
621 1 0.216447 1.86256 16.1307
1128 2 0.131161 0.0413101 17.915
2122 2 2.04125 1.87075 17.9119
58 2 5.36359 0.0069522 16.1458
1132 2 7.32868 -0.0886752 17.7074
1131 3 7.30844 1.92716 16.1409
1130 3 3.60343 -0.0267786 17.7146
1129 3 3.7719 1.99862 15.9329
2630 3 5.50136 1.91352 17.9949
1133 2 10.7748 1.86518 16.0938
1626 2 10.9165 0.261533 17.968
2631 2 8.92657 1.77072 17.9284
3621 2 9.14013 0.123981 15.9646
59 1 12.6869 0.0723574 16.1417
1134 2 14.2896 1.75948 16.0804
2124 3 14.3335 0.124305 17.9211
3130 2 12.7661 1.9273 17.8464
502 3 16.1695 0.217613 16.1745
3133 1 16.1521 2.01159 17.9725
3623 2 17.9974 0.0747812 17.9139
3622 3 17.8181 1.96637 16.2234
503 1 1.92455 3.66587 16.3715
504 3 2.0023 7.14542 16.1168
1628 2 -0.0501315 5.31396 16.0746
2125 1 0.2405 3.52745 17.9997
3134 1 0.0499604 7.2248 17.8568
3625 1 1.86593 5.59448 17.9619
61 2 5.58212 3.81942 16.1507
505 3 3.67996 7.23158 17.8953
1135 2 7.25927 7.17086 17.7686
1631 2 5.55515 7.21083 15.9369
1630 3 3.7252 5.51919 16.2303
1629 1 7.31815 5.4843 15.9615
2127 1 3.71924 3.71527 17.8634
3135 2 7.27684 3.5538 17.9502
3627 1 5.48624 5.75915 17.8096
62 3 9.06937 5.41269 17.7586
63 3 10.6744 7.19297 18.1452
506 2 9.16365 3.69286 16.139
1632 3 10.7764 5.33789 16.0923
2129 1 9.19996 7.21224 15.9969
2635 2 10.8162 3.43764 17.8826
64 2 12.6906 5.50879 17.8947
1137 1 14.2749 7.32816 17.6122
1136 2 12.5091 3.7367 16.1478
2131 2 14.172 5.36835 16.0829
2130 3 12.3345 7.20221 16.0953
3139 2 14.4364 3.61988 17.9413
66 1 17.7058 5.51259 15.8791
507 3 16.0372 5.34828 18.0553
1140 1 17.8323 3.77212 17.9654
1139 1 15.9689 3.66002 16.222
1634 1 17.714 7.19353 17.7664
1633 1 15.9818 7.36079 16.1777
508 2 2.0017 9.06032 17.8088
1141 1 1.82113 10.8127 16.2557
2132 2 0.155325 8.94332 16.2055
3632 2 0.346977 10.5915 18.0239
68 3 3.62689 10.6556 17.8656
509 1 7.33545 10.9152 17.6538
1142 1 5.55632 8.91698 17.9855
1635 2 5.56428 10.5161 16.1245
2134 3 7.44499 8.96344 16.0914
2133 3 3.76021 9.09449 16.1538
1143 3 9.22805 9.13038 17.9442
1636 2 9.23327 10.7274 16.1453
2637 1 10.7084 9.07555 16.1079
3634 2 10.7303 11.0336 18.0747
1144 3 12.6249 10.9069 16.1928
1638 3 12.579 9.14613 17.8533
1637 1 14.2293 10.808 17.8451
2638 2 14.3128 9.05726 16.0054
512 2 18.0122 9.18232 16.2861
1640 2 16.0816 9.13294 17.9405
2135 2 16.0032 10.6542 15.8965
2639 3 17.7831 10.97 17.7724
2137 2 0.209042 14.2487 17.8183
2136 1 1.79775 12.6881 17.8171
2641 1 1.81567 14.2431 15.8931
2640 2 0.0500039 12.5038 16.0269
2140 3 7.16783 14.2473 17.9076
2139 2 3.7116 14.2511 17.6808
2138 3 5.31739 12.4831 17.9776
2643 3 5.27685 14.4773 15.9783
2642 2 3.49359 12.4681 15.9594
3142 3 7.16078 12.4617 15.9884
2141 2 8.61803 14.4393 15.8699
2645 1 8.90643 12.6332 17.7986
2644 2 10.5447 14.1465 17.9606
3143 1 10.6603 12.6951 16.2253
2647 3 12.5976 14.2608 16.2714
2646 3 12.4946 12.5435 17.9852
3145 3 14.2706 14.1931 17.8171
3144 2 14.5287 12.375 15.9279
517 3 17.8405 14.2063 18.0108
1148 2 17.7265 12.7127 16.1198
3148 2 15.9503 14.3079 15.9825
3147 3 16.0097 12.5463 17.8633
2648 2 1.76787 17.9405 16.0901
3150 1 1.97996 16.0937 17.7478
3149 3 0.0704755 15.9875 16.0094
3636 3 0.126801 17.8899 17.9353
1641 1 3.64674 17.8614 17.9934
2143 2 7.29424 17.6699 17.978
3640 1 5.30759 17.9633 16.1201
3639 1 7.2763 16.241 16.2528
3638 1 5.28028 16.0598 17.9679
3637 1 3.50753 16.3003 16.1684
74 3 9.10061 17.7698 16.2088
519 1 10.8807 17.665 18.0554
3642 2 9.03636 16.0061 18.1421
3641 2 10.5906 15.8016 16.1422
75 3 12.4634 16.0933 18.0195
76 3 12.335 17.8261 15.9822
1645 3 14.2851 17.8819 17.8691
3643 1 14.214 16.0281 16.0796
77 2 16.015 15.9362 17.8136
2144 1 17.7297 16.0518 16.1621
2650 2 17.8498 17.6352 17.9136
3645 3 16.0831 17.7272 16.1053
520 3 0.0425373 0.0504358 21.4459
78 1 0.196174 1.79327 19.7683
2145 1 1.9191 2.127 21.2946
3151 2 1.77417 0.0406743 19.6432
521 3 3.62255 0.258493 21.4483
80 3 3.74586 1.8578 19.6669
79 1 7.23469 1.60767 19.6828
2147 2 5.3514 1.95947 21.4505
2146 3 7.20747 0.090797 21.5344
2651 2 5.37751 0.0817344 19.6404
81 3 10.7588 1.82327 19.7315
1648 2 10.7036 0.0372228 21.3256
2652 2 8.93413 2.01969 21.285
3152 2 8.9786 0.151084 19.5527
522 1 14.2344 1.81203 19.7527
1649 3 14.3255 0.153225 21.4264
2653 1 12.5289 1.91349 21.4102
3646 1 12.6676 0.119157 19.6761
82 1 17.8779 -0.0390762 21.1799
2654 3 17.9646 1.88509 19.6999
3153 2 16.245 1.87726 21.3682
3647 3 16.206 0.113984 19.6709
523 1 0.133535 5.45459 19.5956
84 1 2.01053 7.40873 19.6964
83 1 -0.117763 6.90836 21.4107
1650 2 0.135781 3.70795 21.4814
3155 1 1.89969 5.57338 21.4707
3154 1 2.16743 3.7442 19.5373
524 3 3.70723 5.67749 19.7014
525 3 7.0586 5.24804 19.7115
526 1 3.88223 7.2987 21.4035
1153 1 7.32037 7.19601 21.4523
1152 2 5.68623 7.29255 19.7157
2655 2 3.65163 3.91581 21.3701
3156 3 7.15883 3.61028 21.307
3649 1 5.35832 3.64938 19.5972
3648 2 5.52803 5.55672 21.4803
86 2 10.6179 7.1941 21.3161
85 1 8.84299 3.51733 19.5463
1155 3 10.7234 5.23711 19.7031
1154 2 8.92329 7.15575 19.5896
2656 2 10.7559 3.55564 21.4209
3650 1 9.05767 5.40418 21.3258
527 3 12.4891 7.22069 19.774
88 1 12.5515 5.37784 21.3209
87 3 12.5421 3.56671 19.5536
1156 3 14.1612 5.57401 19.538
2148 1 14.2604 7.25372 21.4774
2657 2 14.2864 3.61022 21.3672
528 2 17.9448 3.60773 21.4853
89 2 16.0913 5.31386 21.4442
1157 1 15.9403 7.26269 19.5017
3158 3 17.9134 5.30913 19.8004
3157 1 17.7902 7.1716 21.4746
3651 2 16.0611 3.57956 19.5926
529 2 1.98241 8.88682 21.3656
530 1 1.82439 10.7274 19.808
1158 1 -0.00375815 8.97688 19.6586
3652 1 0.140483 10.5448 21.5232
531 3 5.41487 8.99395 21.5004
532 1 5.54704 10.7664 19.7248
533 3 7.25748 10.8044 21.3726
1159 3 3.93311 9.00712 19.6112
1651 2 7.37617 8.99461 19.5608
3653 1 3.52748 10.7328 21.2484
90 2 9.01096 10.9033 19.7074
1161 2 9.0176 9.14235 21.4377
1160 3 10.7753 10.8034 21.6647
1652 2 10.8506 9.01397 19.5341
534 2 12.3975 10.6755 19.6886
1162 2 12.5155 9.01981 21.3875
1654 2 14.2153 10.751 21.3751
1653 3 14.3177 9.05577 19.6885
1656 3 16.127 10.7969 19.6971
1655 1 15.9341 8.99713 21.5584
3159 2 17.9961 10.7347 21.5037
3654 3 17.8177 8.93849 19.7148
1660 3 0.0800682 14.304 21.5171
1659 3 1.8907 14.2257 19.676
1658 3 1.76514 12.6031 21.3244
1657 2 0.143872 12.6046 19.6588
1163 2 5.52528 14.1582 19.7271
1661 3 3.62686 14.1298 21.3556
2151 2 7.23625 12.3043 19.6243
2150 1 5.51242 12.4931 21.5212
2149 3 3.62305 12.5406 19.6727
3160 2 7.19041 14.2612 21.4312
1662 2 9.00216 14.1457 19.8448
2153 3 9.046 12.5043 21.4907
2152 1 10.9497 12.589 19.9254
2658 3 10.7641 14.2518 21.554
2155 2 14.3342 12.5108 19.6933
2154 2 12.6382 14.3687 19.5807
2660 3 14.2879 14.2516 21.4165
2659 3 12.6209 12.6263 21.4988
535 3 17.9214 12.5098 19.876
1164 2 17.7996 14.2065 21.5162
2156 2 15.9451 14.1196 19.7538
2661 3 16.2253 12.5376 21.545
1165 2 0.131009 17.6422 21.4807
2157 1 1.90784 17.8671 19.5973
2662 3 0.0851607 15.9125 19.8136
3161 3 2.02843 15.8937 21.4173
1664 3 7.22821 17.8742 21.4834
1663 2 3.71512 17.755 21.2983
2664 2 3.7394 15.9546 19.5471
2663 1 7.25243 16.1374 19.8461
3163 2 5.42226 15.9687 21.2668
3162 1 5.46481 17.7126 19.4792
536 2 10.6522 17.9118 21.3826
2665 3 10.7533 15.9721 19.8549
3164 1 8.78114 17.8647 19.7248
3655 2 8.89466 16.011 21.3443
2666 2 12.5178 17.8091 19.6592
3166 1 14.4809 16.145 19.6946
3165 1 14.4926 17.8399 21.3681
3656 2 12.423 16.0234 21.4649
92 3 16.1106 15.9437 21.5176
91 3 17.9031 17.8031 21.574
1166 3 17.9709 15.841 19.6524
3167 3 16.2361 17.8355 19.6857
93 2 1.94568 1.83265 24.8308
1665 2 1.79988 0.197371 23.1858
2667 1 0.076836 0.169382 25.0278
3168 1 -0.0117808 1.76697 23.1885
2158 3 5.49293 0.230217 23.2023
2670 1 3.66019 0.326062 24.8651
3170 3 7.2175 1.94766 23.1708
3169 3 3.6771 1.95849 23.1103
3659 3 6.99616 0.0773972 24.9539
3658 1 5.55817 1.82985 24.9861
537 1 8.83877 1.88947 25.0161
2671 1 8.97301 0.0829604 23.2965
3171 2 10.7017 0.136741 24.9928
3660 2 10.5639 1.67083 23.2284
2673 2 12.4729 0.252677 23.0793
3663 2 14.3415 1.873 23.0803
3662 2 14.2394 0.25459 24.8816
3661 2 12.4861 1.86269 24.981
539 3 16.3079 1.89229 24.881
1167 3 17.8284 0.10412 24.8822
1668 3 17.8654 1.76477 23.2171
2160 1 16.1176 -0.0477681 23.1301
99 2 2.03892 5.30824 25.0913
98 1 1.91547 6.96736 23.3094
97 3 0.0860908 7.12964 24.9333
96 2 -0.0876328 5.35177 23.3741
3173 3 1.87425 3.76512 23.1409
3172 3 0.0941396 3.52775 25.1779
540 3 3.7447 7.16734 24.9244
541 2 5.79024 7.27732 23.1689
542 2 7.3069 5.58894 23.3196
543 2 5.60704 5.53398 24.9724
101 3 7.39502 7.40546 24.9782
100 3 3.81768 5.34897 23.2163
2675 1 7.23598 3.78982 24.8298
3175 3 3.79636 3.65786 25.135
3665 3 5.50651 3.68164 23.2139
546 1 9.06862 7.14478 23.1495
547 1 9.1306 5.39511 24.9894
102 1 10.8445 5.38696 23.1068
1170 3 10.7038 7.27174 24.9133
3177 1 10.7853 3.39203 24.9051
3666 3 8.9162 3.62061 23.1329
548 2 14.2526 5.37249 23.2197
549 1 12.3276 5.4095 24.9862
105 1 14.1853 3.6527 24.8913
1670 3 12.5142 7.2073 23.1179
3179 3 12.5586 3.59306 23.115
3667 1 14.2868 7.08919 24.9255
1172 1 16.0262 5.33584 24.9472
1672 3 17.7478 3.67251 24.8187
1671 1 16.2167 7.02092 23.0298
2678 2 17.9451 7.18997 24.9726
2677 3 18.1126 5.32445 23.1403
3668 2 15.9891 3.69149 23.0795
550 2 0.258191 8.86072 23.1382
106 1 1.91454 10.7072 23.2628
1175 1 1.84542 9.00097 24.8353
3669 1 0.0144063 10.8008 24.9311
108 2 5.41558 10.6535 23.253
1180 3 7.12905 10.5068 24.9423
1178 2 7.36991 9.09471 23.207
1177 3 3.7206 8.88567 23.2041
1176 1 5.37778 8.87179 24.9369
3670 3 3.73076 10.7803 25.0365
551 3 10.7267 10.6151 24.9044
552 2 9.04464 10.7664 23.2347
1181 3 9.07421 9.10769 24.9582
1674 2 10.8789 9.02897 23.2486
1182 2 12.574 10.8656 23.2104
1676 1 12.5101 8.98865 25.2323
1675 1 14.1523 8.9994 23.213
2163 2 14.2151 10.8139 25.0095
1183 1 15.936 8.94852 24.8962
1677 1 16.0958 10.6294 23.3593
2165 1 17.8177 10.7618 24.9609
3671 3 17.8669 8.91653 23.2157
555 1 0.225518 14.3695 24.7761
1184 1 1.94226 14.3021 23.282
1678 2 1.86617 12.3878 24.8892
2166 1 0.203494 12.5169 23.2095
113 3 7.24117 14.18 24.8265
1185 2 5.64784 12.4166 25.0248
2170 2 5.67166 14.0738 23.1581
2169 2 3.74827 12.3839 23.2177
2168 1 3.59788 14.0157 25.0454
2167 1 7.16653 12.2947 23.3279
1680 3 10.7568 14.2697 24.9476
2171 2 10.7524 12.5176 23.3257
2682 3 9.04836 14.2777 23.1469
2681 2 9.06634 12.4612 24.9502
114 3 14.3061 14.5033 25.0206
1681 1 12.6333 12.4939 24.9907
2684 3 14.3129 12.629 23.3347
2683 2 12.4975 14.2039 23.3062
557 2 17.9136 12.5318 23.234
2173 2 16.0589 14.315 23.2627
2685 1 15.9987 12.6014 25.0588
3183 2 17.7942 14.1515 25.0227
1684 3 2.02812 16.0415 24.9196
1683 2 1.99514 17.8088 23.0919
2688 1 0.00589006 16.1393 23.1854
2687 1 0.195479 17.7989 25.0086
2175 2 7.14423 17.7089 24.9114
2174 1 5.41245 17.8171 23.2345
2689 2 3.76999 17.8469 25.006
3187 1 5.32203 16.1163 25.0031
3186 1 7.03048 15.9615 23.0881
3185 3 3.82819 15.9764 23.1058
1687 1 8.97832 17.7619 23.156
1686 3 8.89787 16.1022 24.9201
2177 2 10.7561 17.7167 25.077
3675 1 10.7597 16.1469 23.1012
2178 1 14.3208 17.694 25.0379
2690 1 12.6693 17.6256 23.1741
3188 1 12.4186 16.1824 24.9177
3676 2 14.1161 15.9714 23.2123
1187 3 17.9621 16.0004 23.2139
1186 2 17.8067 17.7021 24.9215
1689 2 16.1866 15.9766 25.0119
3189 3 16.0196 17.7433 23.1288
1188 3 0.11382 -0.0108021 28.646
2180 3 2.02739 1.96774 28.4163
2668 1 1.75893 0.152186 26.7334
3657 2 0.125308 1.77991 26.8305
559 3 6.97813 0.164866 28.4593
94 3 7.25576 1.90462 26.7447
1189 1 3.79939 0.201423 28.5468
1666 2 5.34256 0.15743 26.7558
2181 3 5.44374 2.06673 28.4842
2669 1 3.62812 1.77829 26.6728
560 3 10.6201 0.118019 28.6367
95 1 8.86337 0.0965684 26.4736
2182 2 8.86667 1.69416 28.5712
2672 1 10.601 1.67019 26.7712
538 2 14.1594 1.99065 26.766
1667 1 12.6039 0.110244 26.6655
2184 2 12.3857 1.89509 28.3436
2183 2 14.1472 0.212721 28.6004
2159 1 17.6561 1.88835 26.7803
3193 1 16.2057 1.89436 28.6125
3679 3 17.9974 0.0906533 28.5297
3664 3 15.9222 0.074105 26.7932
1168 1 1.89482 3.42044 26.7401
1669 3 1.91496 7.24395 26.5185
2186 3 0.111682 7.05654 28.2882
2185 3 0.202851 3.66493 28.6596
2674 2 0.200792 5.40812 26.6667
3194 2 2.06324 5.33544 28.6055
544 2 3.81177 5.6783 26.8358
563 2 7.3075 6.99485 28.5358
1691 2 7.39619 3.77988 28.4922
1690 2 3.69194 3.89174 28.6487
2676 1 7.60108 5.44207 26.73
3196 2 3.64872 7.19093 28.4813
3195 2 5.5143 5.31064 28.6611
3176 3 5.48212 3.69238 26.755
3174 1 5.5626 7.1736 26.8222
545 1 10.6866 5.476 26.7336
1171 2 9.03587 3.56198 26.7918
1169 1 9.08989 7.40652 26.8096
2694 1 10.6508 3.49213 28.5583
3197 2 9.1443 5.43757 28.499
3681 1 10.7547 7.26513 28.5762
104 1 12.5206 3.6092 26.6649
103 3 14.208 5.45588 26.9314
2695 2 14.0529 3.60199 28.7263
3178 3 12.597 7.33329 26.8873
3684 3 14.3545 7.35344 28.5118
3683 2 12.4124 5.5276 28.578
622 1 17.8828 3.58476 28.4555
1004 3 17.6861 7.10415 28.4907
1174 2 16.0682 7.05194 26.5547
1173 2 17.9972 5.33066 26.7781
3180 1 15.9721 3.6082 26.717
3685 2 16.0086 5.31381 28.496
1673 3 -0.0149142 8.98729 26.5682
2161 2 1.70813 10.6317 26.6327
2696 3 -0.0993028 10.7447 28.3247
3687 2 1.84932 9.08529 28.5172