ITEM: TIMESTEP
5000
ITEM: NUMBER OF ATOMS
4000
ITEM: BOX BOUNDS pp pp pp
-2.3862090712448492e-02 3.5651732090712144e+01
-2.3862090712448492e-02 3.5651732090712144e+01
-2.3862090712448492e-02 3.5651732090712144e+01
ITEM: ATOMS id type x y z
563 2 -0.00476148 -0.081228 -0.0817211
1064 2 1.64141 1.63916 0.00177801
1563 3 1.76034 -0.0778169 1.54941
2064 2 0.0792583 1.86229 1.94471
1 2 3.69031 1.79369 1.63579
565 3 7.1984 -0.198398 0.143019
2065 1 7.21603 1.64233 1.64135
2565 1 3.76104 -0.0423751 -0.105172
3064 1 5.28782 1.53495 -0.14099
3564 3 5.18197 -0.251212 1.93777
1066 3 9.0131 1.80348 0.00153765
1564 3 8.90983 -0.207674 1.64126
2 3 10.6937 1.55998 1.96649
567 3 14.2983 -0.197468 -0.0438543
2066 3 14.0746 1.54843 1.80851
2567 2 10.5499 0.0194044 -0.0270039
3066 3 12.4144 1.66968 -0.0491196
3565 3 12.467 -0.136678 1.68347
751 2 17.7169 -0.0154422 0.0308677
1068 3 15.9995 1.77877 0.139157
1565 3 16.3621 -0.194776 1.65701
2001 1 17.8882 1.82149 1.68748
3 3 0.0175988 5.38239 1.78506
573 3 0.0897598 7.2013 -0.116827
1568 1 1.86983 6.94366 1.83764
2569 2 -0.0938101 3.46624 0.130423
3068 3 1.94193 5.18301 -0.000256169
3566 3 1.80857 3.46047 1.79137
4 1 7.12247 5.25242 1.82399
569 3 3.58132 3.70053 -0.229582
575 3 6.97173 7.12225 -0.0840854
1070 2 5.37887 5.1739 -0.0256435
1566 2 5.24914 3.39862 1.7242
2067 1 3.77634 5.38321 1.70926
2575 2 3.78447 6.89888 -0.0721904
2571 1 6.98613 3.42424 0.335945
3569 2 5.10854 7.08241 1.90299
1569 2 8.75932 7.07395 1.71994
3070 3 8.716 5.27633 0.159278
3567 3 8.73341 3.25165 2.05126
5 2 14.3727 5.38001 1.86603
571 2 10.7959 3.85828 -0.121403
577 3 14.3039 7.17959 0.00759667
1072 2 12.637 5.29721 0.210679
1567 1 12.3931 3.36879 1.87145
2068 3 10.6764 5.21802 2.01758
2577 3 10.6662 6.92482 0.103834
2573 3 14.0287 3.34451 0.0418075
3570 1 12.4155 7.00505 1.74934
253 3 17.6962 5.14304 1.7026
761 3 17.7443 7.09411 0.0196761
1570 2 15.9715 7.078 1.90926
2819 3 17.5207 3.73114 -0.166475
3072 1 15.7746 5.21113 0.0315807
3568 3 15.9956 3.33665 1.83762
1074 2 1.77899 8.97114 0.16957
2069 3 -0.0655532 8.7967 1.79187
6 2 3.48859 9.05199 1.88828
2070 2 7.07446 9.02136 1.78039
3074 1 5.22487 8.92256 -0.0937805
1076 1 8.85613 8.69443 -0.0476926
7 1 10.613 8.72257 1.8033
2071 1 14.1081 8.76509 1.83839
3076 3 12.5215 8.97733 0.0142886
1078 3 16.0511 8.79283 -0.039014
2006 3 17.9136 8.87332 1.77601
8 3 0.0767261 12.5694 1.79198
583 1 -0.00174853 14.4063 0.179927
1573 3 1.76674 14.4084 1.87976
2579 2 0.0105279 10.772 0.254511
3078 3 1.77538 12.5024 0.0676319
3571 1 1.70699 10.7181 2.01073
9 2 7.00568 12.3879 1.62674
585 2 7.07698 14.2155 -0.277105
579 2 3.84782 10.8118 0.0439169
1080 1 5.49754 12.5155 0.123196
1571 3 5.15973 10.675 2.11981
2072 2 3.50063 12.7343 1.70524
2585 3 3.55898 14.0116 -0.323398
2581 3 7.25484 10.557 -0.0393082
3574 3 5.29916 14.182 1.62727
1574 3 8.78167 14.0255 1.55137
3080 3 8.89255 12.4074 -0.11599
3572 3 9.00671 10.6384 1.65413
10 1 14.388 12.4558 1.77692
587 2 14.1325 14.1849 -0.117814
581 1 10.7872 10.5228 -0.184316
1082 1 12.4164 12.4323 -0.259177
1572 2 12.4537 10.6186 1.68572
2073 1 10.6133 12.4866 1.55281
2587 3 10.5408 14.2145 -0.0476934
2583 2 14.2967 10.457 0.260003
3575 2 12.6461 14.2612 1.67254
258 3 17.7315 12.2532 1.78088
771 2 17.8153 14.1388 0.213534
1575 2 16.0162 14.0544 1.77637
2829 2 17.9251 10.7494 -0.0467611
3082 2 15.8474 12.3669 -0.00872031
3573 3 16.1136 10.5528 1.73123
626 2 -0.372415 17.9853 -0.00693588
1084 1 1.61338 16.2909 -0.0768552
1688 3 1.94133 17.9273 1.70797
2074 2 -0.0442633 16.1111 1.87345
11 2 3.6035 16.1604 1.72535
628 3 7.1045 17.6034 -0.1173
2075 3 7.06693 15.9367 1.7476
2690 1 3.5528 17.6625 0.0432849
3084 1 5.32861 15.9288 -0.236544
3689 2 5.43587 17.6341 1.68474
1086 2 8.88488 15.9441 -0.0836967
1689 1 9.05081 17.6931 1.60696
12 1 10.8842 15.9029 1.94831
630 1 14.4217 17.6915 -0.104288
2076 1 14.3781 15.8356 1.85807
2692 3 10.5188 17.555 -0.0350457
3086 3 12.2678 15.9151 -0.1047
3690 3 12.406 17.9867 1.57127
876 3 17.6884 17.8881 -0.162972
1088 1 16.2014 15.831 0.0898858
1690 1 16.1023 17.6867 1.56301
2011 2 18.0831 16.2363 1.68104
13 3 -0.102697 1.60153 5.31098
588 2 -0.0480648 -0.0172595 7.26026
1089 2 1.83662 1.82289 6.9369
2564 3 0.0823914 -0.139464 3.66495
3063 3 1.79381 1.57022 3.53388
3576 1 1.61457 0.0610125 5.60576
14 2 6.94636 1.78088 5.3845
564 1 3.34197 -0.0659057 3.7491
1065 3 5.33883 1.63828 3.61059
1577 2 3.3272 -0.120404 7.11298
1576 1 5.41204 -0.142518 5.25766
2078 2 5.33775 1.63051 7.1989
2077 3 3.4978 1.732 5.36615
2589 1 7.33715 0.175933 7.0626
2566 3 7.15265 -0.318886 3.62058
3065 1 8.83959 1.29759 3.64524
3088 2 8.87233 1.80929 7.23882
3577 2 8.85822 -0.140318 5.34691
15 1 12.3775 1.70177 7.1005
16 3 14.2905 1.62899 5.33372
566 2 10.5936 -0.0963037 3.4624
589 2 14.4211 -0.0441113 7.21877
1067 3 12.542 1.61828 3.68497
1578 1 12.6197 -0.292736 5.30239
2079 2 10.7082 1.803 5.48019
2568 2 14.5856 -0.133321 3.5045
3578 3 10.66 -0.373207 6.97656
263 3 17.8017 1.59255 5.19382
776 2 17.9212 0.00357769 7.12519
1090 3 16.1443 1.86294 7.12377
2814 3 17.6877 -0.0838297 3.58398
3067 3 16.0821 1.67238 3.40345
3579 1 16.0986 -0.00163931 5.6861
568 1 -0.0478109 3.64705 3.78603
1069 3 1.48027 5.28415 3.74908
1580 3 0.143358 3.65777 7.28179
1579 3 1.79714 3.52097 5.32175
2081 1 2.10879 5.72132 7.27056
2080 2 -0.0191034 5.53408 5.55115
2591 2 0.105035 7.08375 7.47031
2574 2 0.0966492 7.12376 3.66536
3583 2 1.86571 7.13999 5.58016
17 2 3.58088 5.34676 5.2973
570 1 6.95231 3.359 3.65034
591 1 7.10172 7.04712 7.06646
574 1 3.65689 7.15681 3.60248
1584 2 5.40582 7.04376 5.38556
2082 2 7.22859 5.18556 5.46342
2590 2 3.45319 3.6505 7.16222
2576 1 7.15292 6.87558 3.4398
2570 3 3.71538 3.38332 3.49609
3069 2 5.34355 5.3468 3.67248
3089 1 5.29224 5.27147 7.07049
3584 1 3.87217 7.25344 7.13243
3581 1 6.95123 3.32816 7.145
3580 1 5.1637 3.35249 5.36947
18 1 8.71129 5.19677 7.12716
1071 1 8.81297 5.02989 3.55585
1581 2 8.80682 3.33103 5.53258
3585 1 9.14211 6.88711 5.38054
19 1 10.7462 5.39285 5.15368
572 1 14.2871 3.456 3.54094
590 3 10.5625 3.62992 7.04436
576 2 10.7224 6.90242 3.56967
1091 1 12.4241 5.01237 7.15398
1586 2 10.8122 7.13948 7.04207
1585 1 12.3549 7.07746 5.32803
1583 3 14.1707 3.44147 7.26857
2083 3 14.2663 5.11324 5.69481
2592 2 14.0507 7.14649 7.06985
2578 1 14.2018 6.99549 3.5965
2572 3 10.7051 3.47993 3.43309
3071 3 12.6366 5.24836 3.64539
3582 2 12.5799 3.38224 5.36227
756 2 17.6817 3.64719 3.68998
1073 2 15.8403 5.27309 3.74086
1768 3 17.9744 3.38963 7.06438
1582 2 15.8536 3.4615 5.29168
2084 1 16.1107 5.07525 7.12556
2017 2 17.554 5.26384 5.3326
2841 3 17.7786 7.09815 7.19761
2824 1 17.462 7.02707 3.66801
3586 2 16.0582 7.27873 5.50628
20 1 0.189103 8.63454 5.56863
3073 2 1.56091 9.08829 3.53386
3090 1 1.82289 8.82398 7.28489
21 2 5.56025 8.91548 7.23783
22 1 7.1883 8.74557 5.31596
1075 2 5.36875 8.83501 3.86094
2085 3 3.70216 8.9453 5.36577
1092 3 8.83521 8.92323 6.98231
3075 3 9.06648 8.5648 3.57278
23 1 14.2517 8.83965 5.37057
1077 2 12.4697 8.82634 3.65098
2087 3 12.5021 9.01047 7.10594
2086 3 10.6158 8.70496 5.17707
270 2 17.9026 8.7636 5.36407
3091 1 16.0488 8.96914 7.07459
3077 2 16.0105 8.91688 3.71154
24 2 1.94482 12.5163 7.47909
593 1 0.0612302 14.0309 7.26411
578 3 0.0317868 10.6477 3.48965
1079 3 1.52735 12.6637 3.59997
1587 1 1.64379 10.5068 5.63759
2088 1 0.0129324 12.4697 5.50219
2584 2 -0.0341748 14.2851 3.54699
3591 2 1.8215 14.5025 5.26571
3587 1 0.165917 10.6706 7.182
25 2 3.67788 12.7573 5.40328
592 2 3.83598 10.7036 7.02376
584 3 3.6839 14.3235 3.58238
580 1 7.16751 10.5636 3.37598
1093 1 5.42507 12.6604 7.31172
1592 2 3.67372 14.3795 7.32417
1591 3 5.49856 14.3233 5.31932
1589 1 6.88976 10.644 7.06558
2089 2 7.08785 12.305 5.26842
2594 3 7.37243 14.0937 6.95741
2586 1 7.07691 14.0352 3.71335
2580 3 3.40451 10.9192 3.66422
3079 1 5.31059 12.6404 3.3725
3588 1 5.30206 10.7305 5.25387
1081 3 8.85785 12.2721 3.50709
1588 1 8.64109 10.4506 5.1804
2090 3 8.87427 12.3048 6.88803
3592 1 8.96652 14.1903 5.34189
26 1 10.5758 12.2874 5.22079
594 2 14.1954 14.0496 7.10037
586 3 10.5077 14.2078 3.386
582 3 14.2191 10.5693 3.44974
1593 1 12.3161 14.1271 4.88703
2091 1 14.2631 12.3068 5.31454
2593 3 10.8224 10.3798 6.97882
2588 3 14.4721 14.1145 3.53283
2582 3 10.5743 10.5996 3.31892
3092 1 12.4125 12.436 7.13962
3081 1 12.576 12.2735 3.55937
3593 3 10.5127 14.0942 6.81734
3590 2 14.393 10.8208 6.978
3589 1 12.5682 10.599 5.31227
27 2 16.2025 12.5601 7.00812
781 3 18.214 14.1862 7.06445
766 1 17.8537 10.5706 3.73614
1083 3 15.9217 12.2806 3.62553
1590 2 16.1498 10.5603 5.20604
2025 2 17.8724 12.1415 5.3687
2834 1 17.7638 14.2381 3.61692
3837 2 17.8231 10.556 7.02201
3594 2 16.1885 14.0522 5.40019
28 3 0.0759359 16.2254 5.32784
651 3 -0.0906064 17.8656 7.36416
1094 2 1.739 16.133 7.15776
2689 3 0.124875 17.8453 3.47001
3083 1 1.99605 16.1683 3.55838
3701 2 1.7863 17.9279 5.44763
29 2 7.29639 16.0914 5.21306
627 2 3.64643 17.9432 3.57692
1085 1 5.40794 16.1018 3.43876
1702 1 3.72964 17.9267 7.02422
1701 2 5.4297 17.9736 5.4286
2093 1 5.38851 16.1732 7.08206
2092 2 3.74455 16.4112 5.26165
2714 3 7.30218 17.8165 7.08002
2691 2 7.29265 17.6179 3.44747
3093 3 8.89224 15.964 7.19534
3085 3 8.70674 15.7742 3.18312
3702 1 8.83786 17.754 5.19976
30 3 12.4764 15.5361 6.57458
31 3 14.5576 15.8787 5.34248
652 1 14.2414 17.7739 7.05902
629 3 10.8085 17.8217 3.49764
1087 2 12.4564 15.9313 3.4007
1703 3 12.4593 17.5907 5.17704
2094 3 10.6042 16.2998 5.10757
2693 3 14.2551 17.6803 3.52192
3703 1 10.7865 17.7185 7.16871
278 3 18.0289 15.9283 5.30316
901 3 17.9221 17.6274 7.40428
1095 1 16.0854 15.7722 7.07112
2876 1 17.9929 17.8213 3.4961
3087 2 16.2997 15.9566 3.41197
3704 3 16.268 17.5426 5.00855
1594 1 1.44015 0.0433479 8.94089
2095 1 -0.118413 1.74566 8.97092
33 2 6.84627 1.68393 8.94533
2596 2 5.17273 -0.220739 8.715
3095 1 3.46021 1.70149 8.87031
3596 3 8.7811 -0.0753627 8.98098
596 3 12.3021 -0.118477 8.74304
1097 3 10.464 1.66084 8.63107
2098 1 14.2853 1.57793 9.15643
1597 2 16.0558 0.121053 9.02297
2032 1 17.97 1.66748 8.72896
2599 3 1.88433 3.66072 8.93019
3098 1 0.0503248 5.32775 8.94182
3602 2 2.05398 7.11051 9.10614
36 1 3.46902 5.40196 9.03531
602 2 5.34694 7.14713 9.02855
1100 1 7.06255 5.5801 8.92405
3599 1 5.2635 3.58156 8.88641
599 3 8.70758 3.49501 8.84038
1603 1 8.88614 7.04404 9.01791
1600 3 12.3972 3.61428 8.88908
2101 1 10.5942 5.30057 8.86775
2605 2 12.4699 7.11241 9.00133
3101 1 14.1096 5.3229 8.7977
2602 3 15.8977 3.45303 9.15952
3348 3 17.7039 5.15739 8.85988
3605 2 16.0522 6.93292 8.86104
39 1 -0.068392 8.99761 8.91411
1103 1 3.71817 9.32302 8.85723
2104 1 7.08535 8.808 8.93067
42 1 14.3215 8.91849 8.71807
3104 1 10.6437 8.78923 8.78551
289 2 17.7751 8.78623 8.83832
605 2 1.94097 10.6048 8.93681
1106 2 0.245885 12.4205 9.08234
1609 1 2.07782 14.3005 8.92469
1606 2 5.55021 10.8814 8.75152
2107 1 3.85453 12.3844 8.82441
2611 1 5.70587 14.4502 8.93983
3107 3 7.29708 12.3159 9.08806
2608 3 8.98765 10.7867 8.73919
3611 3 8.99146 14.2971 8.92872
45 1 10.6309 12.4973 8.72932
611 2 12.6505 14.2657 8.78798
1109 1 14.2758 12.356 8.82918
3608 1 12.5225 10.7195 8.92232
608 2 16.0206 10.7507 8.97583
1293 3 17.9862 12.2694 8.79903
1612 2 16.1749 13.976 8.82519
1719 1 1.74262 17.7167 8.87269
2110 2 0.0272953 16.0592 8.91366
48 1 7.31511 16.0065 8.94305
2721 1 5.45149 17.9155 8.83421
3110 2 3.81221 16.0147 8.84249
3721 1 9.05753 17.7602 8.87685
659 2 12.5891 17.6939 8.68484
1112 3 10.7819 15.948 8.94093
2113 1 14.3881 15.7815 8.73407
1722 3 15.959 17.5695 8.72231
2047 3 17.9756 15.7189 8.66251
32 2 0.0455961 1.78432 12.3087
613 1 -0.172154 -0.129503 14.3005
1114 1 1.64912 1.6727 14.1548
2595 1 -0.136983 -0.0864799 10.7058
3094 1 1.85472 1.93235 10.6266
3595 1 1.24375 -0.137897 12.4921
34 3 7.22613 1.6697 12.5857
614 2 7.08694 -0.108848 14.3794
595 2 3.51451 -0.145388 10.5795
1096 1 5.27315 1.62297 10.8162
1595 1 5.39339 -0.0546771 12.5686
2096 2 3.30106 1.70933 12.4133
2614 2 3.35911 0.0430113 14.3879
2597 3 6.97691 -0.153585 10.5547
3113 1 5.39858 1.62468 14.0777
1115 1 8.9894 1.7165 14.5726
3096 3 8.9883 1.699 10.8837
3597 1 9.23984 -0.229931 12.4121
35 1 14.1608 1.88706 12.3685
615 2 14.3194 -0.131838 14.2217
597 3 10.7269 -0.0500373 10.6957
1098 3 12.4735 1.89129 10.6201
1596 1 12.5562 0.351235 12.5804
2097 3 10.6568 1.89742 12.4244
2615 3 10.6431 -0.0664409 14.3658
2598 2 14.2013 -0.0204977 10.6695
3114 1 12.5266 1.80286 14.3349
282 3 17.7332 1.71593 12.6068
801 3 17.6973 -0.220612 14.1695
1116 3 16.0059 1.83456 14.2247
2845 3 17.9195 0.126682 10.7868
3097 3 15.9375 1.67045 10.9572
3598 2 15.9062 -0.0343823 12.6234
618 1 0.0403157 7.03799 14.4694
598 3 0.046422 3.58892 10.6709
1099 3 1.63522 5.25213 10.8513
1598 2 1.67366 3.47863 12.5828
2099 2 -0.0461291 5.40234 12.5688
2616 3 -0.17692 3.41743 14.2822
2603 3 -0.0937229 7.19787 10.9086
3115 3 1.61816 5.398 14.2838
3603 1 1.71378 7.15247 12.6334
37 1 3.4407 5.29121 12.6007
619 3 7.07007 7.08619 14.1059
616 3 3.58331 3.48782 14.368
603 2 3.77858 7.13068 10.7973
600 3 7.20248 3.57661 10.6749
1117 1 5.32649 5.30895 14.3912
1602 3 5.22136 7.09047 12.6623
2100 1 6.90543 5.32741 12.5398
2619 2 3.46549 7.12926 14.4338
2617 3 7.12323 3.39939 14.2274
2604 2 7.33825 7.31343 10.7142
2600 2 3.7969 3.55484 10.6854
3099 2 5.42552 5.40397 10.8337
3600 2 5.216 3.15451 12.405
1101 3 8.77789 5.35278 10.8461
1599 3 8.6998 3.36953 12.5194
3116 2 8.98567 5.23836 14.2738
3604 1 8.88533 7.34694 12.5707
38 3 10.6425 5.43161 12.4842
620 3 14.0902 6.97307 14.3389
617 3 10.679 3.65509 14.0789
604 3 10.7711 7.14223 10.6045
601 3 14.0376 3.71219 10.5896
1118 1 12.3139 5.27421 13.8815
1604 2 12.4327 7.50161 12.499
2102 2 14.2133 5.39374 12.4461
2620 3 10.7955 7.20458 14.1114
2618 2 14.1506 3.71112 14.2817
2606 1 14.161 7.17556 10.6518
2601 1 10.5353 3.36436 10.3889
3100 1 12.5421 5.42257 10.7766
3601 3 12.3602 3.64967 12.2419
806 2 17.7125 7.07872 14.3944
786 1 17.798 3.42287 10.772
1102 2 15.9691 5.39092 10.6458
1601 3 15.8788 3.71129 12.5411
2036 3 17.587 5.33486 12.5626
2866 1 17.8605 3.65431 14.3475
2853 1 17.6158 7.02918 10.6352
3117 1 15.8879 5.41143 14.2881
3606 2 15.8156 7.10814 12.3651
40 2 0.231093 8.91804 12.3487
1119 3 1.53646 8.86687 14.246
3102 2 1.83101 8.82096 10.6523
41 2 7.0205 8.85453 12.4779
1104 1 5.16106 8.75227 10.6892
2103 2 3.50398 8.93823 12.3749
3118 3 5.32848 8.64243 14.4076
1120 2 8.98365 8.97735 14.3793
3103 3 8.90616 9.11551 10.6865
43 2 14.3497 9.05769 12.4959
1105 1 12.4031 8.76348 10.5995
2105 2 10.8675 9.23504 12.2923
3119 1 12.3732 9.30547 14.1624
290 1 17.7003 8.75014 12.5024
1121 2 16.1822 8.79077 14.3734
3105 3 16.0118 9.02392 10.7333
623 2 -0.204943 14.4566 14.6062
606 1 -0.0107433 10.6608 10.6256
1107 3 1.81225 12.6128 10.692
1605 2 1.93708 10.8472 12.6119
2106 2 0.11137 12.4531 12.3247
2621 2 -0.029622 10.7011 14.3906
2610 1 -0.109751 14.2661 10.9804
3120 1 1.5051 12.4186 14.4798
3610 1 1.77124 14.2016 12.5453
44 2 3.64069 12.3462 12.366
624 3 6.91719 14.4877 14.1672
621 2 3.55392 10.6165 14.6253
610 1 3.77005 14.2636 10.69
607 3 7.07078 10.5873 10.8566
1122 1 5.13598 12.3468 14.2216
1610 3 5.43581 14.1909 12.2811
2108 2 7.1827 12.5785 12.4594
2624 3 3.35899 14.0778 14.1752
2622 3 6.85432 10.391 14.427
2612 2 7.12336 14.4401 10.6594
2607 2 3.80914 10.7497 10.7199
3106 1 5.49745 12.634 10.4647
3607 3 5.39343 10.5526 12.6548
1108 1 8.78114 12.484 10.8666
1607 1 8.89758 10.6322 12.5238
3121 3 8.97905 12.5776 14.2879
3612 3 9.00804 14.3369 12.4957
46 1 10.6905 12.3049 12.2598
625 2 14.1812 14.3389 14.3782
622 3 10.69 10.753 14.2123
612 1 10.7329 14.0934 10.6555
609 3 14.5107 10.8134 10.6011
1123 3 12.3172 12.4341 14.1985
1611 1 12.4395 14.3458 12.4569
2109 3 14.3898 12.6599 12.6265
2625 2 10.6733 14.4293 14.2046
2623 1 14.1455 10.6898 14.351
2613 2 14.2226 14.4567 10.5618
2609 1 10.7538 10.9677 10.6475
3108 2 12.5617 12.5749 10.5546
3609 2 12.5957 10.749 12.3074
811 2 17.7619 14.1813 14.2619
794 1 17.9818 10.783 10.7072
1110 3 15.974 12.6017 10.7681
1608 1 16.1252 10.5786 12.5374
2043 3 17.8415 12.5479 12.5646
2871 2 17.7371 10.7102 14.268
2860 3 17.8325 14.1859 10.4914
3122 3 16.1482 12.4929 14.3342
3613 1 16.0316 14.1134 12.5776
47 3 -0.237383 16.0307 12.5651
676 2 0.0633357 18.0054 14.4182
1124 3 1.70568 15.7564 14.0859
2720 1 -0.116253 17.7774 10.2839
3109 2 1.74101 15.9081 10.7033
3720 2 1.80405 17.7799 12.1702
49 1 7.12692 16.0584 12.4262
677 2 6.95422 18.0159 13.9537
658 1 3.54397 17.6822 10.7286
1111 2 5.4434 16.0948 10.5698
1720 3 5.40341 17.8449 12.1205
2111 2 3.4992 16.0608 12.3233
2739 3 3.47694 17.8023 14.1156
2722 3 7.34055 17.9042 10.8554
3123 1 5.14045 16.269 13.9404
1125 1 8.88817 16.2568 14.1084
3111 3 9.12155 15.8691 10.6906
3722 3 9.03488 17.7061 12.3389
50 1 14.4428 15.9801 12.4587
678 2 14.2241 17.9534 14.4402
660 1 10.7631 17.685 10.6716
1113 2 12.5433 16.0981 10.6349
1721 2 12.556 17.6657 12.4179
2112 3 10.7523 16.0997 12.4719
2740 2 10.622 17.7028 14.1267
2723 3 14.336 17.7693 10.4642
3124 1 12.4704 16.0015 14.4604
297 2 17.785 16.1256 12.267
926 1 17.7068 18.0452 14.2523
1126 2 16.0442 15.9299 14.2284
2907 2 17.9613 17.7426 10.3554
3112 1 16.2043 15.8336 10.535
3723 1 16.105 17.7267 12.4789
1613 3 1.64238 -0.281419 16.0843
2114 3 -0.0573929 1.87551 15.9565
2626 1 0.02994 0.0173465 17.9159
3125 2 1.74724 1.7193 17.6943
51 2 3.53052 1.85612 15.9783
502 1 3.73416 -0.0758544 17.8038
1128 3 5.33033 1.71252 17.8646
2115 2 7.18159 1.57284 16.1547
2628 2 7.12776 -0.0784758 17.9088
3614 2 5.16832 0.0696375 15.9073
1614 2 8.98875 -0.0483889 16.112
3127 2 9.01389 2.18634 17.6751
52 1 10.9018 2.0691 16.1279
504 2 10.5962 -0.00454592 17.704
1130 3 12.6361 1.76465 17.82
2116 2 14.2221 1.88033 16.1447
2630 2 14.2596 0.0177908 17.9648
3615 3 12.6255 0.0156026 16.0349
1615 1 16.042 -0.0147086 16.0074
2051 3 17.9755 1.75995 15.9558
2501 2 17.8425 0.263059 17.9976
3129 2 16.3233 1.91737 18.0903
53 2 -0.113698 5.19325 16.0454
506 2 -0.275749 3.54607 17.9482
1132 3 1.67397 5.15707 17.787
1618 1 1.53339 7.00301 16.1901
2636 1 -0.0841435 7.25651 17.6017
3616 1 1.54736 3.73764 16.0814
54 1 7.21065 5.19757 15.79
508 2 7.07783 3.51495 17.9545
512 1 3.54317 7.02806 18.0015
1616 3 5.55356 3.23878 15.9787
2117 1 3.42534 5.41086 15.783
2638 3 7.06299 7.04557 17.713
2632 3 3.67227 3.55096 17.5832
3131 3 5.35683 5.21932 17.6536
3619 3 5.35676 6.89385 16.0184
1134 2 9.17424 5.34248 17.7696
1619 2 9.03 7.19344 15.7892
3617 2 9.15151 3.75918 15.9743
55 3 14.4599 5.34975 16.1138
510 2 14.4162 3.54129 17.9687
514 2 10.9421 7.03138 17.6471
1617 1 12.4696 3.82259 15.9689
2118 2 10.9616 5.23648 16.0132
2640 3 14.2319 7.06784 17.8631
2634 2 10.8726 3.60087 17.8647
3133 2 12.6431 5.29178 17.8219
3620 1 12.4611 6.96416 16.0815
303 1 17.6864 5.3358 16.0565
819 1 17.7877 3.64237 18.0102
1136 1 16.1981 5.51908 17.8686
1620 2 15.9268 7.16717 15.967
2511 2 17.8731 7.33499 18.1482
3618 2 16.1853 3.4059 15.9985
2119 2 -0.180203 8.7195 16.0498
3135 2 1.61459 8.94897 18.2152
56 3 3.5843 8.6908 16.1089
1138 3 5.33499 9.07918 17.7839
2120 2 6.93837 8.96025 16.084
3137 3 8.78073 8.98277 17.6335
57 2 10.727 9.04645 16.0023
1140 3 12.3902 9.11531 17.785
2121 1 14.2527 9.15301 15.9787
2056 1 17.8577 8.81166 16.0266
3139 1 16.1084 8.93087 17.8226
58 2 0.0674238 12.3171 16.2314
516 2 0.0895839 10.6458 17.9203
1142 2 1.93072 12.4764 17.6717
1623 1 1.55007 14.2048 16.1759
2646 2 -0.255666 14.138 17.815
3621 1 1.93821 10.7715 16.0225
59 3 6.83121 12.6353 15.8403
518 3 7.08904 10.9415 17.8607
522 3 3.5482 14.2573 17.8768
1621 1 5.26281 10.6974 16.0979
2122 3 3.68532 12.5616 16.0017
2648 3 7.06318 14.2724 17.7573
2642 2 3.55671 10.7117 17.7758
3141 1 5.4497 12.5485 17.6081
3624 2 5.35565 14.656 15.9513
1144 1 8.8582 12.2926 17.4847
1624 2 8.80886 14.4749 15.8938
3622 1 8.90477 10.4939 15.7681
60 2 14.4419 12.5623 16.342
520 2 14.3035 10.5685 17.7744
524 3 10.7076 14.2164 17.7676
1622 2 12.477 10.8312 16.2271
2123 1 10.4564 12.4661 16.0355
2650 2 14.1432 14.3876 17.917
2644 1 10.4603 10.7528 17.7462
3143 1 12.5653 12.5082 17.9568
3625 1 12.3593 14.2197 16.0777
308 2 17.7438 12.3873 16.1058
829 1 17.9473 10.557 17.958
1146 1 16.1099 12.6157 18.1024
1625 2 16.022 14.4054 16.1722
2521 1 17.7622 14.4119 17.7376
3623 2 16.1123 10.4948 15.997
1738 2 1.83166 17.7628 15.9941
2124 1 0.0171295 16.1433 16.3148
2751 2 -0.0842866 17.7821 17.7977
3145 2 1.72706 16.0249 17.7239
61 3 3.53081 15.9753 15.9991
690 1 3.48645 17.7476 17.8061
1148 3 5.32064 16.0054 17.8948
2125 1 6.97292 16.3307 15.9827
2753 3 7.1417 17.8748 17.6521
3739 2 5.3496 17.8777 15.9653
1739 2 8.79564 18.0491 15.597
3147 3 8.70909 15.9727 17.8444
62 2 10.443 16.152 16.0279
692 1 10.4805 17.7336 17.7661
1150 3 12.3013 16.0503 17.7613
2126 1 14.3439 15.9046 16.0847
2755 1 14.1513 17.7604 17.8953
3740 1 12.2535 17.8346 16.0405
1740 1 16.0234 17.8324 16.2931
2061 1 17.9313 16.2123 15.9905
2938 3 17.7509 17.6041 17.8784
3149 2 15.8958 16.0838 17.6494
501 3 -0.176352 0.0560656 21.3643
63 3 0.0690156 1.88491 19.5729
1127 2 1.78894 2.0722 21.2502
3626 3 1.71731 0.0578171 19.6359
503 2 7.1776 0.148914 21.4659
64 1 7.0792 1.66472 19.5215
1626 1 5.33406 -0.130169 19.7975
2127 1 3.61218 1.74252 19.5842
2627 1 3.47703 0.0907854 21.3878
3126 2 5.30508 1.81726 21.3154
1129 1 9.04566 1.7884 21.1742
3627 2 8.87875 0.013274 19.4392
505 3 14.294 0.0785056 21.3376
65 1 14.4132 1.93715 19.5308
1627 2 12.4759 -0.052604 19.8435
2128 1 10.6821 1.92875 19.498
2629 3 10.514 0.00823033 21.2475
3128 1 12.6297 1.84816 21.1951
814 3 17.8101 0.0431217 21.2392
313 1 17.944 1.77299 19.816
1131 2 16.0376 1.7754 21.5148
3628 3 16.1298 -0.0587919 19.5738
511 2 0.192178 7.13476 21.4414
1628 2 1.9888 3.45125 19.57
2129 1 -0.0740173 5.34767 19.5991
2631 2 -0.132626 3.72097 21.3336
3130 3 1.86195 5.24629 21.2717
3631 1 1.51047 7.22361 19.6678
507 2 3.73599 3.46181 21.4067
513 2 6.88411 7.05281 21.318
66 1 3.63403 5.02015 19.4861
1133 2 5.115 5.40546 21.0925
1631 2 5.29983 7.09899 19.4432
2130 2 7.18778 5.25831 19.424
2637 2 3.65 7.18193 21.1567
2633 2 7.16024 3.24107 21.1812
3629 3 5.35134 3.56013 19.7169
1629 2 9.0773 3.6072 19.5423
3132 1 8.7124 5.37335 21.3694
3632 3 9.02298 7.02331 19.3885
509 3 10.7425 3.78633 21.2829
515 3 14.101 7.05758 21.3932
67 2 10.934 5.64489 19.8691
1135 1 12.61 5.37365 21.4805
1632 2 12.454 7.13717 19.4869
2131 3 14.4994 5.3998 19.7895
2639 2 10.6965 7.37498 21.6063
2635 3 14.2616 3.51967 21.5287
3630 2 12.6067 3.85125 19.7189
824 2 18.0573 7.0448 21.5125
1630 3 16.1985 3.60826 19.8849
2316 1 17.9577 5.42797 19.5631
2506 3 18.0197 3.74703 21.4295
3134 1 15.9815 5.46273 21.4818
3633 2 16.1255 7.13137 19.6426
68 3 -0.152954 8.93347 19.7159
1137 2 1.99366 9.07283 21.2855
69 1 6.91675 8.75388 19.7253
2132 1 3.48274 9.04206 19.4432
3136 2 5.27991 8.86567 21.3749
1139 3 8.78117 8.70332 21.287
70 1 14.0412 9.01158 19.6352
2133 2 10.792 8.86133 19.4642
3138 2 12.367 8.95732 21.3557
318 1 17.8384 9.13067 19.7831
1141 2 15.98 8.84858 21.1535
521 2 -0.23318 14.356 21.3891
1633 2 1.94485 10.816 19.6207
2134 2 -0.0592301 12.619 19.4646
2641 2 -0.219479 10.7436 21.4096
3140 2 1.80855 12.541 21.5003
3636 3 1.81398 13.9867 19.6267
517 2 3.75526 10.8071 21.3669
523 1 7.27055 14.3752 21.5986
71 1 3.49546 12.3783 19.6452
1143 3 5.27851 12.7503 21.7916
1636 1 5.4324 14.3335 19.7723
2135 3 7.04625 12.4588 19.6648
2647 3 3.3663 14.2867 21.5455
2643 1 6.92666 10.8941 21.5109
3634 3 5.29467 10.8444 19.5274
1634 3 8.6709 10.5788 19.7299
3142 2 8.97999 12.3957 21.4308
3637 2 8.83929 14.2774 19.5599
519 1 10.7037 10.5811 21.473
525 3 14.1567 14.1813 21.1551
72 3 10.2961 12.3207 19.5543
1145 2 12.5192 12.4718 21.1243
1637 3 12.2752 14.2795 19.5859
2136 3 14.5365 12.5141 19.4511
2649 1 10.5291 14.3171 21.516
2645 2 14.2824 10.666 21.3616
3635 2 12.3627 10.5414 19.6117
834 2 18.0736 14.2137 21.577
1635 2 16.14 10.8624 19.5466
2321 3 18.162 12.4336 19.4917
2516 3 17.9124 10.803 21.4452
3144 1 16.2452 12.4215 21.3624
3638 3 16.134 14.5378 19.7386
689 3 0.103824 17.6557 21.4464
73 2 0.272211 15.7745 19.5286
1147 1 1.78832 15.8294 21.7751
3751 2 1.77947 17.908 19.696
691 3 6.90447 17.7772 21.6022
74 2 7.16477 16.2647 19.5932
1501 1 5.3345 17.804 19.5975
2137 2 3.52909 16.1483 19.6064
2752 2 3.88893 17.8078 21.5324
3146 1 5.09564 15.9401 21.5828
1149 2 8.97869 16.0882 21.2744
3752 1 8.71133 17.9914 19.6127
693 1 14.2347 17.8964 21.2756
75 1 14.1364 16.0694 19.6401
1502 3 12.2964 17.758 19.3083
2138 3 10.5752 16.0247 19.6555
2754 1 10.5061 18.0999 21.2589
3148 3 12.4265 16.1695 21.2669
939 2 17.7411 17.7627 21.4117
323 1 17.9479 16.0059 19.7687
1151 3 15.8703 16.1314 21.4086
3753 3 15.8794 17.8392 19.5293
1638 3 1.59295 0.428416 22.9372
2139 3 -0.0581728 2.05923 22.9592
2651 2 -0.0535276 0.102739 25.1303
3150 2 1.88937 1.75265 25.018
526 3 7.12626 -0.00327108 24.9851
77 3 5.45816 1.6868 24.9674
76 3 3.63412 1.7747 23.3515
2140 2 7.05646 1.93544 23.2105
3640 3 3.39726 -0.122053 24.841
3639 1 5.33275 -0.235951 22.9288
1152 3 9.03083 1.8066 24.7757
1639 1 8.93268 -0.106718 23.2116
78 2 10.8457 1.6262 23.0012
1640 2 10.7486 -0.268232 24.8926
2142 1 14.3796 1.86022 23.248
2141 1 12.2382 1.77398 24.8708
2652 2 14.2802 -0.0384493 25.1691
3641 1 12.2764 -0.159794 23.1068
1641 2 16.0527 0.125652 23.3632
2326 1 17.8884 1.73285 22.9673
2526 2 17.8832 0.189591 25.0352
3151 3 16.2249 1.93915 24.8968
528 1 -0.111668 7.34577 24.9348
80 3 1.69129 5.25397 24.8494
79 1 -0.0224173 5.41192 22.9291
1645 1 1.87887 7.09584 23.1602
3643 2 -0.0556107 3.57377 24.7649
3642 1 1.87553 3.61309 23.0348
527 2 3.51451 3.67759 24.9046
81 1 7.18633 5.06683 23.0519
1153 3 5.54566 5.42521 24.7683
1646 1 3.50322 7.17289 24.9131
1643 1 7.36827 3.63384 25.1085
1642 1 5.51041 3.61158 23.2034
2143 2 3.50401 5.37668 23.1575
2654 2 7.13904 6.88783 24.9369
3647 3 5.18674 7.18059 23.2693
1647 2 8.76148 7.2278 22.9481
2144 2 8.99206 5.64418 24.6073
3644 3 8.97999 3.41811 22.9772
529 3 13.9887 7.07036 24.8657
82 3 14.3645 5.52722 23.2121
1644 3 12.4502 3.77249 23.1711
2145 1 10.6771 5.69025 23.1736
2653 3 10.5801 3.82412 24.7315
3152 3 12.2961 5.39412 25.0583
3649 2 10.7203 7.42258 24.8541
3648 3 12.3934 7.31451 23.1433
3646 2 14.2605 3.55958 24.5867
841 3 17.7564 7.19063 25.0382
329 3 17.9613 5.45923 23.1552
83 1 16.0862 5.47413 24.8456
1648 2 16.1733 7.3779 23.1801
3893 3 17.6486 3.68969 24.8858
3645 3 16.2542 3.6219 23.0664
1154 2 1.65277 8.88438 25.029
2146 3 0.00962588 9.02017 22.8783
84 1 3.40631 9.01893 23.1038
2148 1 6.84419 8.98371 22.9265
2147 3 5.31349 8.89556 25.0357
3153 3 8.71971 8.74456 24.966
86 2 12.374 8.99928 25.0478
85 2 10.4918 9.10311 23.2603
2149 1 14.2235 8.75467 23.204
1155 1 16.0833 9.05767 24.9317
2333 1 17.9435 8.79293 23.2004
87 2 -0.179094 12.6138 22.9869
1653 2 1.64056 14.393 23.4056
1649 2 0.1165 10.7071 24.7001
2150 2 2.08442 12.4818 24.9014
2656 1 0.0323402 14.2169 24.8895
3650 1 1.60698 10.7541 22.9979
531 3 7.23074 14.0618 24.9047
88 1 7.15107 12.4617 23.1884
1650 2 5.37815 10.7881 23.2557
2151 1 3.42421 12.5436 23.1232
2655 3 3.44925 10.691 24.5172
3154 3 5.34068 12.419 25.038
3655 2 3.35705 14.3494 24.9895
3654 3 5.46616 14.2522 23.3979
3652 3 7.13642 10.6412 25.0723
89 3 8.99896 12.4326 24.8228
1654 2 9.03109 14.1632 23.2066
3651 2 8.64445 10.68 23.0974
530 1 10.7354 10.5515 24.8737
90 1 13.9607 12.5784 22.9916
1156 2 12.2259 12.6554 24.9044
1655 1 10.7197 14.41 24.8094
1652 2 14.1902 10.7095 24.8768
1651 2 12.4573 10.6689 23.1875
2152 3 10.6799 12.4155 22.857
2657 3 14.1296 14.2961 24.5834
3656 2 12.2389 14.2646 22.8132
337 3 17.9585 12.4343 23.1074
1837 2 17.6637 10.9014 24.9688
1656 3 15.9503 14.2466 23.2917
2153 2 15.8401 12.4203 24.7655
2531 3 17.8384 14.2534 24.7047
3653 3 16.0276 10.4001 23.0532
1513 1 1.89946 17.7907 23.1277
2154 2 -0.0820406 15.8975 23.263
2776 3 0.0534739 17.9598 24.7385
3155 1 1.85331 16.1014 24.9804
714 2 6.92171 17.9609 25.0836
92 1 5.33876 16.0132 25.1301
91 2 3.68062 16.0416 23.5291
2155 2 7.24149 15.9116 23.2075
3765 2 3.4136 17.9852 25.1462
3764 2 5.27167 17.9532 23.2229
1157 1 8.90284 16.0144 24.9606
1514 1 8.58747 17.5821 23.3138
93 2 10.4813 16.2492 23.0566
1515 2 10.5302 17.8964 25.0875
2157 3 13.8993 16.1862 23.155
2156 1 12.5019 16.0742 24.883
2777 3 14.1974 17.9861 25.1294
3766 3 12.3502 17.8789 23.2174
1516 1 16.0019 17.9719 23.0863
2341 2 17.4556 15.8777 23.0484
2963 1 17.6014 17.7324 24.9078
3156 3 15.7871 16.1019 24.6279
94 1 -0.214291 1.77775 26.8724
3657 3 1.76716 0.142032 26.8444
533 2 5.24809 -0.304651 26.72
1159 1 3.771 1.73002 26.7245
2159 1 7.43526 2.00542 26.6772
1658 2 8.89054 0.0358646 26.6799
97 2 14.1876 1.95154 26.575
2659 1 12.4797 -0.10128 26.6397
3158 1 10.5086 1.80602 26.6386
344 1 18.0154 1.5874 26.748
3660 1 16.0054 0.185568 26.7233
536 3 1.72928 3.57831 26.8323
1162 2 -0.0632481 5.31048 26.4936
1664 3 1.75805 7.29645 26.7888
1661 3 5.34742 3.44309 26.6934
2162 1 3.46488 5.37182 26.6629
2665 2 5.29472 7.17302 26.6206
3161 1 7.15163 5.11927 26.8582
2662 1 9.14903 4.2022 26.7255
3666 1 8.8601 7.10564 26.7033
542 2 12.658 7.31545 26.8702
100 2 10.7434 5.7104 26.778
1165 2 14.1504 5.19812 26.5342
3663 1 12.4022 3.60443 26.4938
539 2 15.9994 3.71792 26.7139
1349 2 17.6605 5.70017 26.6129
1667 1 15.7766 7.13812 26.4868
2165 3 0.00590946 9.01573 26.7491
103 2 7.12297 8.81067 26.5367
3164 2 3.53649 9.00187 26.618
1168 3 10.4921 8.89716 26.7823
2168 2 14.2955 9.00559 26.7955
2352 2 17.3649 9.06143 26.6568
2668 1 1.82512 10.9615 26.6286
3167 1 -0.0426818 12.5823 26.7161
3672 3 1.65429 14.2855 26.9371
548 1 5.19053 14.2708 26.8697
106 1 3.66471 12.4162 26.7577
1171 1 7.01869 12.3257 26.7968
3669 1 5.29595 10.4549 26.6162
545 1 8.80476 10.7428 26.856
1673 1 8.76927 14.1741 26.662
1670 2 12.2792 10.8312 26.5113
2171 3 10.6861 12.4079 26.7492
2674 2 12.5352 14.2418 26.5875
3170 1 14.013 12.5315 26.5446
2671 2 15.8972 10.9863 26.8919
3417 1 17.9327 12.539 26.7114
3675 1 15.8652 13.9723 26.5092
109 3 -0.113594 16.0503 26.7015
3782 3 1.58799 17.6986 26.7771
721 2 5.16776 17.9018 26.6304
1174 3 3.49765 16.0366 26.8964
2174 3 7.17394 16.1482 26.5136
1533 2 8.6974 17.9057 26.6804
112 1 14.5241 15.9984 26.7358
2784 2 12.4246 17.7939 26.6879