ITEM: TIMESTEP
5000
ITEM: NUMBER OF ATOMS
4000
ITEM: BOX BOUNDS pp pp pp
1.8463914145897320e-02 3.5715596085854187e+01
1.8463914145897320e-02 3.5715596085854187e+01
1.8463914145897320e-02 3.5715596085854187e+01
ITEM: ATOMS id type x y z
563 1 -0.0646624 -0.0788032 0.428476
1064 3 1.76756 1.81763 0.152445
1563 2 1.66418 -0.138048 2.02553
2064 2 -0.0173653 1.65395 1.77238
1 2 3.42823 1.88532 1.97999
565 1 7.14529 0.0995226 -0.134498
2065 3 7.145 1.72479 1.73298
2565 1 3.56706 0.11656 0.295794
3064 2 5.26869 1.9215 -0.0754597
3564 2 5.52315 0.0606378 1.49864
2 2 10.7527 1.65299 1.92073
1066 3 8.83868 1.84608 0.0430879
1564 3 8.94348 0.173245 1.65072
2566 1 10.6788 0.172201 0.0541973
567 1 14.1694 0.0778814 -0.209409
2066 3 14.2602 1.62696 1.58764
3066 1 12.445 1.65497 -0.0342419
3565 1 12.4705 -0.265346 1.68912
751 2 17.8517 0.0961213 0.0164664
1068 3 16.0683 1.73309 -0.205831
1565 2 15.9167 -0.111039 1.73069
2001 3 17.7423 1.98029 1.73406
3 1 0.00902646 5.48762 1.92249
573 3 0.0379658 7.321 0.138467
1568 3 1.70718 7.12395 1.85097
2569 2 -0.0736025 3.78159 0.123604
3068 1 1.68703 5.31675 0.109033
3566 1 1.65136 3.55953 1.76747
4 1 6.76169 5.4312 2.05688
569 3 3.39143 3.43749 0.0474143
577 3 7.16763 6.95261 0.0157792
1070 1 5.35996 5.25326 0.0845108
1566 2 5.1881 3.5005 1.96138
2067 2 3.46965 5.43114 1.94259
2576 2 3.51625 6.9723 -0.0269879
2571 3 7.17511 3.75413 -0.0381184
3570 2 5.19247 7.27588 1.63424
570 3 10.594 3.56154 -0.292254
1570 1 8.9709 7.21197 1.66576
2068 2 10.6805 5.10173 1.66123
2578 3 10.7343 7.31998 0.128906
3070 3 8.90882 5.2592 0.224835
3567 1 8.97241 3.53644 1.84063
5 2 14.4747 5.43 1.8438
581 2 14.1257 7.07366 -0.118447
1072 3 12.5792 5.26747 0.28609
1567 3 12.5535 3.60523 1.71179
2573 1 14.4037 3.5977 0.059234
3572 3 12.5044 7.19966 1.60998
253 2 17.9995 5.46115 1.76551
761 2 17.7903 7.31355 -0.151769
1572 1 16.1983 6.86923 1.57673
2819 1 17.8799 3.56191 0.0159704
3072 3 16.1411 5.29307 -0.130116
3568 2 16.0321 3.43302 1.54375
1074 1 1.96344 8.8701 0.217285
2069 2 0.0856368 8.91069 2.0032
2574 3 0.157424 10.6104 0.0597344
3569 1 1.93293 10.514 2.11926
6 1 3.61906 8.96243 1.90409
575 2 3.6664 10.6148 0.00164882
1569 1 5.33911 10.7409 1.81765
2070 1 6.9607 9.02739 1.65936
2579 2 7.13464 10.8931 -0.0109377
3074 3 5.29613 8.81791 -0.0682512
7 3 10.6619 9.05108 1.83404
578 1 10.666 10.7967 -0.163858
1076 3 8.92016 8.89668 0.0299628
3571 1 9.01266 10.8104 1.76047
1571 3 12.4813 10.7068 1.96727
2071 2 14.1014 8.98147 1.75759
2582 1 14.1339 10.6146 0.043351
3076 2 12.3117 8.97614 0.0883007
1078 2 16.0832 8.84469 -0.267923
2006 2 17.932 8.91399 1.78479
2825 3 17.9489 10.5254 -0.0518006
3573 2 16.1811 10.5839 1.73198
8 2 0.0711521 12.2509 2.18201
583 1 0.211512 14.149 0.407793
1573 1 2.11197 14.3297 1.84212
3078 1 1.94327 12.296 0.0966294
9 1 7.31237 12.6645 1.76037
585 3 7.21488 14.3836 -0.0184685
1080 2 5.46894 12.5255 0.188854
2072 2 3.76794 12.4811 2.01512
2585 3 3.66 14.1763 0.0271876
3574 1 5.3233 14.328 1.64404
1574 1 9.04329 14.5042 1.67966
2073 3 10.756 12.6723 1.65678
2586 1 10.6448 14.5744 0.0115039
3080 2 8.99992 12.5326 -0.068409
10 2 14.2041 12.4942 1.87479
587 3 14.3621 14.4575 0.0587713
1082 3 12.6169 12.7284 -0.0346992
3575 2 12.5044 14.1444 1.92668
258 3 17.912 12.3303 1.74147
771 3 17.7667 14.1407 0.12499
1575 2 16.054 14.0501 1.97989
3082 2 16.2951 12.4053 0.103787
626 1 0.330039 17.8162 0.130356
1084 1 2.2146 16.0851 -0.0192162
1688 3 1.97953 17.808 2.05987
2074 2 0.140085 15.8419 1.82635
11 2 3.58102 15.8676 1.67117
630 2 7.12455 18.1234 -0.0234798
2075 3 7.08073 16.1847 1.61927
2691 2 3.96896 18.0116 -0.0193625
3084 2 5.19363 16.225 0.135495
3690 1 5.16493 17.8945 1.94384
12 2 10.6901 16.3153 1.87204
1086 2 8.92764 16.2041 0.0725316
1690 2 9.02998 18.0812 1.43546
2693 2 10.764 18.0473 -0.0374946
634 1 14.3598 17.9106 0.156399
2076 2 14.4794 16.0665 1.81913
3086 3 12.5292 16.0616 0.133837
3692 2 12.6711 18.0361 1.98584
876 3 17.7804 17.776 0.137841
1088 3 16.0495 16.036 -0.0275641
1692 2 15.9047 17.997 2.11795
2011 1 17.7822 16.1998 1.85157
13 1 -0.0774345 1.7772 5.2807
588 3 0.0374857 -0.0520018 6.86171
1089 1 1.70509 1.70486 7.29621
2564 2 0.00397008 0.0176404 3.59113
3063 1 1.67548 1.71054 3.53682
3576 3 1.93673 0.0980989 5.36053
14 3 7.01942 1.84925 5.42019
564 2 3.60845 -0.136319 3.6774
1065 2 5.39523 1.76002 3.60321
1577 1 3.56394 -0.0532743 7.14314
1576 2 5.54466 -0.0469528 5.20795
2078 2 5.12923 1.73618 6.99182
2077 2 3.70008 1.59812 5.24745
2589 1 7.09649 -0.11433 6.93447
2567 1 7.51838 0.0123745 3.45423
566 1 10.9117 -0.000953033 3.35193
2079 3 10.8931 1.78316 5.30498
3065 2 9.14505 1.73351 3.66396
3088 3 9.09296 2.10262 7.07245
3578 1 10.8258 -0.115789 7.11285
3577 3 9.2127 0.194768 5.40028
15 2 12.5494 2.09791 7.06589
16 1 14.4103 1.85065 5.39879
589 3 14.4574 -0.0387949 7.04959
1067 2 12.4837 1.8635 3.5633
1578 3 12.6536 0.304722 5.45712
2568 3 14.2207 -0.0762262 3.55669
263 3 17.9111 1.7053 5.228
776 1 18.0147 -0.15391 6.99819
1090 3 16.1231 1.72283 7.44618
2815 2 17.845 0.0125441 3.42544
3067 3 16.3185 1.63428 3.59187
3579 2 16.0978 0.247354 5.59599
568 3 -0.027241 3.39609 3.72156
1069 1 1.65713 5.32601 3.68529
1580 3 -0.0185198 3.5191 7.37754
1579 1 1.88449 3.2862 5.37604
2081 1 1.67807 5.11346 7.17377
2080 2 -0.00184796 5.21236 5.41883
2591 3 -0.109343 7.16822 7.1626
2575 3 -0.107328 7.23951 3.64086
3583 1 1.60103 6.94644 5.62279
17 3 3.37097 5.28819 5.29993
571 3 7.19484 3.48832 3.47495
592 1 7.04271 7.26608 7.11299
576 3 3.40666 7.28676 3.57395
1585 2 5.0922 7.17505 5.40671
2082 3 6.88635 5.57047 5.11164
2590 1 3.66346 3.65631 7.09558
2580 1 6.99907 7.32752 3.66415
2570 3 3.46233 3.61619 3.75293
3069 1 5.08076 5.36745 3.52132
3089 2 5.34711 5.42742 7.03804
3586 3 3.56587 7.02763 7.17439
3581 3 6.98983 3.69182 7.13928
3580 3 5.39786 3.55214 5.34445
18 1 10.7439 5.44176 5.14324
19 1 8.81286 5.26759 6.9831
590 1 10.9449 3.80575 6.86693
579 1 10.7858 6.85654 3.34099
1071 3 8.86555 5.30489 3.41016
1587 1 10.6569 7.04131 7.17392
1581 2 8.81145 3.54842 5.2448
2572 3 10.6781 3.60805 3.47497
3587 3 8.80072 7.21384 5.32865
572 3 14.561 3.61945 3.55622
1091 1 12.5412 5.52395 7.11468
1589 2 12.5061 7.37512 5.32745
1583 2 14.4063 3.62871 6.98204
2083 1 14.3251 5.48746 4.97863
2593 1 14.3082 7.13039 7.15607
2583 3 14.3009 7.25928 3.36103
3071 3 12.5262 5.27601 3.50274
3582 3 12.6795 3.62482 5.20382
757 2 17.9509 3.6095 3.4282
1073 3 16.2575 5.32539 3.52021
1768 3 17.9372 3.21375 7.05287
1582 1 16.1396 3.53544 5.40132
2084 3 15.9793 5.44273 7.07784
2017 2 17.7719 5.18822 5.2876
2841 3 17.8748 7.20963 7.21605
2826 3 17.7143 7.26133 3.60052
3589 2 15.9957 7.25494 5.46318
20 2 -0.0504824 8.79552 5.58579
574 2 0.0308902 10.4757 3.7843
1584 1 1.88578 10.8542 5.6083
3073 3 1.82586 8.80245 4.21358
3090 1 1.91009 8.94179 7.06062
3584 2 0.117975 10.6568 7.05951
21 2 5.47133 8.96085 7.2503
22 3 7.04828 8.90109 5.5364
591 2 3.78931 11.1016 7.11052
580 1 7.26989 10.7273 3.58083
1075 3 5.4017 8.98815 3.7252
1588 1 7.22707 10.7879 7.19085
2085 1 3.68924 9.05091 5.39448
2577 3 3.90549 10.7756 3.89987
3585 3 5.54148 10.7806 5.40229
1092 2 9.03296 8.94209 7.17508
1586 3 8.90074 10.5529 5.25282
2086 1 10.5276 8.65228 5.47282
2592 2 10.6392 10.661 7.15
2581 3 10.5309 10.8624 3.54869
3075 3 9.11777 8.95502 3.55355
23 2 14.3396 8.96136 5.35296
582 3 14.3244 10.6295 3.60768
1077 1 12.389 9.04897 3.6949
2087 1 12.3213 8.90859 6.97232
3590 1 14.1345 10.5647 7.24156
3588 1 12.3268 10.9733 5.3081
270 2 17.8751 8.98689 5.58542
764 2 17.7433 10.5254 3.3001
1590 3 16.0949 10.5573 5.30963
3091 2 16.022 8.75716 7.35108
3077 3 16.1155 8.77296 3.51362
3835 2 17.7826 10.6903 7.05226
24 1 1.64926 12.5465 7.05415
593 2 -0.0870707 14.3282 7.14975
1079 3 2.03475 12.3387 3.71633
2088 2 0.0393509 12.2745 5.23692
2584 2 0.190614 14.3278 3.61103
3591 1 1.84556 13.9275 5.43116
25 1 3.84223 12.5351 5.46587
584 3 3.77052 14.2007 3.85459
1093 1 5.77287 12.6363 7.28779
1592 3 3.5975 14.3894 7.04088
1591 3 5.72996 14.4984 5.30968
2089 2 7.34176 12.6424 5.46474
2594 1 6.95212 14.6994 7.20891
2587 1 7.51139 14.5123 3.66547
3079 2 5.67332 12.4929 3.47454
26 2 10.6522 12.7168 5.34585
586 2 10.3014 14.6408 3.60837
1081 2 9.00845 12.8594 3.71461
2090 1 8.93282 12.5892 7.17067
3593 2 10.485 14.3036 7.26699
3592 1 8.67816 14.4719 5.48405
594 1 14.2528 14.2947 7.27087
1593 1 12.4669 14.3058 5.50918
2091 2 14.2525 12.4027 5.42184
2588 3 14.2829 14.3175 3.75724
3092 2 12.3893 12.1768 7.30234
3081 3 12.3922 12.6969 3.68801
27 2 15.8429 12.2342 7.29582
781 1 17.7918 14.3787 7.18081
1083 2 16.0376 12.2886 3.55664
2025 2 17.7546 12.4443 5.30285
2835 2 17.7945 14.2615 3.7754
3594 2 16.2465 14.2199 5.63997
28 1 0.141997 16.0484 5.41891
651 2 -0.179965 17.8622 7.23687
1094 2 1.9527 15.7604 7.04379
2690 3 0.174335 17.8846 3.39575
3083 1 2.1304 16.1121 3.69454
3701 2 1.84691 17.8843 5.44161
29 2 7.35791 16.3471 5.20601
629 3 3.56444 17.9897 3.77172
1085 3 5.31597 16.0763 3.4588
1704 1 3.24727 17.8095 7.30171
1703 3 5.36676 17.9 5.37378
2093 3 5.21071 16.233 7.13045
2092 2 3.65281 15.9462 5.29757
2715 1 7.07157 17.8349 7.12803
2695 3 7.26143 17.9309 3.56066
632 2 10.7073 18.0102 3.59184
2094 1 10.8426 16.1463 5.55839
3093 2 8.86165 16.0734 7.24917
3085 1 8.93526 16.3927 3.58448
3704 3 10.7944 17.8917 7.13747
3703 3 9.07227 17.9259 5.48248
30 2 12.4551 15.9296 7.26053
31 3 14.2566 15.853 5.58063
653 3 14.076 17.8652 7.00509
1087 1 12.7341 15.9341 3.62964
1706 2 12.427 18.0151 5.36083
2698 1 14.3648 17.8888 3.78466
278 2 17.5712 16.275 5.34341
901 1 18.0271 17.9333 7.08906
1095 3 16.1096 16.0444 7.14945
2878 2 17.7833 18.1366 3.39692
3087 2 16.0507 15.8309 3.70165
3707 3 16.0292 17.9165 5.54511
1594 2 1.57434 -0.121102 9.00878
2095 1 -0.00762231 1.89073 8.94427
2595 2 -0.160568 0.145372 10.816
3094 1 2.00642 1.79826 10.7614
33 1 7.14023 1.82553 8.96267
595 1 3.6166 -0.0114886 10.8627
1096 2 5.32339 1.92157 10.9232
2597 1 7.22968 -0.0195291 10.5855
2596 2 5.6118 0.0795957 8.72654
3095 2 3.71928 1.5532 8.85775
596 2 10.8835 0.102448 10.6577
1097 2 10.8043 1.88209 8.76504
3096 2 8.87063 1.62152 10.466
3596 3 8.97378 0.196693 8.68029
597 3 12.6172 0.205312 8.90211
1098 3 12.5804 1.82681 10.8072
2098 1 14.3721 1.94417 8.7941
2598 3 14.4125 0.174731 10.7053
1597 3 16.1249 -0.00455083 9.01667
2032 3 17.7285 1.77562 8.94575
2845 2 17.9428 0.0949496 10.7156
3097 2 16.1647 1.89488 10.8277
598 3 0.0642849 3.61262 10.7677
1099 1 1.74085 5.56233 10.6143
2603 1 0.209547 7.13458 10.6534
2599 3 1.952 3.56639 9.04459
3098 3 -0.0175883 5.25743 8.80955
3602 1 1.8758 7.38245 9.0574
36 3 3.53977 5.35661 9.0121
605 3 3.5399 7.04327 10.6042
604 1 5.3851 7.03415 8.82205
600 1 7.20589 3.63243 10.7122
1100 3 7.18424 5.34708 9.04943
2606 3 7.19041 7.08845 10.7406
2600 1 3.74925 3.55685 10.8064
3099 3 5.53767 5.29387 10.7375
3599 1 5.40535 3.6394 8.84786
606 1 10.7545 6.88534 10.71
599 2 8.80037 3.58523 8.9976
1101 1 8.90333 5.25311 10.7602
1605 2 8.94345 7.17144 8.83708
2100 2 10.451 5.24188 8.965
2601 1 10.5455 3.63676 10.5745
601 3 14.2956 3.61387 10.8773
1600 3 12.5659 3.75924 8.77333
2609 1 13.9947 7.17374 10.7685
2608 2 12.3018 7.09628 8.82419
3101 3 14.2863 5.48235 8.92301
3100 2 12.3683 5.30449 10.7556
786 3 17.8407 3.66445 10.4456
1102 3 16.0485 5.43924 10.8231
2853 1 17.7953 6.99201 10.8297
2602 1 15.907 3.77763 8.75777
3348 3 17.6566 5.49043 9.00996
3608 1 15.91 7.1868 8.77248
39 2 0.053209 8.9971 8.84353
603 1 0.211778 10.5275 10.7211
602 2 1.86437 10.8406 8.91186
3102 2 1.88248 9.02745 10.6339
607 1 7.2895 10.6976 10.6982
1104 2 5.46909 9.02006 10.5432
1103 2 3.52845 8.8292 8.83262
1603 3 5.33498 10.7619 8.81549
2104 3 7.16011 8.86075 8.9394
2604 2 3.68314 10.7033 10.5658
2607 3 10.5386 10.7505 10.7817
2605 3 8.77757 10.7757 8.98374
3104 1 8.77137 8.81858 10.6456
3103 1 10.5465 9.12595 8.91971
42 1 14.0176 8.85914 9.08624
609 2 14.2099 10.4485 10.8411
1105 3 12.2424 8.90789 10.8559
3606 2 12.2861 10.681 9.05486
289 2 17.6084 8.79622 9.07339
792 1 17.9097 10.9164 10.888
608 3 15.853 10.4724 9.01181
3105 2 15.9413 8.94871 10.9307
1107 3 2.01061 12.3548 10.6738
1106 3 0.170705 12.5712 8.95692
1609 1 1.76054 14.3914 9.17642
2610 2 -0.101171 14.2522 10.7597
610 3 3.73735 14.1599 10.825
2107 1 3.60351 12.6762 8.79425
2612 1 7.04088 14.3924 10.8432
2611 3 5.41112 14.4067 8.91275
3107 2 7.37861 12.8946 9.02933
3106 3 5.46916 12.5741 10.4901
45 3 10.8288 12.5653 8.93677
611 3 10.546 14.3496 10.5982
1108 3 8.8581 12.6861 10.8029
3611 1 8.86078 14.5035 9.02904
612 2 12.5091 14.2531 9.10128
1109 3 14.1719 12.4348 8.91636
2613 1 14.0122 14.2395 10.8762
3108 1 12.5483 12.3117 10.7592
1293 2 17.7382 12.2872 8.96175
1110 3 15.8808 12.3276 10.8908
1612 3 16.1168 14.1555 8.84984
2860 1 17.8467 14.1659 10.8226
1719 1 1.85716 17.74 8.95097
2110 2 0.0101122 16.0682 8.81329
2721 2 -0.341868 17.7418 10.9323
3109 2 1.72395 16.0979 10.6728
48 3 7.04922 16.1877 9.09002
659 1 3.60839 17.7981 10.8057
1111 2 5.29797 16.1594 10.6524
2724 2 7.10994 17.842 10.8086
2722 1 5.39165 17.8466 9.00134
3110 1 3.54576 16.0499 9.02939
661 2 10.9544 17.8792 10.6498
1112 3 10.5087 16.1344 9.0126
3111 3 8.84181 16.0563 10.8011
3723 2 8.75743 17.784 9.1045
663 3 12.5534 17.8398 8.8771
1113 2 12.3791 16.0396 10.5144
2113 1 14.1387 15.9334 9.01667
2727 1 14.229 17.6544 10.6679
1725 1 16.006 17.7298 8.87979
2047 3 17.9246 16.2044 8.88602
2908 1 18.0382 17.8927 10.6097
3112 1 16.1691 15.7787 10.4259
32 2 0.22637 1.63385 12.5832
613 2 0.16833 0.105525 14.2498
1114 3 1.85898 1.92603 14.1692
3595 2 1.81865 -0.00161476 12.4485
34 1 7.39895 1.89729 12.3103
614 1 7.18256 -0.0871215 14.029
1595 2 5.56329 -0.0895261 12.4696
2096 1 3.77496 1.92006 12.4758
2614 3 3.74994 0.218124 14.074
3113 2 5.63178 1.75289 14.007
1115 2 9.04781 1.67209 14.1054
2097 3 10.8829 1.76291 12.4885
2615 1 11.0451 0.120979 14.3907
3597 2 9.05772 0.155122 12.3735
35 1 14.5531 2.04305 12.7451
615 3 14.3284 0.144837 14.4168
1596 3 12.7957 0.22054 12.5654
3114 2 12.5971 2.02066 14.4599
282 1 17.9433 2.09486 12.5766
801 3 17.7476 0.154339 14.3168
1116 2 16.1079 1.88333 14.5191
3598 1 16.0238 0.203293 12.3699
618 3 0.0400892 7.25673 14.4091
1598 3 1.83619 3.58918 12.5335
2099 2 -0.19128 5.45456 12.4046
2616 1 0.0694355 3.62341 14.1653
3115 3 1.69837 5.50769 14.2817
3603 3 1.67858 7.20813 12.5162
37 2 3.71278 5.10321 12.4549
620 2 7.02011 6.88878 14.3891
616 1 3.50182 3.51258 14.5654
1117 3 5.36909 5.22765 14.5353
1604 1 5.20811 6.92321 12.5661
2101 3 7.36757 5.25785 12.6204
2620 2 3.67279 7.14079 14.3767
2617 1 7.20369 3.55971 14.4698
3600 3 5.58668 3.69304 12.6588
38 2 10.754 5.4452 12.2881
617 1 10.7618 3.50961 14.4278
1599 1 9.34821 3.53377 12.4294
2621 3 10.6947 7.26546 14.1398
3116 3 9.114 5.35894 14.4031
3605 1 8.84728 7.09383 12.518
622 3 14.2399 6.99106 14.289
1118 3 12.623 5.14668 14.3514
1607 1 12.4993 6.97247 12.4285
2102 3 14.3512 5.34668 12.585
2618 3 14.4747 3.75129 14.4707
3601 2 12.496 3.5946 12.6045
806 2 17.6096 6.96599 14.3609
1601 2 16.3594 3.47742 12.4452
2036 2 17.8576 5.2705 12.4753
2866 3 17.7669 3.72109 14.2045
3117 3 16.0959 5.40135 14.4522
3609 3 16.0555 7.28005 12.7135
40 2 -0.0476365 8.88544 12.4041
1119 1 1.91785 9.19731 14.1437
1602 2 2.01178 10.7821 12.3424
2619 3 0.0306025 10.6343 14.2202
41 3 6.90085 8.82659 12.3468
619 2 3.75612 10.6279 14.4419
2103 3 3.7378 8.60522 12.2419
2622 3 6.99267 10.7523 14.1997
3118 3 5.44786 8.85166 14.247
3604 3 5.26796 10.9397 12.4054
621 3 10.4995 10.6242 14.4412
1120 3 8.70053 9.04231 14.1718
1606 1 8.76775 10.5922 12.448
2105 3 10.48 8.97025 12.7817
43 3 14.2303 8.94824 12.6683
2623 3 14.1999 10.7225 14.2446
3119 1 12.3004 9.04183 14.3976
3607 1 12.3533 10.6965 12.664
290 3 17.8835 8.93437 12.4829
1121 1 16.0526 8.84129 14.3372
1608 1 15.9822 10.7407 12.4674
2870 3 17.8123 10.8346 14.153
623 1 -0.100861 14.1726 14.1613
2106 1 -0.054687 12.6282 12.3455
3120 3 1.7583 12.4532 14.0834
3610 2 1.79023 14.379 12.3836
44 1 3.60591 12.4296 12.371
624 1 7.17817 14.3654 14.6439
1122 3 5.30856 12.5622 14.3016
1610 3 5.376 14.2702 12.4946
2108 3 7.02625 12.5095 12.473
2624 3 3.33244 14.2876 14.3252
46 3 10.5554 12.4259 12.7303
2625 1 10.608 14.2323 14.5453
3121 3 8.86634 12.643 14.317
3612 3 8.75592 14.2953 12.6569
625 2 14.0335 14.406 14.3449
1123 2 12.435 12.555 14.4001
1611 2 12.293 14.3563 12.4624
2109 3 14.2705 12.6898 12.5758
811 2 17.8054 14.4734 14.191
2044 2 17.7514 12.63 12.635
3122 2 15.9922 12.7235 14.197
3613 1 15.9754 14.5492 12.4129
47 2 -0.282556 15.9848 12.5133
676 3 -0.109714 17.9686 14.3081
1124 3 1.82355 15.9381 14.2632
3720 2 1.54161 17.7226 12.6956
49 2 7.2223 16.0651 12.58
678 1 6.89632 17.9557 14.3939
1721 2 5.53976 17.7643 12.4731
2111 2 3.54123 16.0546 12.5057
2740 1 3.58594 18.0407 14.2997
3123 2 5.55475 15.9453 14.2585
1125 3 8.84278 16.2245 14.4433
2112 1 10.6733 15.9832 12.4015
2741 1 10.7092 17.7687 14.3074
3724 2 8.91193 17.8505 12.5602
50 1 14.0799 15.9735 12.367
680 1 14.3923 18.0092 14.1788
1724 2 12.4658 17.5269 12.4498
3124 2 12.3586 16.0779 14.3035
297 2 17.7251 16.058 12.421
926 1 17.7111 17.9778 14.3032
1126 3 15.8262 16.0812 14.4074
3726 1 15.8671 17.7545 12.4129
1613 2 1.95096 0.208741 15.8752
2114 3 0.138653 1.75937 16.2209
2626 2 0.270285 -0.142047 17.7629
3125 2 1.91264 1.84364 17.7192
51 1 3.71024 1.86235 15.9186
502 3 3.87289 0.444322 17.738
1128 1 5.61072 1.9792 17.7778
2115 1 7.30676 1.90631 15.9979
2628 3 7.23452 -0.189117 17.8644
3614 2 5.48146 0.267124 15.9942
52 2 10.796 1.81782 16.028
503 1 10.6592 -0.192486 17.8469
1614 3 9.19397 -0.00314176 16.0762
3127 3 9.05545 1.74368 17.6688
1130 1 12.5416 1.84474 18.1423
2116 2 14.119 1.8064 16.3075
2630 1 14.2364 0.00888462 17.7188
3615 1 12.3617 -0.0795037 16.1701
1615 2 16.0239 0.264051 16.072
2051 1 18.0692 2.12818 16.1667
2501 2 17.6693 0.358277 17.8026
3129 1 15.9995 2.01291 17.5681
53 1 0.237703 5.43876 16.1956
506 1 0.0922672 3.78116 18.074
1132 2 2.06193 5.61501 17.8717
1618 3 1.84926 7.34289 15.8931
2636 2 0.0322078 7.1701 17.7543
3616 2 1.63505 3.52729 16.2267
54 1 7.47671 5.19678 16.0458
508 1 7.31097 3.40269 17.8352
513 1 3.59389 7.28098 17.6332
1616 2 5.48456 3.64458 16.2146
2117 3 3.60401 5.51454 16.1376
2640 2 7.23819 6.97404 17.7453
2632 1 3.46372 3.73192 17.7389
3131 2 5.32816 5.31742 17.6672
3620 1 5.53214 7.28817 16.2258
515 1 10.5287 7.29286 17.9025
1134 2 8.97523 5.24102 18.0536
1620 3 8.84818 7.17522 15.893
2118 1 10.8779 5.41475 16.0955
2633 3 10.9328 3.56924 18.0946
3617 2 9.16764 3.68941 16.0564
55 1 14.205 5.35119 16.2024
510 3 14.2194 3.54978 17.939
1617 1 12.4319 3.60693 16.2501
2644 3 13.9783 7.1857 17.6789
3133 2 12.3164 5.51217 18.1461
3622 1 12.3179 7.20418 15.9663
303 2 17.7589 5.63537 16.3178
819 2 17.8113 3.8008 17.9875
1136 2 15.7894 5.4684 17.8893
1622 3 16.0763 7.11034 16.2108
2511 2 17.9136 7.31368 18.1835
3618 2 15.8523 3.78984 16.1372
511 3 0.114815 10.7914 17.8118
2119 2 -0.0321125 8.94525 16.1873
3135 3 1.85361 9.04888 17.9176
3619 1 1.93137 10.6032 15.8731
56 3 3.77702 8.93666 16.157
516 2 7.14007 10.941 17.802
1138 2 5.49355 9.01509 17.8189
1619 1 5.30142 10.9335 16.0686
2120 3 7.12613 9.06256 16.2068
2638 3 3.62277 10.6647 17.767
57 3 10.4482 8.72599 16.0547
2641 2 10.6296 10.7469 17.7939
3137 1 8.60282 9.17071 17.8812
3621 2 8.84232 10.9683 16.3223
519 1 14.3514 10.5856 17.7458
1140 1 12.5442 9.18423 17.7436
1621 1 12.5412 10.8062 15.9334
2121 3 14.2877 8.72367 15.7292
825 3 17.7485 10.8017 17.9289
2056 2 17.8982 8.92095 15.9958
3139 3 15.8552 8.75823 18.0387
3623 3 16.1209 10.8549 15.981
58 2 0.0372195 12.5122 16.0853
1142 1 1.93023 12.3795 17.9931
1623 3 1.79542 14.4088 16.1993
2646 2 -0.0184937 14.4552 18.042
59 3 7.21039 12.7487 16.0227
522 3 3.68026 14.1954 17.9359
2122 3 3.51813 12.6059 15.9728
2648 2 7.19034 14.1459 17.9454
3141 2 5.32466 12.4615 17.585
3624 1 5.34424 14.3586 16.0715
523 3 10.8017 14.2086 17.7697
1144 1 9.13123 12.5936 17.9545
1624 2 8.90802 14.36 16.1618
2123 2 10.8529 12.5475 15.912
60 1 14.2013 12.7309 15.9527
2650 2 14.3014 14.3449 17.8962
3143 1 12.8117 12.3747 17.6807
3625 2 12.4508 14.3022 16.1381
308 1 17.8239 12.4872 16.0032
1146 1 16.0438 12.5921 17.8846
1625 3 16.1814 14.393 15.8953
2521 2 17.7681 14.2959 17.8376
1738 3 1.82417 17.7047 15.8153
2124 1 -0.0911162 15.8695 15.9939
2751 1 -0.0506643 17.793 17.5672
3145 3 1.8448 16.0993 17.8914
61 3 3.71828 16.1141 15.9606
691 1 3.48685 18.0712 17.883
1148 2 5.24888 16.2673 17.8796
2125 2 7.37708 16.1205 16.2917
2755 2 7.0413 17.9113 17.8193
3740 3 5.34493 18.0342 16.0658
62 2 10.77 16.2747 16.1826
693 2 10.8641 17.7749 17.9174
1740 2 8.77201 18.031 16.124
3147 1 8.85617 15.9096 18.0659
1150 2 12.4079 15.9627 17.9518
2126 1 14.239 16.0137 16.4767
2759 2 14.1862 17.7715 17.9237
3742 2 12.4081 17.9379 15.9956
1742 1 15.8858 18.0002 16.3043
2061 1 17.7477 16.4875 15.9049
2938 2 18.078 17.8408 17.793
3149 1 16.0066 16.0197 17.5141
501 1 0.326004 0.207574 21.3085
63 2 0.0923989 1.79323 19.3212
1127 3 1.97225 1.85711 21.4676
3626 1 2.04467 0.201202 19.5873
504 3 7.22993 -0.0146001 21.2908
64 2 7.31204 1.7827 19.5977
1626 3 5.4431 0.224062 19.7429
2127 3 3.69725 1.95509 19.7684
2627 2 3.80301 0.041447 21.4649
3126 1 5.31111 1.95259 21.3962
1129 3 9.06705 1.7159 21.4426
2128 3 10.4619 1.51416 19.6193
2629 3 10.8882 0.157195 21.5851
3627 2 8.96956 -0.278348 19.2697
505 3 14.1547 0.0754715 21.2736
65 2 14.73 1.94854 19.4611
1627 3 12.4632 -0.0839495 19.4399
3128 3 12.2604 2.00518 21.1239
815 3 17.7647 -0.145873 21.2305
313 2 17.6555 1.78723 19.5769
1131 2 16.1255 1.69488 21.4718
3628 1 15.8794 0.278505 19.4057
512 1 -0.0365865 7.25518 21.4689
1628 1 1.74079 3.51412 19.8772
2129 1 0.0509826 5.40586 19.5715
2631 1 0.0935632 3.47889 21.4142
3130 3 1.80134 5.21666 21.4994
3631 3 1.82051 7.22618 19.5762
507 2 3.77595 3.58259 21.4941
517 2 7.11216 7.11402 21.2626
66 1 3.79262 5.34706 19.4862
1133 2 5.46142 5.35819 21.4981
1632 1 5.43738 7.06893 19.6061
2130 1 7.0762 4.90229 19.4484
2639 1 3.72864 7.08433 21.1918
2634 3 7.23999 3.42307 21.4634
3629 2 5.35873 3.69214 19.4868
509 3 10.5752 3.6564 21.4984
67 3 10.6467 5.571 19.8171
1629 3 8.93949 3.51477 19.6139
2642 3 10.508 7.37938 21.4443
3132 2 8.88758 5.43652 21.4464
3633 1 8.91472 7.2344 19.6296
520 3 14.1293 7.45756 21.4555
1135 1 12.1822 5.46627 21.6525
1634 3 12.4311 7.36924 19.6657
2131 3 14.1266 5.50292 19.6334
2635 1 14.3653 3.53136 21.6748
3630 3 12.4983 3.78769 19.6548
826 3 17.7569 7.25795 21.4637
1630 1 15.9384 3.82387 19.6544
2316 3 17.891 5.40764 19.7618
2507 3 17.6764 3.4723 21.4886
3134 3 15.9295 5.45374 21.4928
3635 1 16.0309 7.33414 19.7137
68 1 0.0687478 8.94783 19.6437
1137 3 1.71337 9.02648 21.6731
1631 1 1.62582 10.7099 19.8035
2637 2 -0.0732248 10.7466 21.5075
514 2 3.5308 10.6683 21.5156
69 1 7.17657 9.02659 19.685
2132 3 3.48969 9.06027 19.638
2643 2 7.04356 10.7244 21.4337
3136 3 5.30083 8.96968 21.4109
3632 2 5.46109 10.6707 19.5866
518 2 10.6841 10.7679 21.55
1139 2 8.76558 8.96738 21.478
1633 2 8.83516 10.766 19.5898
2133 3 10.7249 9.0945 19.5577
70 2 13.9841 9.07719 19.6969
2645 1 14.15 10.6886 21.4083
3138 3 12.3518 9.09822 21.6892
3634 1 12.4972 10.733 19.7299
318 1 17.9899 8.99417 19.8219
1141 3 15.989 8.92304 21.3405
1635 3 15.9302 10.7812 19.5562
2514 3 17.9479 10.9086 21.5312
521 2 0.0392473 14.2807 21.239
2134 3 0.0057682 12.39 19.7162
3140 1 1.81765 12.6075 21.3664
3636 3 1.90376 14.1881 19.5837
524 1 6.99624 14.2861 21.466
71 3 3.75821 12.3709 19.4983
1143 2 5.51151 12.5101 21.6059
1636 1 5.3439 14.3371 19.5152
2135 3 6.93229 12.4895 19.7071
2647 3 3.71402 14.3297 21.3423
72 1 10.6889 12.6083 19.6894
2649 2 10.6668 14.3338 21.5357
3142 3 8.88958 12.4392 21.4662
3637 3 8.76611 14.4285 19.9234
525 1 14.3161 14.3326 21.3467
1145 2 12.3733 12.4367 21.4349
1637 1 12.4564 14.4449 19.8455
2136 2 14.1411 12.3758 19.7129
835 2 17.7528 14.4611 21.4424
2321 1 17.9125 12.6999 19.7657
3144 1 16.0923 12.4566 21.4275
3638 3 15.9859 14.2363 19.5401
690 3 0.103327 17.6952 21.5323
73 1 0.0100658 16.0544 19.7541
1147 3 2.04186 16.0596 21.2887
3751 3 1.9192 17.6505 19.5888
695 3 7.49625 17.8553 21.6064
74 1 7.42222 16.3814 19.6933
1502 1 5.50272 17.8174 19.8742
2137 3 3.80692 16.1831 19.6285
2754 1 3.49204 17.9362 21.7038
3146 2 5.4897 16.1065 21.5129
1149 2 9.22223 16.1433 21.6132
2138 1 10.5256 15.9697 19.7803
2757 3 10.9098 17.9446 21.4517
3753 1 9.19194 17.875 19.7156
698 3 14.3509 17.8555 21.419
75 1 14.2493 15.9786 19.4244
1504 2 12.4713 17.6984 19.6637
3148 3 12.3334 16.1141 21.4565
941 1 17.7118 18.0309 21.3297
323 2 17.6938 16.1225 19.755
1151 2 16.0582 16.2295 21.3851
3755 1 16.005 18.1066 19.4448
1638 2 1.68618 -0.0792073 23.3291
2139 3 0.176318 1.75073 23.0898
2651 3 0.00449412 -0.00239768 25.1041
3150 1 1.65576 1.61051 25.0509
526 3 7.06582 0.000742612 25.0127
77 1 5.41467 2.04822 24.7858
76 2 3.65091 1.7282 23.1653
2140 3 7.29205 1.95318 23.3995
3640 3 3.58021 0.0180003 24.9723
3639 3 5.64498 0.0993578 23.3548
78 2 10.623 1.74514 23.2685
1152 1 9.03984 1.72996 25.1202
1640 2 10.7124 -0.266859 24.8852
1639 1 8.98892 -0.237929 23.2541
2142 1 14.3898 1.82511 23.1423
2141 2 12.2808 1.71803 24.7803
2652 1 14.1843 -0.332377 25.1606
3641 3 12.6917 0.0565824 23.2534
1641 3 15.9986 0.0324814 23.2015
2326 3 17.8081 1.71214 23.3895
2526 2 18.0745 -0.0639641 25.1478
3151 2 15.8514 1.60961 24.9016
528 1 -0.211113 6.99722 24.7341
80 2 1.7737 5.38632 24.8832
79 3 0.138951 5.28693 23.2047
1645 1 1.8278 7.16517 23.1035
3643 1 0.139149 3.41987 25.0156
3642 2 1.67965 3.37491 23.138
527 3 3.73453 3.68076 24.7332
81 1 7.27681 5.35888 23.3061
1153 2 5.38747 5.47485 24.8455
1648 1 3.65 7.39101 24.8434
1643 3 7.18575 3.72696 25.1118
1642 2 5.44722 3.69761 23.32
2143 3 3.50896 5.43986 23.122
2655 2 7.29109 7.22144 25.2212
3648 2 5.40852 7.3393 23.2297
1649 2 8.80905 7.22631 23.2324
2145 2 8.98106 5.46537 24.9335
2144 1 10.8072 5.40083 23.3586
2653 2 10.6959 3.48182 25.055
3650 1 10.6777 7.12598 25.0933
3644 2 8.95487 3.57212 23.3295
530 1 14.3061 7.17611 24.994
82 2 14.2556 5.49162 23.1362
1644 2 12.1775 3.5317 23.2022
3152 2 12.5259 5.28773 24.8381
3652 2 12.477 7.2414 23.3707
3646 3 14.2144 3.57836 24.774
841 3 17.5566 7.24471 24.9435
329 3 17.8037 5.38483 23.1552
83 2 16.0566 5.22052 24.9931
1651 1 16.0219 7.35491 23.227
3893 1 17.949 3.34621 25.1796
3645 1 16.1418 3.55576 23.3467
1154 1 1.63912 8.76197 24.8211
1646 3 0.165137 10.6934 24.9799
2146 1 -0.303796 9.06078 23.1966
3647 2 1.88333 10.766 23.2655
84 1 3.52625 8.99842 23.2309
1647 2 5.32731 10.4958 23.2176
2148 1 7.22553 8.83647 23.0319
2147 1 5.4327 9.30023 25.1174
2654 2 3.53762 10.4512 25.0304
3651 2 7.21487 10.8252 24.8653
529 1 10.8682 10.7419 25.2854
85 1 10.591 8.90762 23.4407
3153 1 8.98413 8.72171 24.9328
3649 3 8.83413 10.6204 23.2582
86 2 12.4682 8.95041 24.9639
1652 1 14.3792 10.6669 25.185
1650 1 12.4092 10.9329 23.2826
2149 3 14.3469 9.05725 23.2099
1155 1 15.9712 9.01484 25.0065
1835 1 17.9647 10.737 25.0384
2333 3 17.9588 9.16267 23.1885
3653 1 16.1265 10.7644 23.0621
87 3 -0.0212295 12.6834 23.1164
1653 2 1.78853 14.4991 23.2207
2150 1 1.75906 12.4292 24.6619
2656 3 0.0201738 14.3959 25.1889
531 1 7.12924 14.4141 25.2217
88 2 7.06798 12.8009 23.37
2151 2 3.69106 12.5329 22.9895
3154 2 5.08583 12.5079 24.8882
3655 1 3.58059 14.3354 25.1415
3654 2 5.35005 14.4083 23.1824
89 2 9.13734 12.6201 25.2634
1655 1 10.8003 14.5149 25.1786
1654 2 8.85111 14.1423 23.167
2152 1 10.5925 12.5119 23.3629
90 2 14.3261 12.439 22.9712
1156 3 12.4379 12.6071 25.186
2657 2 14.3943 14.2176 24.9275
3656 1 12.8822 14.2818 23.1086
337 2 18.0047 12.5927 23.4251
1656 1 16.2245 14.3743 23.2173
2153 1 16.1928 12.5505 24.962
2531 1 17.9082 14.2614 25.1177
1513 1 1.76367 17.8291 23.2391
2154 1 0.0992331 16.072 23.231
2776 3 0.0223601 17.8318 24.9958
3155 2 1.7161 16.1114 24.9489
715 2 7.09505 18.0843 25.0655
92 1 5.74549 15.9925 24.9277
91 2 3.86334 16.1101 23.401
2155 1 7.45548 16.2009 23.3219
3767 1 3.47531 17.9594 24.9633
3766 2 5.5105 17.7209 23.1716
93 2 10.684 16.0123 23.4892
1157 3 8.85761 16.1404 25.2495
1515 2 9.07502 17.7048 23.4814
1516 1 11.0192 18.0422 25.1181
2157 3 14.3332 16.245 23.3789
2156 2 12.476 16.0398 25.0046
2778 2 14.2746 17.9683 25.0063
3769 1 12.6323 17.9323 23.2192
1519 1 16.0994 17.8773 23.3225
2341 2 17.9229 16.2823 23.2564
2963 1 17.8766 17.7876 25.1119
3156 2 16.3015 16.1051 25.1077
532 3 0.120563 -0.0851433 28.4423
94 2 0.0855908 1.89623 26.7416
1158 3 1.99273 1.6869 28.3506
3657 3 2.02969 -0.0763857 26.7513
533 3 5.32416 -0.0455035 26.7933
534 2 7.24278 -0.124194 28.803
1159 1 3.77034 1.79965 26.7202
2159 2 6.98013 1.70859 26.7448
2658 2 3.67082 0.10852 28.6331
3157 3 5.33247 1.87611 28.5927
1160 3 9.13573 1.78075 28.7143
1658 1 9.03363 0.134605 26.7805
2659 2 10.5955 -0.00668663 28.8964
3158 3 10.7821 1.65241 26.6107
535 1 14.1282 -0.112382 28.6061
97 3 14.2647 1.59442 26.6075
2660 2 12.3637 -0.0448865 26.795
3159 2 12.2264 1.76278 28.7518
845 1 18.1363 -0.0473067 28.8694
344 2 17.9328 1.64527 26.851
1161 3 15.9419 1.64003 28.5612
3660 3 16.054 -0.200902 26.7802
536 2 1.95569 3.47211 26.5103
540 1 0.0730404 7.00104 28.5245
1162 2 -0.0896364 5.33162 26.6172
1664 2 1.79161 7.2642 26.7845
2661 2 0.100311 3.53874 28.3002
3160 2 1.535 5.35467 28.3752
537 1 3.46634 3.91724 28.5805
543 1 7.182 7.46927 28.59
1163 2 5.3003 5.58458 28.5923
1661 2 5.27469 3.86322 26.7104
2162 1 3.39531 5.46472 26.7084
2668 1 3.54756 7.08592 28.3469
2667 1 5.26207 7.11613 26.5597
2663 1 7.25716 3.50966 28.4394
3161 1 7.18663 5.60124 26.6882
538 1 10.6632 3.66129 28.5847
99 1 10.7415 5.458 26.5621
2669 2 10.8143 7.11555 28.3362
2662 2 8.76324 3.47948 26.5853
3162 3 8.93957 5.29752 28.3217
3668 2 9.04184 7.2021 26.7712
545 2 12.5736 7.02497 26.806
546 1 14.2496 7.01374 28.6805
1165 2 14.3018 5.18851 26.9105
1164 3 12.546 5.2793 28.5277
2664 1 14.1693 3.2582 28.3666
3663 2 12.6492 3.43616 26.7261
853 2 17.865 6.89648 28.5976
539 2 16.1672 3.46357 26.6025
1349 2 17.8921 5.36096 26.8945
1670 2 15.9997 6.93167 26.867
2536 1 17.9779 3.32565 28.4363
3163 2 16.0446 5.09415 28.499
1166 2 2.0034 9.15693 28.7266
2165 2 -0.437682 8.79758 26.6156
2666 3 0.0347537 10.5486 28.6293