ITEM: TIMESTEP
5000
ITEM: NUMBER OF ATOMS
4000
ITEM: BOX BOUNDS pp pp pp
5.7208687118688317e-02 3.5676851312881539e+01
5.7208687118688317e-02 3.5676851312881539e+01
5.7208687118688317e-02 3.5676851312881539e+01
ITEM: ATOMS id type x y z
563 2 -0.00148718 0.135984 0.0889217
1064 3 1.77055 1.74117 -0.149908
1563 3 1.97176 0.119426 1.94514
2064 3 0.0995953 1.86425 1.85412
1 2 3.64008 1.84709 1.84179
565 2 7.20157 0.258127 -0.447927
2065 2 7.24787 1.84418 1.79576
2565 3 3.51175 0.137074 -0.0315218
3064 2 5.39701 1.77545 -0.163726
3564 1 5.46472 0.0162918 1.84592
2 2 10.8309 1.54433 1.94149
1066 2 8.99907 1.78818 0.0284988
1564 2 8.70416 0.0893238 1.54054
2566 2 10.7304 0.114327 -0.0104624
567 1 14.2114 0.180997 -0.0363203
2066 3 14.2582 2.03669 1.8058
3066 2 12.4824 1.76486 -0.0363726
3565 3 12.6291 0.179459 1.74712
751 2 17.7747 0.237251 -0.114197
1068 2 15.6683 1.70206 0.0390283
1565 2 15.9384 -0.059025 1.76183
2001 2 17.7989 1.6387 1.69658
3 1 0.20315 5.23575 1.85383
573 2 0.106201 6.98377 0.190103
1568 1 1.85465 7.01597 2.17755
2569 3 0.128156 3.70494 -0.0655386
3068 2 1.84392 5.43054 -0.0468227
3566 1 1.82709 3.50407 1.70358
4 3 7.30287 5.26184 1.89006
569 2 3.61114 3.52475 0.00495616
577 2 7.19584 7.23597 0.0217525
1070 3 5.41946 5.30044 -0.00680101
1566 1 5.61904 3.4405 1.79901
2067 1 3.52015 4.99059 1.803
2576 3 3.70321 7.09665 0.0070672
2571 2 7.13824 3.44233 0.0462253
3570 1 5.3234 6.99569 1.93865
570 3 10.8777 3.57499 0.0666952
1570 3 9.09729 7.15527 2.06378
2068 2 10.9048 5.52461 1.97949
2578 2 10.8159 7.23718 -0.0880099
3070 3 9.00631 5.62648 0.0170442
3567 3 9.09463 3.59804 1.55482
5 3 14.2722 5.41971 1.85019
581 2 14.3839 7.1802 0.07356
1072 2 12.6192 5.69181 0.301205
1567 1 12.6508 3.69722 2.02142
2573 1 14.1533 3.71794 -0.207671
3572 2 12.5779 7.18946 1.90415
253 3 17.8383 5.28481 2.043
761 3 17.8228 7.26666 0.0937549
1572 1 16.0757 7.22759 2.05686
2819 2 17.8653 3.36417 0.101228
3072 2 16.1702 5.25816 0.100365
3568 3 16.0313 3.81323 1.85342
1074 3 1.82448 8.87836 0.0409281
2069 3 0.213674 9.12164 1.78327
2574 3 0.192895 10.5506 -0.00578816
3569 1 1.897 10.8885 1.91271
6 3 3.4354 8.82294 1.7914
575 2 3.64634 10.729 0.220407
1569 1 5.59621 10.4515 2.10825
2070 1 7.12655 8.79223 1.75816
2579 1 7.24742 10.6208 0.308585
3074 3 5.36803 8.79979 0.326863
7 1 10.6714 8.94488 1.75389
578 3 10.7535 10.8272 -0.0733222
1076 3 9.20391 8.90782 0.0373298
3571 3 9.02248 10.6312 1.81804
1571 2 12.4886 10.8335 1.84261
2071 3 14.4153 8.97599 1.82704
2582 2 14.2314 10.864 0.105507
3076 1 12.558 9.05451 0.0540652
1078 1 16.1343 8.83995 -0.104841
2006 2 17.6197 8.94131 1.90949
2825 3 17.7906 10.8669 0.0785694
3573 3 16.0911 10.8746 1.88318
8 3 0.205743 12.4695 1.74089
583 2 0.0886161 14.2606 -0.192474
1573 2 1.74966 14.1401 1.65167
3078 1 1.94875 12.3692 0.0960494
9 2 7.28599 12.4125 1.77683
585 2 6.94845 14.1933 -0.213112
1080 1 5.46759 12.4598 -0.171324
2072 2 3.87129 12.6335 1.75311
2585 3 3.69248 14.2519 -0.188746
3574 1 5.44195 14.1911 1.79913
1574 3 8.78825 14.3548 1.79581
2073 1 10.8236 12.3342 1.96706
2586 3 10.7412 14.317 0.209194
3080 2 8.90636 12.585 -0.0104853
10 1 14.3331 12.4257 1.93721
587 2 14.1688 14.3504 0.200558
1082 2 12.3345 12.5319 0.121006
3575 3 12.2761 14.1985 1.84204
258 1 17.6749 12.6214 1.79843
771 3 17.551 14.1349 0.0231131
1575 3 15.9886 14.2603 1.94745
3082 1 16.0265 12.5424 0.182082
626 2 0.126696 17.8284 -0.0176191
1084 1 1.76055 15.9567 0.23461
1688 1 1.94653 17.8282 1.76438
2074 2 0.194211 16.2226 1.6345
11 2 3.50802 15.9994 1.83351
630 2 7.14067 17.8005 -0.0339901
2075 3 7.23219 15.9431 1.83597
2691 3 3.47084 17.7185 0.0496663
3084 1 5.45263 16.0031 0.0939478
3690 1 5.29555 17.7693 1.72887
12 3 10.4581 16.1498 1.7673
1086 2 8.89515 16.1474 -0.00824355
1690 1 8.79308 17.996 1.80817
2693 3 10.6309 17.7694 0.0055831
634 2 14.5086 17.715 0.186037
2076 1 14.1722 15.9391 1.99669
3086 1 12.5708 15.9763 0.368014
3692 1 12.4004 17.8157 1.77349
876 1 17.9671 17.7657 0.0681327
1088 1 15.8469 15.8712 0.0840379
1692 1 16.2089 17.9179 2.00143
2011 2 17.8147 15.8873 1.97556
13 2 0.101631 1.76987 5.3272
588 3 -0.0416843 0.246685 7.27038
1089 1 2.00264 1.91473 7.08435
2564 1 0.0855341 0.0394676 3.68422
3063 2 1.7352 1.7255 3.6054
3576 2 1.76373 -0.111948 5.46628
14 3 7.19336 1.92123 5.21111
564 1 3.63703 0.144209 3.62629
1065 2 5.48266 1.89529 3.72261
1577 3 3.51773 0.0303612 7.1933
1576 2 5.51004 0.0823873 5.4302
2078 1 5.54112 1.91554 7.35137
2077 2 3.60569 1.64825 5.45869
2589 3 7.21611 0.047685 7.14517
2567 2 7.30162 -0.0952463 3.46126
566 2 10.8885 0.155219 3.7127
2079 3 10.6411 1.88155 5.48625
3065 1 8.8312 1.80914 3.55047
3088 2 8.89377 1.79844 7.48986
3578 2 10.6563 -0.0203919 7.07521
3577 1 8.85879 0.216019 5.32498
15 3 12.413 1.80897 7.22511
16 3 14.2962 1.67397 5.36772
589 3 14.3262 0.127864 7.0383
1067 2 12.5198 1.94078 3.63827
1578 1 12.4505 0.0489851 5.4226
2568 3 14.2657 0.0239687 3.68384
263 2 17.9514 1.87661 5.34869
776 1 17.841 -0.0234128 7.08497
1090 2 16.1599 1.88909 7.25643
2815 3 18.038 0.130011 3.58568
3067 1 16.1876 1.75679 3.4559
3579 2 16.2314 0.0459477 5.42339
568 2 0.0689189 3.50943 3.77742
1069 2 1.71979 5.24683 3.75849
1580 1 0.182706 3.49435 7.11125
1579 2 1.99912 3.35615 5.35349
2081 1 1.76372 5.23551 6.95875
2080 1 0.0873936 5.26687 5.28724
2591 3 -0.0585266 6.99851 7.11332
2575 1 0.0852237 7.31347 3.60637
3583 2 1.72876 7.09305 5.37202
17 2 3.61328 5.23787 5.20918
571 3 7.16806 3.70816 3.73065
592 3 7.10132 7.34996 7.13259
576 2 3.63637 7.17946 3.55229
1585 3 5.28238 7.22823 5.16273
2082 3 7.24579 5.28205 5.77972
2590 2 3.65381 3.44478 7.19349
2580 3 7.21405 7.05196 3.46438
2570 1 3.77598 3.49974 3.54601
3069 1 5.24029 5.27744 3.41076
3089 2 5.29742 5.4167 7.01101
3586 3 3.58648 7.21555 7.19354
3581 1 7.06087 3.80382 7.29414
3580 3 5.388 3.52332 5.35186
18 3 10.5284 5.30335 5.58619
19 2 9.02146 5.12761 7.21228
590 1 10.6153 3.49975 7.47599
579 3 10.6658 7.16687 3.80353
1071 1 9.15542 5.3703 3.58076
1587 2 10.7858 7.10419 7.20667
1581 3 9.00316 3.44701 5.47224
2572 2 10.5556 3.54963 3.45041
3587 1 8.85457 7.20449 5.23611
572 3 14.3002 3.71949 3.89904
1091 2 12.5643 5.3069 7.35039
1589 2 12.5345 7.03235 5.53424
1583 1 14.3747 3.56717 7.09547
2083 2 14.2732 5.40848 5.55676
2593 1 14.2301 6.8964 6.97956
2583 3 14.1609 7.17125 3.51106
3071 1 12.4916 5.46991 3.77641
3582 1 12.4975 3.65651 5.27304
757 3 17.8632 3.58552 3.58073
1073 1 16.2153 5.4377 3.7188
1768 2 17.9121 3.50578 7.18615
1582 2 16.2862 3.46674 5.37928
2084 3 16.3222 5.43139 7.23476
2017 2 17.9747 5.54256 5.51753
2841 2 18.1407 7.10461 7.23432
2826 1 18.0498 7.23845 3.74415
3589 2 15.9212 7.33177 5.14461
20 3 0.0263552 9.06097 5.43562
574 1 0.217313 10.6577 3.60514
1584 3 1.76759 10.6377 5.37596
3073 2 1.81734 9.02972 3.64658
3090 3 1.79191 8.87854 7.22569
3584 1 0.106505 10.7804 7.25766
21 2 5.32891 8.94313 7.2695
22 1 7.00151 8.9576 5.22863
591 3 3.57562 10.5989 7.31972
580 1 7.20556 10.6466 3.62613
1075 2 5.05756 8.89452 3.44418
1588 2 7.18541 10.6306 7.25973
2085 1 3.50101 9.00716 5.50035
2577 3 3.47937 10.7445 3.70565
3585 3 5.39109 10.6812 5.45693
1092 2 9.01519 8.84516 7.14476
1586 1 9.00041 10.6498 5.30384
2086 3 10.8133 8.95535 5.37461
2592 2 10.6137 10.5852 7.36467
2581 2 10.6572 10.5428 3.49132
3075 2 8.90099 8.96347 3.57602
23 1 14.1324 8.93216 5.40306
582 1 14.318 10.7835 3.66338
1077 3 12.6345 8.85436 3.49346
2087 3 12.4604 8.95412 7.08366
3590 1 14.0896 10.6616 7.13512
3588 1 12.4358 10.6399 5.28925
270 1 17.7011 8.86789 5.45344
764 1 17.8239 10.8256 3.4969
1590 3 16.0136 10.7782 5.38661
3091 1 16.1119 8.7343 7.23791
3077 3 16.0751 9.15935 3.683
3835 1 17.9308 10.7392 7.37255
24 1 1.80618 12.5623 7.17281
593 2 0.119282 14.384 7.33041
1079 3 1.90477 12.4787 3.83796
2088 1 -0.0240664 12.6128 5.37298
2584 1 -0.0992212 14.6403 3.41267
3591 3 1.55015 14.4234 5.41812
25 3 3.55191 12.5612 5.50004
584 1 3.55696 14.3438 3.48885
1093 1 5.43136 12.3222 7.15116
1592 3 3.60859 14.2907 7.27803
1591 3 5.39765 14.2369 5.17915
2089 3 7.24209 12.258 5.27745
2594 3 7.19829 14.2583 6.76846
2587 1 7.22545 14.4457 3.67094
3079 3 5.44469 12.3417 3.63115
26 2 10.5736 12.3886 5.44181
586 1 10.7093 14.4241 3.66449
1081 2 9.06851 12.5213 3.56471
2090 1 8.7504 12.5176 7.1595
3593 1 10.6679 14.3123 7.25006
3592 3 8.99173 14.2206 5.28486
594 1 14.185 14.4082 7.12998
1593 2 12.2308 14.3505 5.5184
2091 1 14.1264 12.4864 5.43125
2588 2 14.1325 14.2854 3.6754
3092 3 12.3458 12.5282 7.17614
3081 3 12.3933 12.4255 3.76006
27 3 16.119 12.6532 7.22379
781 1 18.1223 14.3956 7.19516
1083 3 16.1315 12.5623 3.79223
2025 3 17.9353 12.5497 5.50669
2835 3 17.6764 14.5944 3.94846
3594 1 15.9609 14.3971 5.52273
28 1 0.113332 16.3396 5.48076
651 2 0.0275561 17.9404 7.21658
1094 2 1.8479 16.095 7.25618
2690 3 -0.0678284 17.9288 3.63015
3083 2 1.77429 16.1632 3.66428
3701 2 1.89099 17.8729 5.39891
29 1 7.25003 16.1213 5.41461
629 2 3.52344 17.7961 3.53574
1085 3 5.40218 16.2264 3.60429
1704 3 3.53381 17.879 7.20613
1703 1 5.35214 17.9083 5.38671
2093 3 5.53735 15.9934 7.05315
2092 1 3.68714 16.0856 5.40823
2715 2 7.29738 17.945 6.9863
2695 2 7.16158 17.8595 3.79529
632 3 10.7487 17.8801 3.54029
2094 1 10.7575 16.1226 5.45642
3093 1 8.76852 16.0341 7.0246
3085 2 8.95467 16.0508 3.76285
3704 2 10.8106 17.8488 7.28616
3703 2 9.03331 17.9486 5.35923
30 2 12.5214 16.2852 7.2032
31 1 14.0617 16.1136 5.31081
653 1 14.1834 17.8528 7.32793
1087 2 12.436 16.1012 3.5259
1706 3 12.4277 17.8993 5.51833
2698 3 14.3612 17.9963 3.59827
278 3 17.7649 16.0724 5.50919
901 1 17.7604 17.8808 7.08411
1095 1 16.1415 16.0761 7.10925
2878 1 18.0536 17.7919 3.40857
3087 2 15.868 15.9073 3.54989
3707 2 16.0427 17.7586 5.17534
1594 2 1.7676 0.143855 8.79231
2095 2 -0.0436578 1.92943 8.9037
2595 2 0.114969 0.167641 10.5734
3094 1 1.63683 1.83679 10.695
33 3 7.14935 1.58058 8.87234
595 3 3.45655 0.0665414 10.6881
1096 1 5.38258 1.78068 10.7306
2597 2 7.09969 -0.109241 10.7982
2596 1 5.3555 0.11477 8.92644
3095 2 3.52371 1.92934 8.96208
596 2 10.687 0.0665586 10.8301
1097 2 10.7693 1.69294 9.05215
3096 1 8.98047 1.69257 10.7471
3596 1 9.12439 -0.00874983 8.99794
597 1 12.3285 -0.117198 9.03616
1098 3 12.5588 1.8777 10.9805
2098 2 14.1815 1.90652 8.89488
2598 3 14.329 -0.0143236 10.6477
1597 3 16.1417 0.0117999 8.93879
2032 2 17.685 1.89431 9.02795
2845 1 17.8549 -0.162076 10.747
3097 2 16.1655 1.52295 10.8097
598 2 0.160362 3.6145 10.6784
1099 2 2.11911 5.44039 10.744
2603 2 0.109169 7.08015 10.9175
2599 3 1.73838 3.44316 8.82883
3098 3 0.220299 5.4742 9.09106
3602 2 1.84703 7.16173 8.90028
36 1 3.39568 5.32572 9.10867
605 3 3.70546 7.1366 10.6146
604 1 5.40089 7.10956 8.90438
600 3 7.05291 3.5814 10.6398
1100 3 7.15 5.34712 8.79968
2606 3 7.31977 7.0903 10.7732
2600 2 3.68266 3.47177 10.6254
3099 2 5.35976 5.40968 10.5249
3599 2 5.35643 3.68329 8.92471
606 3 10.5935 7.23737 10.7909
599 2 8.95231 3.63557 9.15732
1101 3 8.98674 5.40051 10.8276
1605 1 8.99113 7.1065 8.83924
2100 2 10.7466 5.49518 8.86452
2601 1 10.9407 3.78841 10.7896
601 2 14.3415 3.47194 10.6929
1600 1 12.5649 3.55753 9.0154
2609 3 14.3271 7.40032 10.6571
2608 1 12.6192 7.05245 9.08468
3101 2 14.4033 5.31332 9.13538
3100 3 12.6464 5.48326 10.8294
786 1 17.6758 3.7052 10.9144
1102 2 16.1602 5.30211 10.8449
2853 3 17.871 7.02919 10.7172
2602 2 16.2434 3.62551 9.02594
3348 1 17.6772 5.22955 9.02076
3608 3 16.0861 7.15726 8.9753
39 3 0.110902 8.97212 8.79922
603 3 -0.194391 10.6447 10.682
602 3 1.77735 10.5613 9.13964
3102 1 1.82521 8.79746 10.6559
607 1 7.04845 10.6682 10.8233
1104 3 5.52965 8.89648 10.6387
1103 2 3.66082 8.92494 9.14852
1603 1 5.36145 10.6235 8.9618
2104 2 7.24981 8.85628 9.03447
2604 2 3.45876 10.8416 10.6422
2607 3 10.7307 10.6631 10.54
2605 3 8.69062 10.861 8.99922
3104 3 8.99026 8.96332 10.7679
3103 2 10.7207 8.95285 8.86572
42 1 14.2705 8.95315 8.99037
609 2 14.0824 10.81 10.5721
1105 3 12.4513 8.9626 10.6791
3606 1 12.6681 10.7994 8.85286
289 3 17.8858 8.84824 9.05232
792 3 17.8975 10.6492 10.6378
608 2 15.9743 10.6681 8.93364
3105 1 16.1571 8.94981 10.6145
1107 2 1.7495 12.4334 10.6387
1106 2 -0.0355813 12.6554 8.95968
1609 1 1.8269 14.4278 9.00341
2610 1 -0.14261 14.3208 10.7742
610 3 3.57499 14.2542 10.4563
2107 2 3.65335 12.4446 8.80466
2612 2 7.15161 14.2527 10.617
2611 1 5.46007 14.2539 8.82583
3107 1 6.98473 12.5272 8.67746
3106 3 5.47973 12.4169 10.7399
45 2 10.4715 12.3394 9.00543
611 1 10.5776 14.321 10.5574
1108 1 8.77945 12.4929 10.649
3611 2 8.85778 14.3041 8.92942
612 2 12.4333 14.3924 8.88135
1109 1 14.2679 12.7062 8.93694
2613 2 14.4624 14.2144 10.7223
3108 1 12.5158 12.8573 10.6813
1293 3 17.964 12.6146 8.83246
1110 3 16.0444 12.4487 10.6685
1612 1 16.2773 14.5126 8.96986
2860 3 17.9093 14.3977 10.815
1719 3 1.91453 17.8797 8.99539
2110 3 -0.134566 16.1078 9.08718
2721 3 0.130859 17.7182 10.6209
3109 2 1.8898 16.0399 10.6167
48 1 7.12995 16.1547 8.85789
659 2 3.64217 17.63 10.7034
1111 3 5.26889 15.9373 10.8828
2724 2 7.25987 17.7708 10.8843
2722 1 5.61892 17.6816 8.96731
3110 3 3.63448 15.9978 8.79957
661 1 10.7265 17.6223 10.9727
1112 2 10.4158 16.0983 8.84386
3111 3 8.93851 16.1293 10.8569
3723 1 9.18694 17.9241 8.81866
663 1 12.4077 17.8465 9.03067
1113 2 12.2875 16.0267 10.6052
2113 1 14.3623 15.9685 9.12127
2727 2 14.2887 17.7574 10.7227
1725 1 16.036 18.0533 8.90334
2047 3 17.8616 16.369 9.0804
2908 2 18.0853 17.9331 10.8392
3112 1 16.1346 16.1405 10.9454
32 2 -0.00800257 1.77107 12.4305
613 1 0.0526167 0.276036 14.2052
1114 2 1.94485 2.03675 14.3703
3595 3 1.89237 0.0919713 12.5744
34 3 7.19892 1.78244 12.5016
614 2 7.08931 -0.0925402 14.3723
1595 2 5.49886 0.0423317 12.6588
2096 2 3.707 1.7095 12.3518
2614 1 3.6541 0.123676 14.3346
3113 1 5.28048 1.83111 14.1016
1115 3 8.91289 1.80837 14.3258
2097 1 10.8896 1.88801 12.7314
2615 2 10.8064 -0.0331913 14.4601
3597 3 8.82364 -0.0460809 12.4247
35 2 14.3716 1.81167 12.5203
615 2 14.0812 0.288811 14.4976
1596 2 12.5043 -0.0662859 12.6738
3114 3 12.5191 2.02118 14.635
282 3 17.8065 1.88307 12.5629
801 3 17.883 0.0749531 14.2912
1116 3 15.9765 1.84094 14.253
3598 2 16.1611 -0.165485 12.5036
618 1 0.084572 7.25655 14.1922
1598 2 1.83515 3.53878 12.3999
2099 2 0.0251419 5.26293 12.4352
2616 2 -0.169889 3.40778 14.2501
3115 3 1.70923 5.46952 14.2376
3603 2 1.88405 7.14862 12.5571
37 1 3.54105 5.32193 12.2455
620 1 7.02333 7.17195 14.3767
616 2 3.66995 3.79696 14.1441
1117 2 5.26987 5.49609 14.1675
1604 3 5.3592 7.36162 12.3663
2101 2 7.02206 5.65864 12.7241
2620 1 3.63472 7.05482 14.2116
2617 1 7.12066 3.76355 14.317
3600 3 5.47883 3.69457 12.5079
38 3 11.0444 5.37948 12.3359
617 1 10.6825 3.89476 14.2909
1599 3 8.99373 3.69299 12.6611
2621 3 10.6491 7.22467 14.3023
3116 2 8.86143 5.48994 14.3251
3605 1 8.8127 7.36863 12.7418
622 1 14.416 7.0505 14.3195
1118 1 12.5278 5.54809 14.3699
1607 1 12.5368 7.27685 12.577
2102 1 14.4194 5.48853 12.388
2618 2 14.3084 3.75679 14.2794
3601 2 12.5449 3.55164 12.681
806 1 17.9567 7.31759 14.1322
1601 1 16.1555 3.84564 12.8357
2036 3 18.0193 5.36692 12.5595
2866 3 17.9029 3.76541 14.3618
3117 3 16.0911 5.52436 14.462
3609 2 16.1325 7.27149 12.6937
40 2 -0.00874429 8.90849 12.714
1119 3 2.00184 8.96899 14.3359
1602 2 1.9442 10.7873 12.4686
2619 3 0.0268268 10.6763 14.3143
41 1 7.21313 8.84729 12.4723
619 3 3.68918 10.749 14.0198
2103 1 3.60288 8.8879 12.3552
2622 1 7.15892 10.7 14.1177
3118 3 5.41454 8.98491 14.3176
3604 1 5.53012 10.7979 12.4286
621 1 10.7243 10.8254 14.4241
1120 2 8.86461 9.17921 14.3447
1606 1 9.09449 10.7164 12.6282
2105 2 10.7255 8.8011 12.5845
43 1 14.2323 9.0015 12.4488
2623 1 14.2265 10.8506 14.2789
3119 2 12.5271 9.00473 14.1682
3607 3 12.4622 10.8546 12.4162
290 2 17.8122 8.8534 12.4737
1121 1 15.9231 9.06958 14.1923
1608 3 16.0832 10.5686 12.2369
2870 2 17.8511 10.7558 14.3892
623 1 -0.149323 14.2608 14.1246
2106 2 0.0658279 12.4362 12.3125
3120 2 1.80362 12.693 13.9843
3610 2 1.69585 14.2761 12.3712
44 2 3.4501 12.6275 12.3246
624 3 7.17071 14.1376 14.2655
1122 3 5.29981 12.5652 14.394
1610 3 5.35808 14.1795 12.5149
2108 2 7.15181 12.5829 12.3094
2624 2 3.61866 14.266 14.2039
46 3 10.7607 12.5337 12.3636
2625 1 10.7132 14.1304 14.2753
3121 2 8.97079 12.5627 14.1769
3612 3 8.96498 14.2271 12.4521
625 1 14.3781 14.3589 14.4366
1123 3 12.2926 12.5724 14.2306
1611 3 12.6762 14.4573 12.5073
2109 2 14.3899 12.6323 12.6815
811 2 17.8547 14.2376 14.2977
2044 1 18.0626 12.5955 12.5514
3122 3 16.0604 12.5195 14.2449
3613 3 16.193 14.1665 12.4027
47 2 0.15073 16.0946 12.3818
676 3 0.128643 17.7591 14.39
1124 3 1.68449 15.9184 14.2287
3720 1 1.54661 17.8247 12.5568
49 1 7.09371 16.0265 12.6781
678 1 7.1426 17.7376 14.4577
1721 1 5.59749 17.7298 12.3757
2111 1 3.8017 15.8387 12.5491
2740 2 3.60963 17.7179 13.9611
3123 3 5.50488 15.957 14.4147
1125 3 9.03768 15.9499 14.4271
2112 3 10.8305 15.9773 12.5092
2741 2 10.6635 17.7429 14.2788
3724 1 8.86189 17.7033 12.6421
50 2 14.397 15.9383 12.5355
680 1 14.3132 17.7074 14.2496
1724 3 12.4914 17.6469 12.4899
3124 2 12.6291 16.0126 14.2281
297 3 17.7158 16.0905 12.6631
926 2 17.8702 17.927 14.4773
1126 3 15.9695 16.1584 14.4136
3726 1 16.1189 17.7767 12.5135
1613 2 1.91743 -0.101993 16.1119
2114 2 0.21417 1.64334 16.2524
2626 3 -0.0314208 0.055796 17.8772
3125 1 1.84025 1.72091 17.9161
51 2 3.54937 1.99296 16.1315
502 1 3.58026 0.0236609 17.8562
1128 1 5.56983 1.82857 17.7971
2115 2 7.05296 1.7698 15.8917
2628 2 7.46443 0.0483233 17.8784
3614 1 5.36234 -0.0841772 16.0419
52 3 10.9714 1.86442 16.1289
503 1 10.7176 0.154377 17.8161
1614 2 8.94134 0.184692 16.0016
3127 1 8.95907 1.77816 17.811
1130 1 12.3638 2.20273 18.1845
2116 1 14.1833 2.07012 16.2881
2630 1 14.2457 0.187733 17.9224
3615 2 12.6754 0.0822402 16.3246
1615 1 15.9067 -0.134938 15.7954
2051 3 17.7754 1.81595 16.0994
2501 3 17.9336 0.152058 17.6856
3129 2 16.1494 1.45609 17.7347
53 1 -0.0458167 5.4481 15.9504
506 2 -0.0361746 3.7196 17.8829
1132 3 1.84515 5.45324 17.9963
1618 1 1.59999 7.06349 16.1435
2636 3 0.0178242 7.16543 17.9093
3616 3 1.85252 3.74124 16.1239
54 1 7.14096 5.32376 16.0061
508 3 7.09536 3.66709 17.7414
513 3 3.67211 7.13108 17.9136
1616 3 5.34761 3.55975 16.1169
2117 1 3.59989 5.38287 16.0158
2640 2 7.24793 7.1506 17.6188
2632 3 3.54123 3.8405 18.0885
3131 2 5.42681 5.3535 17.7985
3620 2 5.45428 7.0567 16.2008
515 1 10.8792 7.39856 17.6452
1134 3 8.904 5.48177 17.6743
1620 1 8.85072 7.21097 15.9381
2118 2 10.7416 5.63727 15.9693
2633 1 10.7822 3.86608 17.8337
3617 3 8.89003 3.58051 16.0946
55 3 14.3469 5.43457 16.0327
510 2 14.3394 3.82712 18.0235
1617 2 12.4933 3.81789 16.3566
2644 2 14.2444 7.2268 17.9743
3133 1 12.4891 5.55144 17.784
3622 2 12.578 7.35293 15.8997
303 1 18.0248 5.37295 16.1554
819 1 17.7122 3.58494 18.0754
1136 3 16.0218 5.38215 17.9841
1622 3 15.9674 7.2434 16.1644
2511 2 17.8906 7.05348 17.8677
3618 3 16.1061 3.66617 16.1431
511 1 -0.147432 10.6583 17.863
2119 2 -0.0138783 8.77225 16.0663
3135 1 1.64227 8.86882 17.9435
3619 3 1.59784 10.7699 16.0932
56 2 3.71453 8.78802 16.0559
516 2 6.93533 10.8506 17.7564
1138 1 5.27024 8.96113 17.894
1619 1 5.29723 10.7455 16.0637
2120 1 7.11256 9.06698 16.1797
2638 3 3.66877 10.5484 17.8726
57 2 10.7773 9.0347 15.9877
2641 1 10.5799 10.6581 17.8618
3137 2 8.86471 9.02608 17.702
3621 1 8.7255 11.0412 16.0735
519 1 14.2353 10.8693 17.9816
1140 1 12.5078 8.99389 17.8658
1621 2 12.663 10.6636 16.0973
2121 2 14.337 8.80585 15.8789
825 2 17.7108 10.7395 17.7556
2056 2 17.7998 9.01624 16.0716
3139 1 16.0934 8.95746 18.0498
3623 3 15.877 10.7419 15.9982
58 2 -0.257646 12.5304 16.153
1142 3 1.79428 12.3934 17.9483
1623 3 1.59261 14.2393 15.9249
2646 2 0.0184725 14.2324 17.6574
59 1 6.92979 12.55 16.0463
522 1 3.42357 14.2602 18.0307
2122 3 3.33933 12.3102 16.0445
2648 1 7.03193 14.1577 18.1177
3141 2 5.10681 12.3213 17.6528
3624 1 5.29707 14.1078 16.2261
523 3 10.9326 14.4209 17.888
1144 3 8.92518 12.4426 17.7898
1624 1 9.04808 14.1862 16.1996
2123 2 10.7569 12.5044 16.1079
60 2 14.19 12.5577 16.0428
2650 1 14.17 14.4051 17.7398
3143 1 12.6489 12.4166 17.9171
3625 1 12.4599 14.3734 15.9607
308 1 17.9615 12.5868 16.1524
1146 1 15.9341 12.6788 17.695
1625 2 16.1758 14.2924 15.9301
2521 3 17.7539 14.2457 17.7523
1738 1 1.83977 17.86 15.8509
2124 3 0.231298 16.0761 16.0124
2751 3 0.299835 17.8495 17.6966
3145 1 1.79142 15.8747 17.7696
61 1 3.56974 15.9311 15.9246
691 2 3.58903 17.6728 17.7674
1148 3 5.4651 15.914 17.726
2125 3 7.07549 15.852 16.1344
2755 1 7.12675 17.5977 17.7758
3740 1 5.20405 17.932 16.1673
62 3 10.725 16.0466 16.1078
693 2 10.7181 17.7457 17.9254
1740 1 8.95525 17.675 16.2928
3147 2 9.02319 15.9685 17.7603
1150 2 12.5896 16.0439 17.7792
2126 2 14.3538 16.0647 15.9431
2759 1 14.3923 17.614 17.7264
3742 3 12.5683 17.9076 16.0939
1742 3 16.1272 17.8459 16.1023
2061 2 17.9337 15.952 16.03
2938 3 17.9641 17.6255 17.6032
3149 1 15.9887 15.9596 17.8083
501 1 -0.0578744 0.0821137 21.3611
63 2 0.178871 1.88047 19.5139
1127 2 1.86524 1.74038 21.3212
3626 3 2.05391 0.0170969 19.6379
504 1 6.86492 0.188598 21.1703
64 2 7.11912 1.80219 19.6341
1626 1 5.51739 0.0504596 19.3367
2127 3 3.59872 1.91854 19.6796
2627 2 3.49885 -0.0417376 21.62
3126 3 5.30367 1.93257 21.3693
1129 2 8.94512 1.8061 21.6438
2128 3 10.4306 1.90927 19.8131
2629 3 10.8723 0.0700728 21.3783
3627 3 8.88936 -0.0391417 19.6182
505 1 14.5306 0.0329871 21.2546
65 1 14.4586 1.74694 19.8528
1627 3 12.3987 0.270894 19.4506
3128 1 12.4776 1.71357 21.2704
815 2 17.9156 -0.118641 21.4968
313 1 17.955 1.72813 19.6224
1131 1 16.1615 1.90437 21.5966
3628 1 16.3399 -0.1202 19.7015
512 3 0.0536648 7.21172 21.4686
1628 1 1.7007 3.80088 19.8019
2129 1 -0.0907131 5.41403 19.4663
2631 1 0.0307476 3.56578 21.3301
3130 1 1.73679 5.40285 21.472
3631 1 1.78977 7.23989 19.5949
507 1 3.4276 3.67664 21.2834
517 2 7.093 7.34048 21.2673
66 2 3.6171 5.57389 19.7795
1133 1 5.32408 5.55968 21.3903
1632 2 5.50839 7.04106 19.3428
2130 2 7.26981 5.50969 19.5305
2639 1 3.62592 7.26374 21.2069
2634 3 6.96759 3.46356 21.425
3629 1 5.56894 3.66436 19.6581
509 1 10.6906 3.72492 21.5655
67 1 10.6154 5.25187 19.7389
1629 2 8.77168 3.65228 19.7146
2642 1 10.5752 7.04902 21.5216
3132 3 8.84523 5.44197 21.5922
3633 2 9.1367 7.15511 19.4417
520 1 14.4127 7.21321 21.7299
1135 3 12.5571 5.53018 21.5947
1634 1 12.4345 7.08819 19.8219
2131 1 14.3333 5.58137 19.7572
2635 3 14.374 3.47052 21.4402
3630 3 12.5994 3.60389 19.8866
826 2 17.8905 7.16758 21.5925
1630 2 15.8505 3.75165 19.7962
2316 1 17.7454 5.49584 19.7872
2507 3 17.7764 3.53571 21.4581
3134 3 16.0692 5.35434 21.6147
3635 3 16.087 7.28213 19.7448
68 3 -0.0844433 9.02937 19.6655
1137 1 1.72762 9.00183 21.1585
1631 1 1.91102 10.5865 19.6016
2637 2 -0.0087686 10.763 21.5671
514 2 3.616 10.5964 21.4862
69 1 7.22617 8.92302 19.5078
2132 2 3.69506 8.92979 19.7217
2643 2 7.27597 10.653 21.2959
3136 1 5.63266 8.93053 21.3266
3632 1 5.37838 10.6177 19.5453
518 1 10.715 10.6458 21.261
1139 1 9.10462 8.92629 21.423
1633 3 8.95277 10.7089 19.5305
2133 3 10.8022 8.94549 19.6341
70 3 14.2135 8.95156 19.7465
2645 1 14.4276 10.9417 21.5501
3138 2 12.5179 9.1423 21.4906
3634 3 12.5232 10.5589 19.5908
318 1 17.8264 8.86966 19.6266
1141 2 16.2903 9.00028 21.491
1635 2 16.1365 10.7402 19.673
2514 3 17.7113 10.8621 21.3172
521 3 0.0531521 14.491 21.4282
2134 1 0.040807 12.6528 19.5999
3140 1 1.86538 12.3916 21.2636
3636 1 1.8614 14.5844 19.5707
524 1 7.11684 14.3633 21.4812
71 2 3.63081 12.3165 19.7086
1143 1 5.28828 12.6171 21.4301
1636 2 5.32487 14.0987 19.6193
2135 3 7.22212 12.4813 19.5321
2647 2 3.46528 14.2528 21.4577
72 3 10.7547 12.5969 19.601
2649 2 10.6439 14.2811 21.4489
3142 1 8.84822 12.531 21.4323
3637 2 8.92575 14.415 19.6522
525 3 14.4748 14.2204 21.3609
1145 2 12.3575 12.3193 21.4345
1637 1 12.5231 14.3374 19.8452
2136 2 14.3413 12.4616 19.683
835 3 17.7937 14.3576 21.3489
2321 3 17.9345 12.3521 19.3602
3144 2 16.2283 12.5868 21.2319
3638 1 15.9192 14.3011 19.6202
690 3 0.050813 18.1242 21.5234
73 2 0.0676264 15.9064 19.4453
1147 2 1.66221 16.1078 21.3721
3751 1 1.67964 17.9402 19.4359
695 1 7.42502 17.5218 21.3738
74 2 7.08542 15.7114 19.6978
1502 2 5.37823 17.6861 19.584
2137 1 3.75409 16.1192 19.6136
2754 3 3.45514 17.8039 21.3584
3146 2 5.28846 16.1027 21.5715
1149 2 9.02817 15.8809 21.4978
2138 3 10.7664 15.9505 19.5557
2757 3 10.7575 17.8918 21.4357
3753 2 8.77141 17.6026 19.5428
698 2 14.224 17.9848 21.4104
75 1 14.3924 16.0646 19.7653
1504 2 12.5282 17.7559 19.6621
3148 2 12.4884 16.1236 21.3632
941 1 17.8628 17.8471 21.425
323 2 18.1281 16.0148 19.4476
1151 3 16.315 16.1617 21.2377
3755 3 16.2598 17.7745 19.5566
1638 2 1.71369 -0.0104563 23.3502
2139 1 0.107516 1.58977 23.142
2651 3 -0.107725 -0.00620194 25.0233
3150 2 1.95493 1.76069 24.9475
526 1 7.16494 0.122193 24.8448
77 3 5.20938 1.97616 25.0311
76 1 3.32249 1.72983 23.1362
2140 3 7.08514 1.79487 23.2317
3640 3 3.61085 0.113245 25.0652
3639 1 5.3939 0.118628 23.2241
78 1 10.8602 1.74605 23.2872
1152 2 9.03659 1.93362 24.8309
1640 1 10.7142 -0.169798 24.9526
1639 2 9.04939 0.000545161 23.1837
2142 3 14.2331 1.94146 23.2812
2141 2 12.4063 1.92897 24.9421
2652 1 14.2186 -0.0821484 25.0945
3641 2 12.5417 0.016744 23.2248
1641 3 15.966 0.0273877 23.5119
2326 2 17.6763 1.83368 23.1547
2526 2 17.9257 0.138879 24.8124
3151 1 16.2266 1.84838 25.0625
528 1 0.0961306 7.3221 24.8877
80 2 1.89279 5.34831 24.9604
79 1 0.272885 5.28502 23.4847
1645 3 1.93082 7.13731 22.9772
3643 1 0.0139054 3.48737 25.1166
3642 3 1.78104 3.5379 23.2274
527 1 3.47684 3.64992 25.1009
81 2 7.04227 5.42071 23.2672
1153 3 5.27434 5.29396 25.04
1648 3 3.75383 7.13137 24.9193
1643 1 7.09857 3.47335 25.0313
1642 1 5.12797 3.98155 23.0769
2143 1 3.60665 5.43215 23.2437
2655 3 7.07013 7.22747 24.9465
3648 3 5.42231 7.09704 23.1517
1649 2 8.97763 7.28016 23.3997
2145 3 8.98252 5.28015 25.0152
2144 3 10.5792 5.54124 23.2993
2653 1 10.6452 3.71449 25.0717
3650 2 10.7676 7.32101 24.9109
3644 3 8.88387 3.58493 23.3593
530 1 14.4175 7.35089 25.2208
82 3 14.2699 5.59771 23.4592
1644 1 12.3678 3.59979 23.1611
3152 2 12.5728 5.55167 24.9708
3652 1 12.6227 7.41482 23.4483
3646 1 14.2159 3.7166 25.1527
841 1 17.9891 7.26808 24.9038
329 2 17.7884 5.47277 23.3745
83 2 16.0801 5.48971 25.0152
1651 3 16.1931 7.29883 23.1918
3893 2 17.9198 3.6124 24.7746
3645 3 15.9499 3.73411 23.3387
1154 2 1.72461 9.0912 24.8115
1646 1 0.17206 10.7571 24.8245
2146 2 0.231858 8.94322 23.116
3647 2 1.86467 10.7171 23.032
84 3 3.40758 8.9351 23.2159
1647 2 5.4738 10.5985 23.1613
2148 2 7.15541 9.00721 23.0385
2147 1 5.45019 8.8762 25.0675
2654 2 3.67121 10.7089 24.9144
3651 3 7.22703 10.6874 24.9258
529 2 10.745 10.843 24.9931
85 2 10.8527 9.11629 23.2982
3153 2 8.95176 9.08315 25.2076
3649 1 9.10337 10.7045 23.1932
86 3 12.5445 8.92646 25.2025
1652 1 14.3787 10.8108 25.0374
1650 1 12.5481 10.6162 23.3273
2149 2 14.4398 9.25965 23.4489
1155 1 16.0785 9.21378 25.138
1835 2 17.9709 10.9957 25.0612
2333 1 18.154 8.97496 23.0186
3653 2 16.2292 10.8108 23.253
87 1 -0.141653 12.6584 23.1063
1653 3 1.73285 14.4942 23.2245
2150 2 1.9345 12.3235 24.7296
2656 2 -0.0996159 14.4428 25.0991
531 3 7.20751 14.3077 24.8616
88 3 7.05506 12.4796 23.094
2151 2 3.51084 12.5474 23.155
3154 3 5.39893 12.3839 24.7133
3655 3 3.66727 14.3481 24.8438
3654 1 5.22223 14.2448 23.2362
89 3 8.96674 12.6161 24.7949
1655 1 10.8031 14.2383 25.0458
1654 2 8.89606 14.1382 23.0786
2152 1 10.8123 12.6069 23.2445
90 3 14.4681 12.4974 23.2103
1156 2 12.6373 12.5902 24.9357
2657 2 14.4746 14.3439 24.928
3656 1 12.528 14.2973 23.0736
337 3 17.9698 12.6493 23.1995
1656 3 16.2617 14.4661 23.0991
2153 1 16.2041 12.5838 25.1544
2531 2 17.9284 14.371 24.8306
1513 3 1.60555 17.9786 23.1946
2154 3 -0.0630073 16.0236 23.1109
2776 3 0.110574 17.9585 24.9091
3155 1 1.68758 16.2675 24.9556
715 1 7.07986 17.5927 25.0942
92 3 5.35321 16.0777 24.8162
91 1 3.45223 16.0741 23.1806
2155 3 7.26495 16.2384 23.2558
3767 2 3.69454 17.8988 24.8849
3766 3 5.43888 17.9972 23.1787
93 2 10.8647 16.2204 23.1349
1157 2 9.03222 16.1326 24.9133
1515 2 8.91904 17.8675 23.2867
1516 3 10.9011 17.8654 24.9673
2157 3 14.3508 16.0879 23.1828
2156 2 12.6323 16.1751 24.9298
2778 2 14.1826 18.0713 25.0442
3769 1 12.6302 17.8902 23.0569
1519 3 16.1008 18.0214 22.9967
2341 3 17.9164 16.1779 23.1901
2963 2 17.901 17.8587 24.8922
3156 1 16.0965 16.1831 24.862
532 2 0.0415213 0.330283 28.5932
94 2 0.105723 1.89845 26.6935
1158 3 1.88902 2.00316 28.4776
3657 3 1.68549 0.0935383 26.686
533 3 5.40495 0.163982 26.6257
534 1 7.07124 0.193365 28.5343
1159 2 3.78151 1.77108 26.9382
2159 3 7.23607 1.64888 26.5967
2658 3 3.83591 0.138442 28.8577
3157 2 5.46265 1.73308 28.4998
1160 1 9.14681 1.73823 28.5902
1658 2 8.9978 0.0634537 26.6205
2659 1 10.6269 -0.0855716 28.4277
3158 1 10.8413 1.99466 26.667
535 3 14.2178 -0.223897 28.3852
97 1 14.1544 1.86334 26.6109
2660 3 12.3159 -0.0267536 26.8614
3159 1 12.565 1.85987 28.4416
845 3 18.0223 0.136533 28.5352
344 1 17.8684 1.82026 26.728
1161 3 16.1153 1.72629 28.5173
3660 3 16.014 0.0478588 26.6226
536 3 1.81783 3.54475 26.8376
540 2 -0.122621 7.25265 28.4872
1162 1 0.095175 5.37855 26.7637
1664 3 1.84138 7.27493 26.6749
2661 1 0.0423167 3.73043 28.5645
3160 2 1.58446 5.62713 28.5749
537 3 3.50927 3.77495 28.5619
543 3 7.27968 7.26424 28.413
1163 2 5.64041 5.43662 28.6519
1661 3 5.55298 3.70918 26.9655
2162 1 3.60914 5.52435 26.7661
2668 3 3.70135 6.93277 28.5209
2667 3 5.37788 7.12671 26.724
2663 2 7.15099 3.55926 28.6816
3161 1 7.1906 5.3712 26.787
538 2 10.5307 3.69638 28.6218
99 1 10.5354 5.45892 26.9099
2669 2 10.7975 7.05114 28.5856
2662 2 8.7958 3.66381 26.7642
3162 1 9.00755 5.37777 28.7786
3668 3 8.93267 7.281 26.5403
545 1 12.4873 7.11084 26.7561
546 2 14.3589 7.14006 28.4009
1165 1 14.2369 5.33874 26.829
1164 2 12.3051 5.40697 28.5016
2664 2 14.3016 3.48664 28.3641
3663 3 12.3384 3.89398 26.8029
853 3 18.2055 7.30147 28.6995
539 1 16.1955 3.66323 26.6737
1349 3 18.0483 5.35983 26.8102
1670 1 16.237 7.1404 26.7386
2536 3 17.7797 3.47665 28.6741
3163 1 16.2553 5.40837 28.6036
1166 2 1.98945 9.03686 28.7054
2165 1 0.350812 9.28735 26.8456
2666 1 0.0597245 10.8147 28.8472