ITEM: TIMESTEP
5000
ITEM: NUMBER OF ATOMS
4000
ITEM: BOX BOUNDS pp pp pp
9.7343879333809724e-02 3.5636716120666570e+01
9.7343879333809724e-02 3.5636716120666570e+01
9.7343879333809724e-02 3.5636716120666570e+01
ITEM: ATOMS id type x y z
1 2 0.012899 1.85833 1.70249
1563 1 0.209369 0.304049 -0.0303548
2064 3 1.9674 2.02183 -0.118751
3561 3 1.87387 0.129885 1.74834
564 2 3.77805 1.84463 1.90227
565 2 7.33785 1.99763 1.7645
1565 3 7.25168 0.0676011 0.241624
2065 3 3.64908 0.24078 0.20244
3061 2 5.51999 1.92395 0.181001
3562 3 5.4525 -0.0227496 1.85308
566 3 10.7004 1.85705 1.7816
1070 1 10.9086 0.0228245 0.0616035
3063 1 9.01151 0.056797 1.94239
3062 3 9.08604 1.73118 0.0127791
567 1 14.2965 1.9356 1.98168
2566 2 14.3052 0.283099 -0.0808522
3064 1 12.4259 1.87287 0.0214229
3563 2 12.544 0.372495 2.03783
2 3 17.8901 0.0976032 0.140088
3 2 15.9727 0.233468 1.88651
3066 2 17.9554 1.96006 1.87635
3065 2 16.042 1.91033 0.166958
4 3 1.7369 5.47596 0.235624
5 2 1.81305 3.76192 2.025
6 3 2.05825 7.04088 2.02323
1071 2 0.04849 5.37261 1.92313
3067 1 0.163041 3.72533 0.168242
3565 3 0.124374 7.21126 -0.115358
7 1 5.65543 5.24474 0.0235449
8 3 3.90574 7.12395 0.201191
1072 3 7.39939 5.3027 1.71842
1075 3 5.48861 7.00222 1.84601
1074 2 3.5928 5.21977 1.90624
1567 2 7.24309 7.18411 0.249685
2570 1 7.20057 3.5366 -0.069623
2569 3 3.62095 3.6504 0.193709
3569 1 5.66809 3.6408 1.8734
9 1 8.95653 5.4966 0.126491
10 1 9.09232 3.6919 2.06526
1077 3 10.7243 7.17975 0.0609351
1076 3 10.6737 5.45654 1.83661
1568 1 8.98627 7.39276 1.87165
3068 2 10.8196 3.37971 0.138129
11 3 12.5167 5.21246 0.0410701
12 2 14.3863 3.57308 0.084587
570 2 12.5575 3.65608 1.93167
1571 1 14.0362 7.19199 -0.0285258
1570 1 14.2265 5.51026 1.76742
1569 2 12.4787 7.0953 1.81843
572 1 16.2105 3.47211 1.87535
1081 3 16.217 7.25425 1.96468
1079 3 17.8721 5.42511 1.92417
1078 1 16.0285 5.44173 0.0962257
1573 3 17.8401 3.57859 0.196778
2070 2 17.9373 7.1894 0.157104
575 2 1.97717 10.8703 1.96099
1082 2 1.99221 8.80572 -0.0331855
1574 3 0.116556 9.02185 1.90087
3070 3 0.390617 10.5525 0.143681
576 3 3.55925 10.5365 0.198652
1085 2 5.33183 8.92945 0.34315
1083 2 5.41131 10.858 1.84539
1577 3 7.00949 10.819 0.0930991
1576 1 7.18545 8.96394 1.91088
1575 1 3.68129 8.87182 1.94871
14 2 10.7231 10.697 -0.0203487
1087 2 9.11069 10.5057 1.91862
1086 1 8.84089 9.06377 0.0264412
2071 1 10.9636 9.16508 1.78905
580 3 12.5854 10.9848 1.88652
1088 2 14.3477 10.7884 0.124665
2073 2 12.6075 9.03912 0.0533685
2074 3 14.1426 9.08299 1.9404
15 3 17.8534 9.0309 1.9407
1581 3 16.0115 10.8338 2.01011
2076 1 17.9021 10.8486 0.148802
2075 3 16.3963 9.05225 -0.0815924
2079 3 1.90095 12.6135 -0.0149405
2078 2 1.86322 14.4117 1.86193
2077 1 0.269359 12.3926 1.907
2572 3 0.0170531 14.1816 0.218031
2082 3 5.5414 14.274 1.90061
2081 2 3.49329 12.6484 1.86945
2080 1 5.13598 12.3461 0.00014007
2576 2 7.31968 14.2632 0.0978537
2575 3 7.22018 12.5729 2.09738
3071 3 3.6211 14.2356 0.174094
1583 1 9.16392 14.1932 1.97587
2084 2 10.603 14.4761 0.0301392
2579 1 10.708 12.5181 1.72109
3073 2 8.94119 12.441 0.068387
2085 1 12.4377 14.3187 1.76363
2580 2 14.3724 12.7635 1.84342
3074 3 12.611 12.6214 -0.00834649
3574 2 14.3615 14.342 0.06504
581 3 17.9522 12.5255 1.72783
1089 1 17.7393 14.1662 -0.146333
2583 2 16.0449 14.2449 1.90848
3075 2 16.2334 12.3935 -0.00720781
16 2 -0.00870755 17.5986 0.137522
2086 2 1.76605 17.8878 1.95808
2584 3 -0.230796 15.9842 1.80349
3076 1 1.72563 16.1056 0.124458
17 3 5.6257 16.0197 0.132045
1090 1 3.70966 17.8195 -0.0547916
2585 1 7.34087 18.0574 0.286796
3079 2 5.26486 17.7429 1.96667
3078 3 7.31873 16.1747 1.88903
3077 3 3.6128 15.996 1.79184
18 3 8.9828 16.2368 0.117589
1585 1 10.832 17.8145 0.194862
3080 2 10.882 16.0843 1.90663
3578 1 9.00592 17.9506 1.96683
19 2 12.5168 16.1231 0.0985509
2088 2 14.5104 17.8233 0.0821843
3081 3 14.3464 16.0611 1.89257
3581 1 12.5879 17.9113 1.87907
20 1 16.1228 15.993 0.0568765
1586 1 17.9319 16.1113 1.84744
3083 1 15.9537 17.9525 2.06297
3082 3 17.7752 17.9869 0.229883
584 1 1.71174 1.9115 7.22278
1564 3 0.283173 0.182455 3.65231
2588 2 1.9758 0.107932 5.58709
2563 1 1.95003 1.87556 3.38098
3084 3 0.135055 0.11662 7.27071
3583 1 -0.00603524 1.85879 5.36877
22 3 5.40526 1.90296 7.23412
1069 3 3.60662 0.0969586 3.64394
1566 1 7.51646 0.0575549 3.66528
2089 1 5.29672 0.374866 5.37775
2590 3 3.74021 0.232783 7.1736
2564 1 5.60787 1.85492 3.45285
3085 2 7.25776 0.187724 7.44641
3585 3 3.5325 2.01817 5.37273
3584 2 7.28948 1.73746 5.47303
586 1 9.1827 1.70059 7.2245
2066 2 10.8894 0.103134 3.82732
2593 3 9.06533 0.083959 5.39337
2565 2 9.04612 1.91752 3.72843
3086 2 10.8859 0.10648 7.10907
3586 3 10.9538 1.81008 5.36134
23 3 12.5497 2.11368 7.26437
24 1 14.118 0.132351 7.1154
25 1 14.3219 2.04954 5.40684
2568 1 14.1912 0.00695895 3.61095
2567 2 12.5536 1.89738 3.61964
3087 2 12.6622 0.0628491 5.35033
568 1 17.9794 0.301759 3.50313
588 3 16.0676 1.82398 7.3774
1587 3 17.8474 0.0991203 7.22154
3088 3 16.192 0.189912 5.46495
3588 1 17.7628 1.92624 5.59302
3564 1 16.2589 1.87698 3.69064
27 2 1.81561 5.66207 7.27411
28 1 1.9732 7.36626 5.56048
589 3 -0.024342 5.65527 5.50321
2067 1 0.0517663 3.85407 3.54921
3090 3 1.9227 3.80538 5.60681
3590 3 -0.092461 7.25605 7.53855
3589 2 -0.0739616 3.74567 7.19442
3567 2 0.188544 7.13268 3.82905
3566 2 2.01601 5.39658 3.77687
29 1 3.77395 3.63581 7.24191
593 2 3.63731 7.18466 7.1697
592 1 7.336 5.56199 5.42293
591 2 7.06356 7.11836 7.26852
590 1 3.57337 5.45814 5.48011
1095 3 5.61691 5.20714 7.09509
1094 1 5.28242 7.26213 5.58254
1073 2 3.69866 7.25579 3.65838
2068 1 7.18079 7.37208 3.80185
2069 2 3.82723 3.54362 3.57867
3593 1 5.36166 3.57413 5.50413
3592 2 7.29892 3.49479 7.06835
3570 3 5.39363 5.36349 3.58744
3568 2 7.29175 3.7665 3.90195
31 3 9.17878 3.71367 5.45634
569 3 10.6278 7.26176 3.64355
594 2 10.7303 5.51025 5.59786
1097 1 9.05305 5.3758 7.31969
1590 2 8.90289 7.11449 5.52611
1589 2 10.7959 7.36333 7.06895
3594 3 10.9558 3.64538 7.15228
3572 3 10.9574 3.58257 3.72774
3571 1 9.09574 5.4629 3.81629
33 2 12.7546 3.90462 5.44235
35 1 14.4011 3.70852 7.2703
571 2 12.5405 5.56527 3.68543
595 2 14.2301 7.41827 7.03112
1100 1 14.4653 5.60088 5.49388
1099 1 12.5773 5.53366 7.20248
1592 3 12.5475 7.10653 5.36311
1572 2 14.2376 7.2862 3.45724
3069 1 14.3283 3.85155 3.57976
573 1 15.9968 5.42025 3.49399
1080 2 17.7565 3.6448 3.5581
1595 2 15.9501 7.34206 5.3483
1594 3 15.9642 5.63518 7.24177
2094 1 17.9118 7.2344 7.16056
2092 2 17.8654 3.60716 7.22032
2571 2 17.7874 7.17556 3.63251
3092 3 17.7764 5.39787 5.3534
3595 3 16.0814 3.6365 5.46839
13 1 0.115725 10.7683 3.62598
597 1 0.0730948 10.8327 7.30141
596 3 1.80621 10.837 5.52452
574 2 1.75674 9.02219 3.77044
1102 2 1.8599 9.02568 7.39417
1101 1 -0.00852467 9.02391 5.59123
38 1 3.51253 10.8264 7.3772
578 3 3.68988 10.7707 3.65466
577 1 5.50773 9.02906 3.78908
1106 1 7.06189 10.8601 7.3299
1104 1 5.42346 10.945 5.5623
1103 1 3.6422 9.0935 5.45094
1084 3 7.23671 10.8299 3.72265
1597 1 7.09586 8.96322 5.73254
1596 1 5.40381 9.04203 7.47793
39 3 10.702 10.8968 7.14865
599 1 8.79815 10.6511 5.67612
579 3 10.7037 10.8923 3.6128
1107 2 8.93903 8.9379 7.31087
1578 1 8.94437 9.00201 3.7782
2097 3 10.7064 9.12154 5.53122
1108 1 12.4531 10.7143 5.3736
1598 2 12.3839 9.14779 7.18625
1579 1 12.3987 8.95878 3.56918
2072 3 14.2927 10.9676 3.64699
2099 1 14.415 10.6013 7.22032
2098 2 14.2783 9.09543 5.33656
1599 1 16.2306 9.10386 7.23622
1580 3 16.0218 8.93532 3.68543
2100 2 16.3039 10.7677 5.31493
3093 1 17.832 10.9587 7.0928
3597 3 17.9961 8.94239 5.50568
3573 3 18.0265 10.7875 3.61941
1110 2 0.0394927 14.1841 7.23911
1582 2 1.80928 12.6169 3.66645
2103 3 1.73585 12.5657 7.38542
2102 1 1.69796 14.4148 5.50837
2101 3 0.089552 12.6047 5.45667
2573 1 0.108835 14.2011 3.64126
1112 3 7.22916 14.2708 7.31284
1600 2 5.08127 12.4949 7.29426
2104 1 5.31996 14.194 5.61272
2083 2 3.63527 14.2664 3.72935
2601 3 7.18418 12.6897 5.51163
2600 2 3.56358 12.5488 5.38556
2599 3 3.38955 14.4073 7.19458
2577 1 7.00344 14.3579 3.75191
2574 1 5.30207 12.6017 3.66674
2604 2 9.14488 14.5303 5.37209
2603 1 10.9735 14.2076 7.18634
2602 3 10.6405 12.5394 5.4871
2578 1 9.04548 12.7407 3.68051
3097 2 9.04302 12.6871 7.17445
3072 1 10.9337 14.4491 3.6848
602 3 14.3415 14.2073 7.26197
1603 3 12.7967 12.5087 7.29372
2605 2 14.4832 12.4745 5.57511
2581 2 12.6536 12.6316 3.68798
3098 2 12.6852 14.3012 5.56309
3575 1 14.4214 14.3663 3.6052
1114 2 17.9435 12.3789 5.45483
1584 1 17.8814 14.3036 3.81218
2582 2 16.1963 12.5639 3.70023
3100 3 16.1565 14.3325 5.38899
3099 1 15.8897 12.3914 7.26907
3599 1 17.7389 14.3164 7.19416
582 3 -0.108118 17.76 3.8468
1605 2 1.80048 17.6679 5.28921
1604 2 1.64542 16.1707 7.14275
3104 1 -0.0860109 16.0429 5.3712
3103 2 0.0253843 17.9636 7.23529
3576 2 1.7332 15.9548 3.62659
2087 2 3.65348 17.6545 3.63197
2607 3 5.45453 17.8745 5.53343
2586 3 7.14709 17.8452 3.67238
3107 1 7.27988 17.7518 7.1948
3106 2 5.46753 16.2047 7.31097
3105 1 3.56102 17.7927 7.16942
3602 3 3.53804 16.0821 5.35831
3601 1 7.01108 16.1059 5.3972
3577 1 5.30938 15.9868 3.65757
1091 2 10.749 17.8651 3.65564
2107 1 8.97933 16.1199 7.33224
2608 1 8.96698 17.9335 5.46829
3109 1 10.8159 17.9272 7.21704
3603 3 10.9402 16.0315 5.36072
3579 3 8.8659 16.1208 3.67168
41 3 14.3656 16.0573 5.63722
2610 1 12.4421 17.9201 5.46314
2609 1 14.4491 17.9115 7.28165
2587 1 14.3491 17.9316 3.84671
3604 3 12.5302 16.1639 7.21104
3580 3 12.6972 16.0703 3.66947
583 1 16.129 15.9333 3.55325
1606 1 17.8254 18.0975 7.28629
2109 2 16.2967 16.1569 7.16695
3112 1 16.0445 17.7948 5.55905
3110 2 17.9994 16.2836 5.30691
3582 2 17.941 18.0424 3.6965
21 2 -0.0185248 1.99488 8.9744
604 3 0.128154 0.0656277 10.4339
2110 3 1.9202 1.74493 10.7326
2589 1 1.98849 0.112145 8.95916
585 2 7.20436 2.02163 9.11467
1092 3 5.35245 0.0489169 8.92877
1608 1 7.16437 0.0713577 10.6043
1607 3 3.60225 -0.0205658 10.7823
2111 1 5.50124 1.90579 10.7533
2591 3 3.58684 1.91187 9.12037
1116 3 10.7215 0.248304 10.6833
2612 2 8.91731 2.18365 10.7341
2592 2 10.8602 1.92863 8.9122
3587 3 8.98572 0.208852 9.14071
587 2 14.379 1.91309 9.02014
1609 3 14.2428 0.124681 10.9458
2090 1 12.5566 0.15548 8.90852
2613 1 12.5778 1.94401 10.522
26 2 16.0376 0.0672316 9.04683
2594 2 17.8967 1.94334 8.85857
3116 2 16.0092 1.86516 10.6588
3115 3 17.9037 0.248971 10.7071
1093 3 1.86553 7.17907 9.03566
2091 1 1.85179 3.81409 9.04761
2615 3 0.0495102 3.61839 10.8142
3118 2 0.179768 7.34675 10.8036
3117 1 1.70549 5.46387 10.7159
3089 3 -0.0584378 5.44263 9.08036
30 3 5.51398 3.5733 8.94868
45 1 7.18465 7.2503 10.7099
1096 3 3.61074 5.55722 8.99693
2112 3 7.07309 3.82206 10.7761
2616 3 3.62465 3.6813 10.6614
3091 3 7.03393 5.49859 8.94184
3608 2 3.63049 7.28159 10.9096
3607 3 5.1895 5.48503 10.6769
3591 2 5.37433 7.33117 9.17825
46 2 10.7263 7.30894 10.7444
1098 2 10.8357 5.54979 8.8148
1591 1 8.94668 3.66639 9.00256
1588 3 8.76598 7.28133 8.98706
2113 1 10.9366 3.60185 10.7134
3609 2 8.87595 5.61565 10.6284
32 1 12.6011 7.14487 8.85912
34 2 12.5065 3.80658 9.0017
36 3 14.3209 5.2915 9.16474
609 3 14.2895 7.35503 10.9106
3119 3 14.2387 3.54378 10.7632
3611 2 12.4321 5.48763 10.5565
1120 1 17.7435 3.93075 10.7803
1615 1 17.7559 7.11894 10.6796
1593 1 17.8108 5.46665 9.09698
2093 2 16.1054 7.289 8.96948
2595 1 16.2575 3.60344 9.00238
3612 3 16.0561 5.51427 10.8394
48 1 1.90073 8.97021 10.8986
2095 1 0.109375 8.91881 9.0798
2596 3 1.91522 10.7227 9.12953
3120 1 0.200268 10.7176 10.865
37 2 3.59778 8.98291 9.04192
49 1 5.53296 9.06496 10.7635
612 2 7.12897 10.9857 10.6875
1105 3 5.22146 10.8002 9.1058
2096 1 7.20802 9.1573 8.89906
3121 2 3.7018 10.7905 10.9792
613 1 8.87361 9.18632 10.6094
598 3 10.6895 8.89039 9.0064
3613 2 10.7411 10.772 10.7899
3596 1 9.09521 10.9294 8.70277
50 3 14.3314 10.8738 10.7338
614 1 12.5771 9.0662 10.8598
2598 2 12.4055 10.5548 8.99417
2597 2 14.3215 9.03551 9.12567
51 1 18.0611 10.8176 10.7611
600 2 17.8272 8.99276 8.89981
1122 3 15.9773 9.01694 10.714
1109 2 16.1751 10.7064 9.20342
616 2 -0.0254521 14.3393 10.7978
601 3 0.265316 12.6457 9.17592
1123 2 1.99674 12.6186 10.8162
3094 1 1.85079 14.5632 8.96961
1124 3 5.35351 12.5747 10.7884
1111 3 5.40822 14.2733 8.89496
1619 1 7.14904 14.3125 10.6925
1618 2 3.68464 14.3625 10.812
1601 1 7.07902 12.5509 8.82562
3095 3 3.62088 12.4757 9.06165
617 2 10.8035 14.2289 10.7365
1125 3 9.04505 12.6387 10.6048
3096 2 9.0598 14.48 8.97664
3598 3 11.0148 12.5132 8.91429
1126 1 14.5359 14.3887 10.8272
1113 1 12.6578 14.4301 9.06018
1620 3 12.7307 12.6359 10.7497
1602 1 14.4636 12.6109 9.12584
1621 2 16.0876 12.5263 10.8526
3126 3 17.887 14.3313 10.7791
3102 1 16.0869 14.3192 8.9115
3101 3 17.9708 12.5892 9.10557
1623 3 0.13254 17.8194 10.8043
2119 1 1.77925 16.2432 10.7649
2606 3 1.93553 17.9839 8.89215
3600 2 0.0632469 16.0442 8.99269
40 3 7.20752 16.0537 8.98311
619 1 3.70037 17.9032 10.6663
1127 1 7.24572 17.8407 10.8684
2120 1 5.32571 16.0367 10.6153
2106 3 3.52651 16.2991 8.94942
2105 2 5.41402 17.8829 9.04422
1624 2 10.7708 17.7793 10.6569
2108 1 10.8667 16.1796 8.86886
2625 3 9.10422 15.9531 10.7216
3108 3 8.88845 17.8458 8.85377
603 3 14.454 16.1647 8.90819
1115 3 12.6166 17.8866 8.88369
2626 3 12.6864 16.1945 10.7702
3620 2 14.3852 18.0629 10.7206
2628 3 15.925 16.2793 10.7779
2611 1 17.9209 16.1585 9.10696
3127 2 18.0032 17.9283 10.7924
3111 2 16.1882 18.1187 9.13054
42 3 -0.00166302 1.85809 12.52
2121 2 0.0901549 0.0341361 14.2579
2629 1 1.8253 1.97436 14.4633
3113 2 1.95126 0.0490272 12.4205
43 1 3.48341 1.86699 12.5612
605 3 7.18698 1.89635 12.4581
1625 1 7.18486 0.0525968 14.2861
2123 1 3.68479 0.180716 14.1604
3128 2 5.37974 1.79835 14.2181
3605 2 5.40495 0.196436 12.3687
606 3 10.7185 1.83309 12.5003
1627 2 10.7792 0.0872758 14.3535
3129 3 8.89398 1.64045 14.2042
3606 3 8.83464 0.0379368 12.5134
1117 2 14.357 2.00665 12.5923
2632 3 14.3929 0.0658312 14.4396
3131 2 12.5774 1.92156 14.2734
3114 3 12.5797 0.0783399 12.5734
44 2 15.9719 0.28602 12.5146
501 2 17.7257 -0.0571806 14.3344
2614 3 17.6917 1.89091 12.6425
3132 3 16.0787 1.8349 14.527
607 1 2.08778 3.50725 12.68
1119 3 1.88652 6.99252 12.6439
1118 2 0.0120299 5.38495 12.5211
2634 3 0.119438 7.07611 14.3397
2633 3 0.0732318 3.73211 14.3035
3624 1 1.8343 5.34193 14.3582
60 3 7.25363 7.15461 14.4108
608 3 5.43419 3.84032 12.3988
1612 2 7.33529 5.51446 12.518
1611 2 5.54326 7.32295 12.407
1610 3 3.626 5.33384 12.5605
2128 3 7.39927 3.57003 14.255
2126 1 3.87587 3.60822 14.5097
3136 2 3.4558 7.05536 14.4403
3626 3 5.49849 5.47571 14.2277
1613 3 10.6386 5.57848 12.5254
2114 3 8.94923 7.35388 12.7075
3137 2 10.8032 3.74693 14.3214
3629 1 8.94237 5.5354 14.2835
3628 1 10.8618 7.37204 14.4649
3610 1 8.9711 3.56722 12.4327
610 3 12.4135 3.69223 12.4221
1614 3 14.1368 5.42906 12.6099
2617 3 12.4233 7.16176 12.5681
3138 1 14.4047 3.57812 14.3147
3631 1 14.4311 7.2476 14.4148
3630 1 12.4731 5.49488 14.3459
47 3 17.8339 5.60141 12.6209
65 1 16.0153 5.32717 14.1948
1138 1 17.7616 3.64063 14.5102
1121 3 16.1715 3.85157 12.4359
2618 3 16.17 7.4226 12.5403
3140 3 17.8497 7.35829 14.3106
67 1 1.8849 9.02417 14.1517
611 2 1.89194 10.682 12.5392
2115 1 0.128107 8.82783 12.8103
2636 3 0.155108 10.8806 14.256
69 3 7.17806 10.7337 14.1463
70 3 5.45504 8.96359 14.2711
1616 2 5.45196 10.8912 12.428
2116 1 3.66781 8.90426 12.7192
2619 2 7.30952 9.04604 12.6221
3633 3 3.51978 10.9131 14.1753
71 1 9.01642 8.95523 14.4478
2117 1 8.89366 10.8148 12.4224
2620 3 10.6273 9.10558 12.5507
3141 2 10.8075 10.6753 14.4577
510 3 12.5893 8.99852 14.4913
1617 3 12.4926 10.5954 12.5894
3122 1 14.2347 9.05947 12.6601
3635 3 14.3297 10.8245 14.3087
511 2 15.9918 8.96127 14.598
615 3 17.8718 8.99829 12.6466
1639 1 17.9406 10.6944 14.2404
2118 1 16.1215 10.7133 12.4974
513 2 0.0536592 14.523 14.3129
514 1 1.79598 12.5804 14.4018
2621 3 0.111322 12.6038 12.4392
3123 2 1.64107 14.4622 12.4599
72 3 7.20459 14.3438 14.2968
515 3 5.53631 12.5811 14.161
516 3 3.68765 14.4735 14.3068
3125 2 7.28078 12.5785 12.4656
3124 2 3.48104 12.8515 12.489
3614 2 5.40937 14.3256 12.6276
73 1 10.7829 14.5243 14.2084
1145 3 9.12931 12.4858 14.3552
3616 2 10.8178 12.4144 12.7321
3615 3 8.87508 14.3676 12.4218
1147 1 12.5124 12.5474 14.2704
1146 2 14.401 14.2874 14.181
2622 3 12.6213 14.2152 12.3894
3617 1 14.2981 12.3967 12.772
1149 2 16.0772 12.531 14.3921
1622 2 17.8168 12.5281 12.6789
3146 1 17.9577 14.3289 14.3534
3618 3 16.1876 14.3409 12.6147
52 1 0.0379031 16.3114 12.7148
518 3 0.0949471 17.724 14.4962
1150 3 1.87904 15.997 14.3256
2623 3 2.0249 17.7297 12.5921
53 1 3.66541 16.1056 12.5329
618 2 7.19909 16.1722 12.4703
1151 2 3.68294 17.8519 14.4954
1642 2 5.42326 16.1529 14.1432
2142 3 7.23689 17.7715 14.3535
2624 2 5.39359 17.8135 12.4291
54 1 10.8949 16.1234 12.383
1643 2 8.96395 16.0077 14.3604
2649 1 10.6844 17.9341 14.2939
3619 3 8.98022 17.8998 12.6581
55 1 12.6399 18.0161 12.5025
620 3 14.3944 16.0118 12.5641
1646 2 12.6387 16.2144 14.3239
1644 2 14.4478 17.94 14.2941
56 3 16.1831 17.969 12.5651
1647 2 16.3782 16.1945 14.2263
2627 2 17.9022 16.139 12.6451
3644 2 17.9024 17.9697 14.265
57 3 1.80577 0.196933 16.0541
621 2 0.0279405 1.88665 15.881
1128 1 0.137885 -0.104372 17.8883
2122 3 1.75482 1.82245 17.8817
58 1 5.41033 0.0968553 16.182
1132 3 7.19188 0.0783779 17.999
1131 1 7.33103 1.75079 16.0163
1130 3 3.66593 0.114649 17.8485
1129 2 3.7137 1.85128 16.1257
2630 3 5.47157 1.93647 17.953
1133 2 10.6984 1.78401 16.0712
1626 2 10.7384 0.0150857 17.9307
2631 1 8.86458 1.74977 17.9175
3621 1 9.10433 -0.0189217 16.0358
59 1 12.5143 0.268777 16.1219
1134 1 14.3722 2.02235 16.0318
2124 1 14.2231 -0.126252 17.7778
3130 2 12.4518 1.7902 17.8236
502 1 16.0622 0.0394577 16.0885
3133 1 15.914 1.91301 17.7366
3623 1 17.8195 0.000933409 18.0341
3622 2 17.7818 1.88843 16.3182
503 3 1.8676 3.50763 16.0667
504 2 1.77635 7.17805 16.1843
1628 3 0.0242016 5.42842 16.1038
2125 3 0.0898716 3.67318 17.9521
3134 1 0.046971 7.15095 17.924
3625 3 1.9979 5.48487 17.8495
61 2 5.63183 3.47252 16.0754
505 1 3.79506 7.13239 17.8148
1135 1 7.02984 7.20284 17.8223
1631 1 5.47032 7.1997 16.0843
1630 2 3.85101 5.4589 16.0524
1629 2 7.20022 5.30728 15.8718
2127 2 3.67826 3.57752 17.9728
3135 2 7.22719 3.64343 17.8257
3627 1 5.54534 5.42984 17.7818
62 1 8.60921 5.46635 17.9293
63 2 10.5642 7.0698 18.0567
506 2 8.9219 3.532 16.1474
1632 1 10.5838 5.50371 16.2888
2129 3 8.92866 7.19976 16.1281
2635 1 10.578 3.559 17.8167
64 2 12.2799 5.35286 17.6897
1137 1 14.1105 7.22566 17.9222
1136 2 12.4263 3.52318 16.1255
2131 1 14.2682 5.45446 15.9822
2130 1 12.6053 7.34066 16.2879
3139 3 14.3049 3.84461 17.8685
66 3 17.7639 5.69208 16.1416
507 3 15.9752 5.55322 17.8404
1140 1 17.9501 3.77022 17.8557
1139 2 16.116 3.83744 16.1223
1634 2 17.6731 7.25437 18.0844
1633 3 16.1275 7.27617 16.1891
508 1 1.79797 8.99661 17.8627
1141 3 1.82509 10.9945 16.3057
2132 1 0.26751 9.20703 15.8266
3632 2 0.0424778 10.809 18.0486
68 3 3.60656 10.9497 17.9087
509 3 7.2458 10.7603 17.8338
1142 3 5.34468 8.95291 17.8266
1635 3 5.32533 10.7243 16.1426
2134 2 7.2281 9.13879 16.3215
2133 3 3.40213 9.04238 16.067
1143 3 8.92375 8.99264 17.7811
1636 3 9.08402 10.733 16.0223
2637 3 10.7225 8.97458 16.3055
3634 2 10.8078 10.8586 17.8287
1144 1 12.592 10.8787 16.0241
1638 2 12.6213 9.15653 18.0295
1637 3 14.3269 10.9129 17.9529
2638 3 14.2409 9.10204 16.2436
512 2 18.0407 8.97493 16.0313
1640 1 16.138 9.26038 17.8858
2135 3 16.1504 10.8224 16.0396
2639 3 17.8645 10.8042 17.823
2137 1 0.143866 14.2875 18.0045
2136 1 1.60937 12.6263 18.172
2641 3 1.86962 14.3164 16.1667
2640 3 -0.0208805 12.6723 15.9424
2140 1 7.28835 14.3501 17.9639
2139 2 3.65874 14.1843 17.7299
2138 1 5.52871 12.6482 18.0282
2643 2 5.38309 14.1896 16.1112
2642 2 3.80621 12.5485 16.0283
3142 1 7.20473 12.5558 15.988
2141 3 9.00988 14.2389 15.859
2645 2 8.87884 12.5361 17.8517
2644 2 10.7351 14.2358 17.9679
3143 3 10.89 12.6658 16.09
2647 2 12.5123 14.4779 15.9411
2646 1 12.7628 12.7644 17.96
3145 2 14.4059 14.3506 17.9149
3144 2 14.2085 12.6551 16.0304
517 1 17.9718 14.1523 17.9709
1148 2 18.0501 12.3986 16.1068
3148 2 16.3701 14.1316 16.2242
3147 2 16.1213 12.5552 17.6133
2648 2 1.98656 17.6893 16.2743
3150 1 1.76397 15.9857 17.8431
3149 1 -0.0406271 15.957 16.178
3636 2 0.0226399 17.8697 17.7972
1641 1 3.69435 17.7142 17.929
2143 1 7.13239 17.8806 17.7724
3640 3 5.4263 17.8685 16.1247
3639 2 7.22151 15.8506 16.2216
3638 1 5.37635 15.9535 18.0321
3637 2 3.8208 16.0535 16.1969
74 1 9.01644 17.8003 16.0061
519 1 11.1424 17.8922 17.9989
3642 3 9.00653 15.989 17.6495
3641 3 10.8193 16.1305 16.0691
75 2 12.5184 16.0115 17.8768
76 2 12.6952 17.9986 15.939
1645 1 14.4631 17.8023 17.8119
3643 3 14.5421 16.008 16.1072
77 1 16.2513 16.0677 17.6621
2144 1 18.1659 16.072 15.9964
2650 3 17.8095 17.7744 17.8256
3645 1 16.3053 17.7469 15.9997
520 2 -0.0636129 0.029182 21.3472
78 3 -0.0613604 1.83727 19.7124
2145 2 1.72604 1.76421 21.5019
3151 1 1.80971 -0.254251 19.6334
521 1 3.60348 0.0972009 21.3147
80 2 3.6026 1.83888 19.6506
79 1 7.1298 1.79827 19.875
2147 1 5.45251 1.49406 21.4204
2146 2 7.20496 0.0723546 21.489
2651 1 5.21701 0.176654 19.5473
81 1 10.68 1.8832 19.6027
1648 3 10.7492 0.0533924 21.4606
2652 2 8.99113 1.90676 21.3456
3152 1 9.00204 -0.0999647 19.6474
522 1 14.158 1.93013 19.5636
1649 3 14.2532 0.112862 21.2293
2653 3 12.4301 1.76802 21.3933
3646 1 12.5097 0.182795 19.5965
82 1 17.7874 -0.0410497 21.6163
2654 1 17.7516 1.81473 19.6345
3153 3 15.995 1.88603 21.5113
3647 2 16.1482 0.169043 19.6919
523 3 0.0194472 5.41806 19.5725
84 3 1.82727 7.00875 19.6085
83 1 -0.0597599 7.06032 21.5746
1650 3 -0.0729929 3.6911 21.3055
3155 2 1.69145 5.39507 21.4307
3154 3 1.76949 3.80591 19.698
524 1 3.79525 5.29312 19.5247
525 2 7.16153 5.40085 19.7429
526 3 3.5287 7.088 21.4034
1153 2 7.34775 7.09206 21.3663
1152 2 5.41466 7.21833 19.6489
2655 1 3.42974 3.38144 21.3906
3156 2 7.02983 3.64513 21.5219
3649 2 5.48128 3.47464 19.889
3648 3 5.45047 5.60079 21.4895
86 2 10.5627 7.08555 21.4589
85 3 8.97551 3.69121 19.67
1155 1 10.7821 5.11487 19.6005
1154 2 9.00556 7.06061 19.6115
2656 3 10.7022 3.76528 21.5877
3650 3 9.00552 5.3052 21.4509
527 1 12.5396 7.38557 19.656
88 3 12.4643 5.36682 21.4993
87 2 12.6298 3.67669 19.4443
1156 3 14.2856 5.45805 19.6337
2148 2 14.3845 7.11319 21.4869
2657 1 14.136 3.71567 21.4154
528 3 17.7658 3.69111 21.5145
89 2 15.8899 5.47289 21.284
1157 1 15.965 7.20924 19.6531
3158 2 17.9919 5.51244 19.8075
3157 1 17.7327 7.2068 21.5382
3651 1 16.175 3.47846 19.6338
529 2 1.7891 9.02444 21.4433
530 3 2.00477 10.6552 19.6029
1158 2 0.244348 9.00807 19.7657
3652 2 0.114199 10.779 21.3884
531 1 5.42616 8.6593 21.4139
532 2 5.28705 10.8105 19.6975
533 1 7.20083 10.6236 21.2085
1159 1 3.63796 9.04794 19.5916
1651 2 7.08655 8.92626 19.5528
3653 2 3.66924 10.6003 21.3444
90 2 8.92804 10.8293 19.6443
1161 2 8.87916 8.84059 21.2999
1160 2 10.7545 10.8105 21.3828
1652 2 10.6652 9.00764 19.4223
534 1 12.5442 10.7374 19.6373
1162 1 12.4945 8.96698 21.3393
1654 3 14.3818 10.6066 21.4789
1653 2 14.3658 9.0016 19.6388
1656 2 16.0896 10.7529 19.7581
1655 3 15.9715 8.85612 21.4152
3159 2 17.8936 11.0125 21.5678
3654 2 17.7941 8.8265 19.7905
1660 1 0.00435583 14.2944 21.6861
1659 3 1.85419 14.3676 19.9111
1658 1 2.08789 12.4033 21.3421
1657 2 0.129531 12.5252 19.758
1163 2 5.3348 14.3144 19.7603
1661 1 3.67742 14.4325 21.5681
2151 2 7.03155 12.5471 19.6344
2150 2 5.36361 12.522 21.6065
2149 1 3.56406 12.5912 19.5657
3160 3 7.17375 14.2343 21.4348
1662 2 8.87884 14.3699 19.7885
2153 2 8.98593 12.49 21.2693
2152 1 10.697 12.4901 19.6786
2658 2 10.6795 14.1441 21.4503
2155 3 14.4037 12.6343 19.8267
2154 3 12.6336 14.3589 19.7165
2660 1 14.4153 14.3723 21.3965
2659 1 12.6009 12.4658 21.4073
535 3 17.8913 12.4129 19.6649
1164 1 17.963 14.2081 21.3327
2156 1 16.2603 14.3118 19.3285
2661 3 16.1826 12.6044 21.5997
1165 3 0.112543 17.8104 21.4965
2157 1 1.8588 17.7944 19.6137
2662 3 -0.00787873 16.0081 19.8182
3161 3 1.85061 16.133 21.5537
1664 2 7.16154 17.8863 21.4643
1663 1 3.63592 17.8499 21.4702
2664 2 3.53998 16.0289 19.6712
2663 1 7.19227 16.0232 19.7517
3163 3 5.4682 16.2326 21.4148
3162 3 5.47101 17.8229 19.6558
536 1 10.7357 17.8073 21.3623
2665 1 10.7565 16.0905 19.9054
3164 1 8.93001 17.7765 19.5166
3655 2 8.91058 16.2168 21.5031
2666 1 12.6708 17.707 19.7717
3166 2 14.3568 16.1488 19.6966
3165 2 14.3374 17.7116 21.3579
3656 2 12.6246 16.012 21.4695
92 2 16.1263 15.9914 21.2381
91 2 17.9066 17.9643 21.4031
1166 1 17.7422 16.3179 19.7078
3167 3 16.1623 18.002 19.5826
93 1 1.85376 1.82539 25.0428
1665 2 1.92366 0.143378 23.2501
2667 1 -0.072446 0.138729 24.9844
3168 2 0.0036127 1.91294 23.1191
2158 3 5.36795 0.0544801 23.2777
2670 2 3.72863 0.0728484 24.9174
3170 2 7.20356 1.86331 23.0993
3169 1 3.6832 1.89004 23.0359
3659 1 7.22697 0.294899 24.7817
3658 3 5.39117 1.97341 24.7973
537 1 9.05126 1.90393 24.9224
2671 3 8.9947 0.0927346 23.1523
3171 2 10.8055 -0.0910738 24.965
3660 2 10.6943 1.82741 23.0166
2673 2 12.4965 0.0966352 23.0387
3663 1 14.29 1.90069 23.14
3662 3 14.1849 0.147358 24.87
3661 2 12.5555 1.74707 25.0093
539 3 15.9555 1.74484 24.8697
1167 2 17.9676 0.125273 24.9765
1668 1 17.9143 1.97908 23.0586
2160 2 16.0279 0.0271655 23.0937
99 2 1.85102 5.37081 25.1321
98 1 1.75075 7.15378 23.2132
97 3 0.0695301 7.28545 25.2001
96 1 -0.0848537 5.40438 23.2195
3173 2 1.75005 3.71923 23.072
3172 1 0.15118 3.3801 25.0204
540 2 3.69476 6.99123 24.9206
541 2 5.38879 7.11885 23.3294
542 2 7.34411 5.49226 23.2155
543 2 5.37169 5.35257 24.8227
101 1 7.33266 7.25004 24.9665
100 1 3.62706 5.33293 23.0067
2675 3 7.25359 3.60915 24.9166
3175 2 3.50362 3.74882 24.779
3665 2 5.39787 3.67221 23.0866
546 2 8.86593 7.20886 23.2494
547 2 9.17897 5.51236 25.0933
102 2 10.6071 5.49708 23.2588
1170 3 10.6418 7.41863 24.9778
3177 3 10.8119 3.60901 24.9344
3666 1 8.7904 3.64594 23.1479
548 2 14.1908 5.58378 23.2788
549 3 12.4176 5.52577 25.0062
105 3 14.3152 3.46416 24.9624
1670 2 12.3906 7.10578 23.2489
3179 3 12.5097 3.64731 23.4098
3667 2 14.4523 7.19879 24.985
1172 3 16.0469 5.45101 25.0315
1672 2 17.7069 3.42795 24.9128
1671 3 16.0214 7.04332 23.3012
2678 3 18.0099 7.06869 25.0169
2677 3 17.846 5.4023 23.3709
3668 2 15.9132 3.73073 23.1414
550 2 0.112198 8.82842 23.2206
106 3 1.98787 10.7158 23.2513
1175 2 1.83602 8.93865 25.2011
3669 3 0.154314 10.5944 24.8992
108 1 5.14206 10.6529 23.093
1180 2 7.1005 10.8186 24.9195
1178 3 6.99565 8.87126 23.2729
1177 1 3.69008 8.8597 23.2668
1176 1 5.50381 8.9685 25.102
3670 2 3.67983 10.6334 24.9403
551 1 10.5993 10.6699 24.9943
552 2 8.99128 10.7988 23.0667
1181 3 8.88108 9.11122 24.9668
1674 3 10.6218 9.07686 23.1871
1182 3 12.5937 10.4963 23.2445
1676 1 12.368 9.01227 25.1293
1675 1 14.3564 8.93063 23.3356
2163 1 14.2873 10.672 24.966
1183 3 16.1423 8.94027 25.0285
1677 2 16.1351 10.7158 23.1897
2165 3 17.8335 10.8848 25.01
3671 3 17.8065 8.8883 23.0912
555 1 0.193801 14.1923 25.1079
1184 1 1.88237 14.3291 23.1282
1678 1 1.97456 12.6865 25.0127
2166 2 0.220923 12.527 23.1355
113 1 7.22918 14.286 25.0523
1185 3 5.38109 12.462 24.9976
2170 3 5.4662 14.2876 23.3258
2169 2 3.61792 12.7609 23.2368
2168 1 3.58544 14.3599 25.0011
2167 1 7.18608 12.253 23.1968
1680 1 10.7377 14.2276 24.8895
2171 2 10.6901 12.5684 23.0743
2682 1 8.80195 14.1798 23.0336
2681 1 9.05859 12.3433 24.9606
114 3 14.1372 14.1757 24.8495
1681 1 12.4352 12.4017 24.9628
2684 1 14.3613 12.4758 23.3286
2683 1 12.5149 14.2275 23.136
557 1 17.7983 12.6261 23.3023
2173 2 16.1744 14.445 23.0435
2685 2 16.098 12.631 24.8811
3183 1 17.9424 14.4219 24.9095
1684 2 1.91543 16.0185 25.0197
1683 2 2.04149 18.0193 23.244
2688 3 0.218749 16.0447 23.459
2687 2 0.0338218 17.8532 24.9149
2175 1 7.3205 17.6328 24.9933
2174 2 5.4129 17.8516 23.2559
2689 2 3.85065 17.9111 25.0366
3187 3 5.56215 16.0819 25.0307
3186 3 7.16509 16.0659 23.3226
3185 1 3.61042 16.1489 23.3951
1687 2 9.00649 17.8829 23.3218
1686 3 9.07183 16.0476 24.9534
2177 2 10.9537 17.7416 24.9648
3675 3 10.6916 15.9196 23.0869
2178 2 14.3386 17.6285 24.9074
2690 2 12.6457 17.6349 23.0545
3188 1 12.5362 16.0678 24.9081
3676 3 14.3706 15.9018 23.2546
1187 1 18.0838 16.1942 23.0559
1186 1 17.9908 17.7208 25.0478
1689 3 16.2106 15.9674 24.9188
3189 1 16.0948 17.795 23.304
1188 3 0.283723 -0.00504673 28.6
2180 3 1.92878 1.9006 28.5287
2668 2 2.04337 -0.0635243 26.6944
3657 2 0.172318 1.81005 26.894
559 2 7.26121 0.24361 28.3955
94 3 7.28926 1.93278 26.818
1189 2 3.53088 0.0638498 28.4325
1666 1 5.56188 0.183081 26.5998
2181 1 5.34486 2.01193 28.4819
2669 1 3.67734 1.81418 26.5352
560 1 10.8116 0.238805 28.5816
95 3 9.10461 0.0584438 26.7955
2182 3 8.93687 1.92585 28.6882
2672 3 10.6486 1.68918 26.9157
538 1 14.1969 1.77741 26.7513
1667 1 12.4594 0.250486 26.7612
2184 3 12.5062 1.88434 28.5209
2183 3 14.3376 0.0080766 28.5287
2159 3 17.8497 1.82778 26.7386
3193 1 15.9914 1.96572 28.4546
3679 2 17.7769 0.0984232 28.601
3664 1 16.13 0.119026 26.7394
1168 2 1.80873 3.70787 26.6822
1669 3 1.96762 7.15671 26.7649
2186 2 0.0151031 7.21392 28.5732
2185 3 0.0611574 3.72884 28.4236
2674 2 0.0317781 5.38247 26.7292
3194 2 1.8397 5.33537 28.3163
544 3 3.75869 5.21081 26.6821
563 1 7.1965 7.33007 28.5727
1691 1 7.24357 3.71363 28.4172
1690 1 3.7465 3.66104 28.5172
2676 3 7.28919 5.51763 26.6698
3196 3 3.46433 7.16359 28.4896
3195 3 5.49507 5.36704 28.4915
3176 3 5.59577 3.66424 26.6315
3174 1 5.37084 7.18077 26.5851
545 2 10.9105 5.51858 26.8539
1171 2 8.93595 3.58826 26.842
1169 2 8.99218 7.4714 26.8507
2694 1 10.7774 3.51326 28.4887
3197 1 9.13556 5.56048 28.2975
3681 2 10.8249 7.26572 28.5514
104 1 12.3459 3.56475 26.681
103 3 14.2024 5.25856 26.8157
2695 1 14.2578 3.64731 28.529
3178 3 12.5 7.11054 26.7949
3684 1 14.3172 7.23307 28.3676
3683 3 12.4462 5.38581 28.5973
622 1 17.975 3.57258 28.6365
1004 2 17.8112 7.13169 28.5344
1174 2 16.1516 7.22067 26.7881
1173 3 17.7339 5.4082 26.7243
3180 3 16.183 3.56709 26.6689
3685 1 16.0907 5.22268 28.4872
1673 1 0.00901235 9.08955 26.926
2161 2 1.93744 10.8685 26.791
2696 3 -0.013945 10.9042 28.5646
3687 3 1.847 9.20289 28.4225
122 3 7.10999 10.7167 28.4602