ITEM: TIMESTEP
5000
ITEM: NUMBER OF ATOMS
4000
ITEM: BOX BOUNDS pp pp pp
6.7389408737959400e-02 3.5666670591261763e+01
6.7389408737959400e-02 3.5666670591261763e+01
6.7389408737959400e-02 3.5666670591261763e+01
ITEM: ATOMS id type x y z
1 2 0.0748758 1.93742 1.90197
1563 2 0.174735 -0.0802558 0.280114
2064 1 1.78739 1.79461 0.105468
3561 1 1.75827 -0.236247 1.85633
564 3 3.32298 1.78699 1.82555
565 1 7.07745 1.90341 1.78957
1565 1 6.93148 -0.117176 0.03568
2065 1 3.78927 0.111229 0.157868
3061 2 5.31231 1.90975 0.0631446
3562 2 5.32285 0.0825399 1.87132
566 3 10.6205 1.83723 1.77081
1070 3 10.8769 0.246055 -0.0896296
3063 3 8.77419 0.123475 1.84968
3062 1 8.9151 1.91357 -0.00593913
567 3 14.1772 1.7128 1.89029
2566 3 14.1803 0.0406206 -0.0768803
3064 2 12.5106 1.82083 0.0222943
3563 3 12.5108 0.0490251 1.87013
2 2 17.7743 0.185687 0.15719
3 3 16.1392 -0.157721 1.81183
3066 2 17.5677 1.92798 1.63993
3065 1 15.9343 1.87031 -0.0569692
4 2 1.94593 5.41289 0.0408279
5 2 1.73667 3.69619 1.90288
6 1 1.89814 6.97993 1.83264
1071 2 0.0986662 5.24122 1.74112
3067 2 0.0928635 3.84589 -0.0668595
3565 1 0.0229837 7.2165 -0.0293687
7 2 5.43716 5.32419 0.208108
8 2 3.65493 7.09541 0.10003
1072 1 7.14129 5.24079 1.98492
1075 1 5.24814 7.05236 1.92506
1074 1 3.63071 5.26269 2.02575
1567 1 7.07901 6.99835 0.159812
2570 1 7.04246 3.6175 -0.125818
2569 3 3.56092 3.56369 0.11606
3569 3 5.44558 3.65035 1.90995
9 3 8.82584 5.4486 0.147583
10 2 8.86826 3.54982 1.70701
1077 1 10.5064 7.21551 0.05692
1076 3 10.6308 5.22931 1.74745
1568 3 8.82475 7.02941 1.90693
3068 1 10.7868 3.48289 -0.0679448
11 1 12.4223 5.31604 0.216592
12 1 14.2508 3.5723 0.151786
570 1 12.5305 3.55098 1.76181
1571 1 14.4331 7.15441 0.140517
1570 3 14.1455 5.53421 1.85929
1569 3 12.3281 7.37818 1.73713
572 1 15.8072 3.72878 1.76673
1081 1 16.222 7.17873 1.94951
1079 3 17.7666 5.2862 1.76344
1078 2 16.0246 5.49728 0.21752
1573 3 17.8479 3.65081 0.0696641
2070 2 17.7025 7.1326 0.173717
575 2 1.86137 10.6406 1.88805
1082 2 1.95233 9.13324 0.203987
1574 2 0.173735 8.86517 1.73403
3070 1 0.0728477 10.8076 0.228844
576 3 3.74427 10.8156 0.0746001
1085 3 5.32327 8.8335 0.101955
1083 3 5.36352 10.6022 1.93157
1577 3 6.98528 10.5157 0.00281875
1576 3 7.05441 8.87996 1.90048
1575 1 3.52601 8.86483 1.82599
14 3 10.5318 10.643 0.0930541
1087 2 8.89016 10.7875 1.83437
1086 2 8.71326 8.81419 0.196583
2071 3 10.437 8.88701 1.91877
580 2 12.5216 10.678 1.70002
1088 1 14.4149 10.5517 0.0311957
2073 3 12.4334 9.03688 0.0399677
2074 2 14.3165 8.73992 1.77952
15 3 17.7821 9.00145 1.83073
1581 3 16.068 10.659 1.8424
2076 3 17.9586 10.7237 0.0388775
2075 2 16.0285 8.94832 0.106418
2079 3 1.99973 12.4643 0.387399
2078 3 1.9463 14.2937 2.07576
2077 1 0.1569 12.5126 1.91369
2572 1 0.0609473 14.1682 0.250167
2082 3 5.33074 14.2865 1.77323
2081 1 3.68946 12.4895 2.08267
2080 3 5.6199 12.6124 0.0449296
2576 1 7.18334 14.2498 0.0253001
2575 2 7.07617 12.4598 1.82957
3071 1 3.55184 14.4239 0.254981
1583 2 8.88146 14.6255 1.72998
2084 1 10.7569 14.2104 -0.0698018
2579 1 10.746 12.4809 1.86177
3073 1 8.92608 12.4065 0.160454
2085 2 12.5147 14.3747 1.86591
2580 2 14.3845 12.4563 1.69359
3074 1 12.3945 12.6158 0.31322
3574 3 14.2058 14.177 0.0390144
581 1 17.8938 12.4077 1.96655
1089 1 17.9623 14.3233 0.277463
2583 2 16.1518 14.1373 1.64
3075 2 16.3298 12.543 0.0581042
16 1 -0.0036039 17.8343 0.267146
2086 1 1.74463 17.605 2.16634
2584 1 -0.169796 16.006 1.92916
3076 3 1.72134 16.1247 0.0687197
17 2 5.37519 15.9924 -0.00569346
1090 3 3.66937 17.8411 0.135089
2585 1 7.09485 17.9579 -0.0846694
3079 2 5.3796 17.9077 1.70134
3078 3 7.17274 16.146 1.76076
3077 1 3.64215 16.074 1.70512
18 1 8.96866 16.3318 -0.0574361
1585 3 10.937 17.8939 0.0182688
3080 3 10.7104 16.1731 1.90298
3578 3 8.8926 17.8984 1.68169
19 1 12.4853 15.9375 0.159169
2088 1 14.5644 17.8938 0.147603
3081 1 14.3763 15.9791 1.58559
3581 3 12.6371 17.7371 1.87909
20 2 16.1529 15.9217 -0.0567853
1586 1 17.7401 16.0352 1.94967
3083 2 16.0893 17.699 1.82935
3082 2 17.9033 17.7278 0.237559
584 3 1.65624 1.82245 7.22119
1564 2 -0.0198586 0.219874 3.5628
2588 3 1.55089 0.0224767 5.2729
2563 3 1.61984 1.94106 3.7404
3084 1 0.187357 -0.2181 7.21466
3583 3 -0.208486 1.95442 5.4804
22 1 5.5649 2.06969 7.14489
1069 2 3.66841 0.0547873 3.70123
1566 3 7.08139 0.00436871 3.75006
2089 3 5.39524 0.0408875 5.57319
2590 1 3.59387 0.0477154 7.13336
2564 2 5.45097 1.83434 3.66893
3085 1 7.25727 0.301585 7.38448
3585 2 3.47688 1.70232 5.30107
3584 1 7.17662 1.81984 5.28228
586 3 9.16967 1.88572 7.23831
2066 3 10.6571 0.0204831 3.51393
2593 2 8.84009 0.184769 5.47912
2565 1 8.96816 1.95986 3.55194
3086 3 10.6913 0.0893817 7.10035
3586 2 10.7866 2.04172 5.33048
23 3 12.4688 1.8261 7.19616
24 2 14.3055 0.0243596 7.04538
25 3 14.2467 1.84906 5.45945
2568 3 14.2321 0.0274994 3.51289
2567 2 12.4178 1.73557 3.72879
3087 3 12.4778 0.0550343 5.29863
568 3 17.7907 -0.122392 3.65408
588 2 15.9096 1.79174 7.20795
1587 3 17.6379 -0.0404343 7.21199
3088 2 15.9016 -0.0330756 5.32547
3588 2 17.5489 1.75874 5.40417
3564 1 15.9849 2.11577 3.58905
27 1 2.13631 5.23609 7.29342
28 2 1.82301 7.11349 5.6836
589 1 0.0916041 5.53799 5.22255
2067 2 -0.0063704 3.80391 3.61778
3090 3 1.95214 3.55607 5.38942
3590 3 0.0654794 7.17813 7.31495
3589 2 0.05729 3.80952 7.13896
3567 2 0.121867 7.17809 3.5451
3566 1 1.82479 5.29566 3.64417
29 3 3.57956 3.32996 7.06065
593 2 3.72072 7.0955 7.13978
592 2 7.24243 5.41363 5.36384
591 3 7.06727 7.13749 7.29115
590 2 3.62534 5.47367 5.36084
1095 3 5.35978 5.18288 7.22438
1094 1 5.46456 7.08354 5.44074
1073 1 3.67683 7.15926 3.67556
2068 2 7.23328 7.032 3.7322
2069 3 3.66528 3.53478 3.57007
3593 1 5.26483 3.60033 5.41097
3592 2 7.19852 3.54119 7.03979
3570 3 5.37611 5.35668 3.57299
3568 3 7.27467 3.64046 3.83177
31 3 9.06361 3.56385 5.41958
569 2 10.5868 7.14891 3.73961
594 2 10.7524 5.27116 5.46956
1097 1 8.83888 5.48652 7.39491
1590 2 8.86759 7.08464 5.55479
1589 2 10.9112 7.09013 7.16659
3594 1 10.6662 3.56116 7.49859
3572 3 10.7326 3.5443 3.50962
3571 2 9.06629 5.21618 3.68317
33 1 12.406 3.79246 5.26631
35 2 14.1843 3.5196 7.332
571 2 12.3072 5.53459 3.47015
595 3 14.3262 7.25404 7.01874
1100 1 14.1377 5.37422 5.34915
1099 2 12.5399 5.25111 7.45884
1592 2 12.5012 7.23409 5.46387
1572 1 14.155 7.12781 3.49336
3069 2 14.2536 3.97677 3.57771
573 2 16.1804 5.32579 3.83923
1080 1 17.7403 3.66742 3.72855
1595 3 16.0208 7.2643 5.2803
1594 1 16.0642 5.39624 7.27843
2094 1 18.0379 7.14249 7.34775
2092 2 17.7168 3.59365 7.18215
2571 3 17.9495 7.20252 3.706
3092 1 18.003 5.56409 5.49182
3595 2 15.9402 3.76406 5.53459
13 1 0.0188144 10.593 3.82556
597 1 0.114665 10.8708 7.32382
596 3 2.00158 10.9183 5.45777
574 3 2.07094 8.81403 3.86566
1102 3 1.9245 9.08825 7.02761
1101 3 0.0965185 8.92959 5.65372
38 2 3.94951 10.7422 7.43183
578 2 3.59139 10.6021 3.6749
577 2 5.25628 8.82305 3.79956
1106 3 7.57984 10.7613 7.10523
1104 2 5.58908 10.7454 5.54019
1103 1 3.70052 9.20135 5.64268
1084 1 7.24928 10.5124 3.56534
1597 1 7.17689 8.9173 5.4939
1596 2 5.64927 9.00325 7.11464
39 1 10.7744 10.5292 7.1924
599 2 8.96862 10.5759 5.18406
579 1 10.6834 10.675 3.7126
1107 2 9.11055 8.9447 7.09397
1578 3 8.71846 8.88386 3.61133
2097 3 10.6804 8.9905 5.41605
1108 3 12.4107 10.7122 5.42754
1598 2 12.4502 9.02881 7.20977
1579 3 12.2449 8.89392 3.48907
2072 3 14.3495 10.8514 3.37222
2099 1 14.2586 10.6243 7.01738
2098 3 14.0025 9.05087 5.16236
1599 1 16.151 8.93937 7.09647
1580 2 16.125 9.01564 3.61437
2100 2 15.9856 10.658 5.24062
3093 3 17.7724 10.8341 7.01257
3597 2 17.9212 9.01897 5.3777
3573 1 17.9152 10.6983 3.67076
1110 3 0.193324 14.3321 7.24505
1582 2 1.82447 12.625 3.72419
2103 2 2.07375 12.4823 7.40868
2102 1 1.93703 14.1715 5.42993
2101 2 0.0109352 12.375 5.43736
2573 3 0.076299 14.286 3.71771
1112 2 7.29749 14.4461 7.34826
1600 1 5.75167 12.657 7.07498
2104 2 5.55884 14.4043 5.34623
2083 3 3.77724 14.4432 3.74279
2601 1 7.47958 12.5618 5.32828
2600 1 3.89137 12.6577 5.57173
2599 3 3.68493 14.3128 7.30884
2577 1 7.28991 14.3565 3.4
2574 1 5.55315 12.61 3.77951
2604 2 8.91651 14.4691 5.27557
2603 3 10.8994 14.488 7.15984
2602 2 10.6143 12.6382 5.23331
2578 2 8.94817 12.5979 3.3735
3097 3 9.09574 12.6143 6.95051
3072 1 10.6419 14.2109 3.52867
602 2 14.4462 14.2073 7.33624
1603 2 12.5318 12.6103 7.12239
2605 2 14.2888 12.5335 5.36341
2581 1 12.777 12.6246 3.42812
3098 1 12.6218 14.2964 5.34652
3575 1 14.2861 14.397 3.57827
1114 2 17.9611 12.5969 5.4972
1584 2 17.8997 14.3619 3.58488
2582 1 16.094 12.6349 3.66461
3100 1 16.2538 14.4325 5.34926
3099 3 16.0591 12.4055 6.91889
3599 2 17.9533 14.2959 7.12598
582 1 -0.051137 17.8094 3.63739
1605 2 1.74943 17.8097 5.36703
1604 1 1.82755 16.004 6.95521
3104 2 0.0367079 16.1121 5.28723
3103 2 0.0391543 17.9438 7.24402
3576 1 1.83393 15.9964 3.73453
2087 1 3.70346 17.7456 3.6863
2607 2 5.36037 17.862 5.44852
2586 3 6.93973 17.9273 3.62616
3107 2 7.20225 17.93 7.16275
3106 3 5.55067 16.0012 7.51469
3105 2 3.83645 17.7729 7.28177
3602 2 3.76702 16.1797 5.33672
3601 1 7.06325 15.9957 5.41443
3577 1 5.40947 16.0468 3.4808
1091 2 10.8911 17.8525 3.54166
2107 1 9.12707 16.1991 6.96008
2608 3 9.04274 18.0165 5.46962
3109 1 10.7761 17.8822 7.22124
3603 1 10.8894 16.2929 5.34688
3579 3 8.93763 16.2963 3.71861
41 1 14.3827 16.297 5.53775
2610 3 12.5968 18.0334 5.28105
2609 2 14.4236 17.9742 7.21541
2587 2 14.372 17.8345 3.42196
3604 3 12.7244 16.1731 7.25714
3580 1 12.6713 16.0918 3.55086
583 2 15.8706 15.9282 3.50487
1606 2 18.0493 17.8124 7.07471
2109 2 16.0934 15.9691 7.16246
3112 1 16.0166 17.8235 5.27848
3110 3 17.8311 16.0979 5.41889
3582 3 17.7986 17.859 3.4891
21 3 0.0332812 1.94075 9.08535
604 2 0.355942 0.123514 10.9601
2110 2 1.82728 1.95918 10.835
2589 2 2.0138 0.0724802 9.02255
585 2 7.01292 1.8801 8.84444
1092 3 5.42736 0.0747636 8.78187
1608 1 7.15025 -0.059869 10.6925
1607 2 3.73005 0.1551 10.7523
2111 3 5.50649 1.90034 10.6779
2591 3 3.72528 1.84508 8.81465
1116 1 10.7246 0.144902 11.0614
2612 2 8.73162 1.61028 10.8919
2592 1 10.4629 1.78867 9.17092
3587 2 9.08611 0.169727 8.98544
587 2 14.4471 1.77472 9.15124
1609 2 14.2509 -0.0256001 10.7082
2090 1 12.5315 0.0917307 8.84799
2613 3 12.5247 1.80452 10.7353
26 2 16.0522 -0.0236865 9.07908
2594 2 18.0759 1.64647 8.93874
3116 2 16.0057 1.81082 10.6869
3115 3 17.8571 0.116113 10.9768
1093 1 1.85489 7.25255 8.9638
2091 3 1.82321 3.62816 9.08616
2615 3 0.180046 3.80684 10.7823
3118 1 -0.0637642 7.43277 10.6808
3117 3 1.71248 5.62128 10.6231
3089 1 0.0122673 5.36334 8.96465
30 3 5.44715 3.68653 9.18813
45 2 7.23529 7.30881 10.8104
1096 2 3.63096 5.41732 8.96031
2112 1 7.03983 3.82008 10.7969
2616 3 3.56395 3.77833 10.8316
3091 2 7.28445 5.13875 8.93408
3608 3 3.42506 7.29283 10.7353
3607 3 5.36136 5.63056 10.9867
3591 3 5.4231 7.17406 9.15
46 3 10.8741 7.08111 10.7475
1098 3 10.6523 5.47917 9.09868
1591 1 8.85315 3.45899 9.08567
1588 1 8.84633 7.25449 8.99311
2113 3 10.6193 3.58514 10.8008
3609 3 8.79159 5.4659 10.6612
32 1 12.6754 7.15183 9.00851
34 1 12.6919 3.51176 9.07828
36 3 14.314 5.17092 9.05149
609 2 14.2673 7.33005 10.9022
3119 2 14.3501 3.51543 10.7665
3611 2 12.525 5.26998 10.6807
1120 2 17.7791 3.59944 10.6818
1615 1 17.8514 7.20946 10.846
1593 2 17.6401 5.30206 9.01248
2093 3 15.7365 7.25836 9.03034
2595 3 15.9945 3.66586 8.99006
3612 1 16.1251 5.49238 10.8293
48 3 1.84768 9.06455 10.9431
2095 1 0.055481 9.13135 8.93142
2596 3 1.87347 10.5118 8.83578
3120 3 0.196924 10.7501 10.5442
37 1 3.55274 8.88502 8.86746
49 2 5.30659 8.92943 10.718
612 3 7.2523 10.4786 10.9275
1105 3 5.53072 10.5645 9.0108
2096 3 7.28587 8.8911 8.82405
3121 1 3.70014 10.7939 10.7485
613 1 9.09896 8.97168 10.6132
598 1 10.9085 8.99473 8.92262
3613 3 10.9375 10.6147 10.5976
3596 2 9.1745 10.9112 8.96971
50 3 14.426 10.8234 10.7074
614 3 12.4987 9.00541 10.7884
2598 2 12.4692 10.6411 8.79869
2597 3 14.2449 8.93733 8.99274
51 2 17.8823 10.8593 10.5684
600 3 17.7645 8.83603 9.04653
1122 1 16.1329 8.83797 10.8122
1109 2 16.2084 10.7251 8.78853
616 3 0.166572 14.0844 10.6719
601 1 -0.169722 12.5398 8.80815
1123 2 2.00702 12.5121 10.6762
3094 2 1.95967 14.2361 8.91554
1124 2 5.62161 12.3366 10.7648
1111 1 5.61859 14.4194 9.25542
1619 2 7.21734 14.146 10.9232
1618 1 3.48593 14.3498 10.6962
1601 1 7.25684 12.5073 9.01743
3095 2 4.13393 12.5138 9.05119
617 3 10.7452 14.3827 10.7174
1125 2 9.14768 12.5578 10.719
3096 1 8.95711 14.4164 9.12634
3598 3 11.0193 12.5397 8.94078
1126 1 14.3869 14.5656 10.7797
1113 3 12.5744 14.4498 9.05681
1620 1 12.77 12.5801 10.7238
1602 1 14.3419 12.4367 8.66336
1621 1 16.0476 12.6618 10.7032
3126 1 17.8417 14.264 10.7917
3102 1 16.3396 14.3361 8.75953
3101 1 17.8929 12.4493 8.8753
1623 3 -0.0090781 17.8035 10.7704
2119 3 1.83181 16.1878 10.5888
2606 3 1.78178 18.0687 8.77109
3600 1 0.173425 16.129 9.09005
40 1 7.22755 16.3065 9.17384
619 1 3.42147 17.9281 10.85
1127 2 7.27074 17.6729 11.109
2120 3 5.39255 16.1867 11.0205
2106 2 3.65651 16.0965 8.9219
2105 1 5.50681 17.8219 9.17754
1624 3 10.6646 17.8696 11.0026
2108 2 10.6596 16.0776 9.13135
2625 2 8.93064 16.1529 10.784
3108 2 9.28228 17.904 8.96583
603 1 14.4776 16.1777 8.89938
1115 3 12.3917 18.0751 9.17512
2626 3 12.6838 16.1848 10.8943
3620 1 14.5414 17.8711 10.5693
2628 3 16.2372 16.1761 10.6974
2611 2 17.9583 16.2042 8.82437
3127 1 17.8671 17.884 10.6137
3111 2 16.1337 17.8319 8.76397
42 3 0.00268826 2.12849 12.5112
2121 2 0.209232 0.195407 14.361
2629 3 1.69296 1.91918 14.305
3113 1 1.91172 0.0357198 12.4745
43 1 3.64779 1.91744 12.5983
605 1 7.11412 1.81754 12.717
1625 3 6.97314 0.0466149 14.4392
2123 1 3.66794 -0.0331109 14.1483
3128 2 5.48631 1.91188 14.3983
3605 3 5.40638 -0.0811985 12.4564
606 2 10.8342 1.98739 12.3826
1627 3 10.8107 -0.0147614 14.3625
3129 2 8.88566 1.78599 14.1683
3606 1 8.8643 -0.0433847 12.7564
1117 1 14.244 1.77396 12.3472
2632 1 14.1602 0.230514 14.4379
3131 2 12.4208 1.90343 14.2364
3114 3 12.5288 0.0356312 12.7121
44 3 15.8512 -0.0048438 12.7713
501 3 17.7933 0.177725 14.1029
2614 3 17.9898 2.08289 12.3792
3132 2 16.0941 1.93113 14.0976
607 1 1.80356 3.62994 12.4875
1119 3 1.83223 7.40262 12.606
1118 3 0.0796236 5.57706 12.5606
2634 3 0.102845 7.29673 14.2933
2633 3 0.208295 3.81324 14.2745
3624 1 1.76974 5.56082 14.4359
60 3 7.20666 7.15248 14.444
608 1 5.30599 3.87993 12.4041
1612 3 7.12475 5.53066 12.6503
1611 2 5.42346 7.28054 12.57
1610 2 3.4549 5.57736 12.7022
2128 3 7.23242 3.63613 14.2057
2126 3 3.51518 3.73659 14.215
3136 2 3.58413 7.30524 14.3383
3626 2 5.28974 5.46866 14.2839
1613 1 10.7544 5.60071 12.5239
2114 1 8.91256 7.25529 12.5872
3137 2 10.7007 3.76351 14.2675
3629 1 9.15725 5.57899 14.3608
3628 2 10.7943 7.19526 14.4447
3610 1 8.87276 3.78812 12.3811
610 3 12.6443 3.81103 12.5141
1614 3 14.231 5.3825 12.3618
2617 2 12.4576 7.32859 12.5836
3138 2 14.2262 3.44511 14.2794
3631 3 14.3883 7.05724 14.3196
3630 2 12.6373 5.31522 14.3109
47 2 17.6747 5.39232 12.4843
65 2 16.3186 5.28811 14.2252
1138 3 17.9459 3.59363 14.3497
1121 1 16.073 3.47485 12.5258
2618 2 16.0865 7.18598 12.5961
3140 3 17.8358 7.31901 14.1777
67 1 1.82102 9.30752 14.0792
611 2 1.96193 10.8442 12.4152
2115 2 0.092153 9.08134 12.4058
2636 1 -0.0703808 10.6342 14.2501
69 1 7.34309 10.7295 14.4002
70 3 5.43208 9.10943 14.3586
1616 1 5.59435 10.5682 12.4757
2116 3 3.66388 9.02469 12.4367
2619 1 7.37961 8.76846 12.6997
3633 3 3.75996 10.7902 14.3503
71 2 9.02798 8.86862 14.3577
2117 1 9.25652 10.8891 12.4005
2620 3 10.7108 8.98024 12.3511
3141 1 10.6717 10.6871 14.188
510 1 12.5511 8.8254 14.3548
1617 1 12.3336 10.8449 12.526
3122 3 14.2964 9.08986 12.4587
3635 3 14.2121 10.8132 14.1673
511 1 15.9573 9.29331 14.3964
615 3 17.7478 9.05355 12.4853
1639 1 17.9108 10.7419 14.4173
2118 3 16.0622 10.7536 12.5416
513 2 -0.0820206 14.2141 14.1945
514 1 1.73391 12.5642 14.0159
2621 3 -0.065457 12.353 12.4656
3123 3 1.84125 14.1924 12.5968
72 1 7.26671 14.3177 14.408
515 1 5.47658 12.4452 14.471
516 1 3.43987 14.218 14.4224
3125 3 7.37349 12.4055 12.665
3124 2 3.7603 12.5149 12.4424
3614 3 5.46751 14.0969 12.6846
73 3 10.7781 14.4505 14.2418
1145 1 9.21537 12.4522 14.3391
3616 1 10.7642 12.694 12.3666
3615 3 8.85252 14.2861 12.6605
1147 3 12.3802 12.4962 14.3059
1146 1 14.3972 14.4699 14.4348
2622 1 12.6211 14.2996 12.6043
3617 3 14.4601 12.7616 12.5017
1149 2 16.0509 12.657 14.2907
1622 3 17.9201 12.369 12.5431
3146 2 17.7868 14.4246 14.1984
3618 2 16.2496 14.4805 12.5004
52 3 0.043898 16.0261 12.3651
518 3 -0.0777611 17.8188 14.2388
1150 2 1.89801 15.877 14.2626
2623 2 1.76309 17.7824 12.5001
53 3 3.41464 16.0248 12.4673
618 1 7.25896 15.9342 12.5987
1151 1 3.62375 17.8389 14.2265
1642 3 5.14214 15.8854 14.2455
2142 1 7.25091 17.7939 14.2605
2624 2 5.46449 17.903 12.6405
54 2 10.9433 16.0766 12.5659
1643 2 8.9577 16.0162 14.3134
2649 1 10.6938 17.7661 14.5333
3619 2 8.98033 17.8135 12.842
55 3 12.5209 17.8871 12.5123
620 2 14.4777 16.0587 12.4937
1646 2 12.5106 16.1015 14.4223
1644 2 14.2669 18.0404 14.2928
56 2 16.2419 17.9595 12.458
1647 2 16.1519 16.1176 14.3552
2627 1 17.959 16.1074 12.6524
3644 1 17.6725 18.0789 14.3487
57 2 1.73467 0.0788477 16.4086
621 3 0.141152 2.01182 16.1758
1128 1 0.0208875 0.262452 17.9601
2122 2 1.99947 2.12906 17.9886
58 2 5.42684 0.259591 16.1974
1132 1 7.39115 0.223119 17.8052
1131 2 7.10481 1.96464 16.0428
1130 3 3.68818 0.0863584 17.902
1129 2 3.46191 1.85607 16.1237
2630 2 5.46404 1.97524 17.8193
1133 1 10.7546 1.79861 16.0773
1626 1 10.7161 0.0234744 17.8845
2631 3 8.99974 2.00296 17.9236
3621 1 8.91172 0.0936891 16.1597
59 1 12.388 0.259719 15.9089
1134 3 14.231 1.9005 16.0302
2124 3 14.3228 -0.0010961 17.6696
3130 3 12.711 1.82405 17.7908
502 2 16.2463 0.0818722 16.129
3133 1 15.9582 1.8296 17.7593
3623 1 17.7053 0.00864393 18.0552
3622 3 17.7979 1.9204 16.0776
503 3 1.84066 3.64608 15.9556
504 2 1.79888 7.27909 16.1407
1628 2 -0.0154539 5.59216 16.0691
2125 3 0.00448619 3.86551 17.7286
3134 2 0.138878 7.25893 17.8133
3625 3 1.90786 5.49182 17.7183
61 2 5.44652 3.82925 15.9054
505 1 3.64481 7.27873 17.8968
1135 2 7.17799 7.32198 17.8583
1631 1 5.40127 7.26097 16.0583
1630 1 3.6141 5.55207 15.9764
1629 2 7.0017 5.5068 16.0717
2127 3 3.72499 3.82529 17.9146
3135 2 7.01141 3.66894 17.6329
3627 1 5.34972 5.57576 17.9841
62 2 8.94819 5.61068 17.5903
63 1 10.9013 7.19597 17.7894
506 3 8.93875 3.68826 15.949
1632 3 10.719 5.17586 15.9931
2129 1 9.02217 7.2611 16.0577
2635 1 10.7634 3.4979 17.7573
64 2 12.4823 5.30214 17.8688
1137 2 14.2761 7.26441 17.8841
1136 1 12.4139 3.62176 15.9949
2131 2 14.3002 5.12098 15.9265
2130 2 12.5968 7.0786 16.1702
3139 2 14.2975 3.67402 17.8087
66 1 17.8425 5.36221 16.0791
507 3 15.9376 5.33191 17.7267
1140 1 17.8548 3.66883 17.8662
1139 3 16.1338 3.60794 16.0644
1634 3 17.8437 7.16576 17.6798
1633 3 15.8736 7.2333 15.9847
508 2 1.8103 9.05085 17.7621
1141 3 1.68691 11.028 15.906
2132 1 0.00363686 9.07345 16.0345
3632 2 0.0478681 10.4811 17.7365
68 3 3.66379 10.678 17.8137
509 3 7.27715 10.7931 18.0451
1142 3 5.5175 8.92361 17.8776
1635 2 5.58405 10.6422 16.1133
2134 3 7.17392 8.97423 16.145
2133 1 3.31313 9.01246 16.0127
1143 3 9.16626 9.15034 17.8361
1636 1 9.07651 10.8384 16.1896
2637 2 10.7774 8.92851 16.1089
3634 1 10.8997 10.8014 17.8929
1144 2 12.4474 10.6876 16.0775
1638 2 12.5741 9.01879 17.9085
1637 1 14.253 10.8034 17.7276
2638 1 14.1633 8.98343 15.9365
512 2 17.677 8.95003 15.9902
1640 3 15.9065 9.0681 17.7401
2135 1 16.0906 10.8563 15.8986
2639 3 17.8585 10.5022 17.8292
2137 1 0.122 14.3104 17.9354
2136 1 1.65026 12.6739 17.8792
2641 1 1.64591 14.1849 15.9828
2640 1 -0.19447 12.3736 16.196
2140 3 7.34711 14.2763 17.871
2139 3 3.51563 14.3258 18.2258
2138 2 5.27066 12.4347 17.9249
2643 2 5.24911 14.3038 16.0656
2642 3 3.57697 12.5162 16.1598
3142 1 7.17353 12.5728 16.1817
2141 3 9.13092 14.298 16.2065
2645 1 9.0801 12.4344 17.8804
2644 1 10.9247 14.2942 17.8478
3143 2 11.0166 12.4889 16.251
2647 2 12.4655 14.4903 16.0843
2646 2 12.5636 12.4378 17.896
3145 1 14.5115 14.3309 17.8317
3144 1 14.0723 12.4433 15.9002
517 3 17.7781 14.2637 17.8536
1148 1 17.836 12.5865 15.946
3148 2 16.0524 14.1941 16.1241
3147 3 16.0489 12.4616 17.8386
2648 2 1.77555 17.79 15.9077
3150 1 1.71162 16.1106 17.8171
3149 3 0.0877678 16.0091 15.9451
3636 3 -0.086391 17.8859 17.7969
1641 3 3.40671 17.842 17.8766
2143 3 7.27894 18.0218 17.8172
3640 2 5.66701 17.7476 16.1571
3639 1 7.20236 15.9042 16.2885
3638 2 5.35357 16.0267 17.9725
3637 1 3.8138 16.0336 16.1918
74 3 8.99557 17.7303 16.1194
519 1 10.8614 17.9194 17.8234
3642 2 9.20281 16.0882 17.9327
3641 2 10.8411 16.0659 16.1142
75 2 12.6893 16.0209 17.9296
76 1 12.68 17.8031 16.063
1645 1 14.3496 17.9567 18.0511
3643 3 14.4829 16.0517 16.3608
77 2 16.1992 15.9697 18.0678
2144 3 17.8061 15.8867 16.0263
2650 1 17.995 17.9051 17.7758
3645 3 15.8285 18.0874 16.2038
520 2 0.0837702 0.122959 21.4304
78 1 0.00364535 2.00566 19.6512
2145 1 1.64314 1.97917 21.3358
3151 3 1.97975 0.139738 19.7269
521 1 3.8002 0.257631 21.4072
80 2 3.62624 2.03331 19.6717
79 2 7.22457 1.91886 19.6928
2147 1 5.47116 1.95618 21.4067
2146 2 7.17476 -0.0164502 21.2835
2651 3 5.41977 0.0788032 19.5792
81 2 10.7884 1.83969 19.5269
1648 1 10.7094 -0.215526 21.4438
2652 1 9.19076 1.97427 21.2898
3152 1 9.0268 0.0888492 19.4475
522 2 14.3248 1.90266 19.6767
1649 2 14.2999 -0.0269534 21.3908
2653 3 12.3225 1.67429 21.4693
3646 1 12.4848 0.077947 19.604
82 3 17.892 -0.0643449 21.4005
2654 3 17.9115 1.82506 19.772
3153 3 16.1723 1.72361 21.4413
3647 1 16.1219 -0.195445 19.6854
523 2 0.0159575 5.41018 19.5305
84 3 1.67334 7.13296 19.6557
83 3 0.0285287 7.29387 21.3816
1650 3 -0.0401459 3.8126 21.5006
3155 3 1.6526 5.48061 21.2693
3154 1 1.80744 3.72719 19.7303
524 3 3.62117 5.43646 19.7502
525 1 7.2504 5.26816 19.2338
526 3 3.48331 7.21184 21.3845
1153 2 7.33496 7.31165 21.1586
1152 1 5.40378 7.2588 19.517
2655 1 3.74973 3.50648 21.5254
3156 3 7.21453 3.73608 21.5965
3649 2 5.44002 3.65397 19.5547
3648 1 5.55014 5.37113 21.3727
86 2 10.8724 7.15164 21.3801
85 2 8.99882 3.67516 19.5793
1155 1 10.5586 5.30711 19.5101
1154 1 9.18967 7.18402 19.4061
2656 2 10.6725 3.549 21.277
3650 3 8.94315 5.47586 21.2445
527 1 12.411 7.11115 19.496
88 2 12.3914 5.24781 21.1985
87 3 12.6313 3.56895 19.5491
1156 1 14.2856 5.35962 19.4224
2148 3 14.2842 7.08089 21.3752
2657 1 14.3891 3.50099 21.3486
528 1 17.821 3.66451 21.81
89 3 16.023 5.26537 21.4394
1157 2 16.1013 6.97922 19.6098
3158 1 17.9203 5.32347 19.7408
3157 3 18.0799 7.30083 21.525
3651 3 16.0853 3.68414 19.6782
529 1 1.87398 9.03168 21.4515
530 3 1.64741 10.7945 19.7059
1158 1 -0.0309004 8.8844 19.5634
3652 1 0.184685 10.6442 21.4936
531 1 5.29024 8.88485 21.526
532 1 5.30216 10.8116 19.6826
533 1 7.19435 10.6657 21.1257
1159 3 3.64527 8.95223 19.5339
1651 3 7.26199 8.89341 19.6232
3653 1 3.57685 10.6208 21.3801
90 3 9.02356 10.7157 19.6721
1161 1 9.11664 8.97011 21.4494
1160 3 10.7854 10.6735 21.498
1652 3 10.6484 8.92466 19.7413
534 1 12.6136 10.8578 19.7306
1162 2 12.6079 8.79283 21.2134
1654 3 14.4538 10.6843 21.3708
1653 1 14.3683 8.77143 19.6101
1656 2 15.9121 10.6799 19.5557
1655 3 16.1839 8.91879 21.4018
3159 1 18.0971 10.8321 21.305
3654 3 17.7523 8.82162 19.5321
1660 2 0.191715 14.294 21.5187
1659 1 1.81081 14.5307 19.8538
1658 2 1.72897 12.4883 21.2421
1657 3 0.0743796 12.5436 19.5663
1163 3 5.45835 14.2367 19.7089
1661 3 3.76201 14.3128 21.4179
2151 3 7.37215 12.4916 19.6546
2150 2 5.7615 12.4032 21.3803
2149 2 3.58081 12.458 19.6378
3160 1 7.41312 14.4772 21.2977
1662 3 9.07244 14.4657 19.5367
2153 3 9.18275 12.6098 21.3681
2152 3 10.6962 12.5278 19.5197
2658 1 10.8741 14.2471 21.5285
2155 3 14.2723 12.5018 19.7771
2154 1 12.5143 14.2965 19.57
2660 1 14.1316 14.2283 21.5493
2659 3 12.7091 12.3409 21.6458
535 1 17.6524 12.3677 19.6212
1164 1 17.8016 14.0044 21.5584
2156 2 16.3183 14.1967 19.5939
2661 3 16.1228 12.3513 21.4694
1165 2 -0.0349394 17.7323 21.4269
2157 2 1.77946 17.903 19.7298
2662 2 0.0128159 15.987 19.7815
3161 2 1.83692 16.057 21.5678
1664 3 7.09253 17.7386 21.27
1663 3 3.55414 17.929 21.4105
2664 2 3.63424 16.2327 19.7014
2663 2 7.26345 15.9814 19.4898
3163 3 5.63459 16.09 21.6035
3162 2 5.31151 17.8787 19.5628
536 1 10.7589 17.8723 21.5369
2665 3 10.8599 16.115 19.6693
3164 3 8.94633 17.8986 19.6989
3655 1 9.167 16.2504 21.3619
2666 1 12.7294 17.9734 19.5119
3166 3 14.545 15.9969 19.7044
3165 2 14.092 17.7553 21.4207
3656 3 12.5442 16.0461 21.3272
92 3 16.1108 16.0927 21.5677
91 3 17.9811 17.8755 21.4044
1166 2 17.876 16.2105 19.7423
3167 3 15.9963 17.9563 19.7768
93 2 1.90709 1.95553 24.865
1665 2 1.79917 0.0841356 23.1326
2667 1 0.152996 0.0208627 24.922
3168 2 -0.137577 1.89584 23.2132
2158 2 5.29697 -0.0329292 23.2635
2670 1 3.67972 0.201301 25.2018
3170 3 7.30643 1.84468 23.1713
3169 3 3.56126 1.76659 23.1653
3659 1 7.0871 0.103368 24.8776
3658 1 5.43734 1.82725 25.1642
537 2 8.86928 1.94712 24.9109
2671 3 8.81754 0.0330334 23.1893
3171 2 10.6992 0.221907 24.9325
3660 1 10.5464 1.87197 23.1875
2673 2 12.4665 -0.0296476 23.2376
3663 1 14.2967 1.64766 22.8639
3662 2 14.2454 -0.0172609 24.929
3661 1 12.4777 1.74046 24.8281
539 2 15.9609 1.76944 24.9504
1167 3 17.7059 -0.0510059 24.9504
1668 2 18.1501 1.75735 23.1489
2160 2 16.1938 -0.0470496 23.2616
99 1 1.7846 5.39001 25.0447
98 3 1.67336 7.32637 23.2233
97 3 0.204655 7.13202 25.0412
96 1 -0.134882 5.40465 23.4479
3173 1 1.55341 3.59354 23.1474
3172 1 0.0378717 3.71346 25
540 3 3.544 7.09679 24.8348
541 2 5.40108 7.1402 22.9637
542 2 7.1269 5.46531 23.1842
543 3 5.37683 5.53057 24.9546
101 2 7.16304 7.13538 25.0467
100 3 3.55836 5.37788 22.9644
2675 2 7.11283 3.60159 25.0653
3175 2 3.68469 3.67943 24.7529
3665 2 5.41879 3.64277 23.3153
546 2 8.7541 7.12032 23.1018
547 1 9.04495 5.40774 25.0932
102 1 10.6886 5.52005 23.0473
1170 2 10.7165 6.92712 25.1204
3177 1 10.9654 3.70344 24.972
3666 2 9.10583 3.75494 23.1721
548 1 14.3755 5.4039 23.0894
549 2 12.625 5.48635 25.0166
105 1 14.0382 3.42251 24.9344
1670 2 12.4519 6.97768 23.3294
3179 1 12.3498 3.53292 23.0319
3667 3 14.3233 7.0067 24.8953
1172 1 16.1416 5.28226 25.0029
1672 3 18.0624 3.54955 24.7151
1671 2 16.2249 7.08233 23.2451
2678 3 17.9262 7.00791 24.9659
2677 1 18.1845 5.45816 22.9913
3668 2 15.996 3.56546 23.2105
550 1 -0.0484687 9.04397 23.4462
106 2 2.03168 10.6437 23.2437
1175 2 1.9244 9.06087 25.0559
3669 1 0.135598 10.8494 24.999
108 3 5.46117 10.6389 23.1114
1180 3 6.98144 10.6577 25.0496
1178 3 7.08193 8.91986 23.1775
1177 1 3.68946 8.91987 23.2288
1176 2 5.27826 8.78662 25.0776
3670 3 3.76035 10.8199 24.9077
551 2 10.6503 10.4683 24.8899
552 3 9.05174 10.6887 23.2446
1181 1 8.85763 8.81139 24.9043
1674 3 10.7994 8.89839 23.187
1182 1 12.6981 10.6107 23.2687
1676 1 12.5785 8.6144 24.8673
1675 2 14.3141 8.83298 23.3135
2163 2 14.4422 10.4557 25.043
1183 3 16.0749 8.94386 24.9916
1677 2 16.2161 10.641 23.0983
2165 2 17.8708 10.6059 24.9388
3671 2 17.9248 9.07324 22.9774
555 1 0.333089 14.19 24.8751
1184 1 1.98033 14.3193 23.1353
1678 3 2.13456 12.6209 24.7601
2166 3 -0.0176528 12.5885 23.0845
113 2 7.41295 14.0722 25.1146
1185 3 5.58772 12.5357 24.8033
2170 3 5.68835 14.1003 23.0989
2169 1 3.82711 12.4778 22.8565
2168 3 3.78316 14.1298 24.8371
2167 1 7.32304 12.293 23.1087
1680 1 10.6771 14.3648 24.9715
2171 1 10.8832 12.377 23.3286
2682 1 8.83055 14.3056 23.1711
2681 3 9.1817 12.3342 24.9393
114 1 14.0114 14.3374 25.0157
1681 2 12.605 12.3177 24.9372
2684 2 14.3461 12.499 23.4548
2683 1 12.6335 14.2536 23.3409
557 1 17.8177 12.639 23.3459
2173 2 15.9385 14.2303 23.2394
2685 2 15.9975 12.6092 25.0085
3183 3 18.0344 14.3239 24.9795
1684 2 1.78077 16.1479 25.035
1683 3 1.99421 17.8583 23.3154
2688 3 0.233942 16.0532 23.2654
2687 3 0.177541 17.7235 24.9511
2175 3 7.26573 17.9154 25.1251
2174 3 5.26813 17.8284 23.126
2689 2 3.72611 17.9148 24.8512
3187 2 5.44173 16.1645 24.9362
3186 3 7.35544 16.1661 23.2578
3185 3 3.79758 15.8316 23.247
1687 1 8.78291 17.9241 23.1756
1686 2 8.91385 15.9812 25.0394
2177 1 10.4876 17.7008 25.0174
3675 1 10.6142 16.0171 23.1792
2178 2 14.2835 17.8156 25.0384
2690 1 12.6248 17.9532 23.1979
3188 2 12.2878 16.1551 24.9103
3676 2 14.0931 16.1693 23.2609
1187 1 17.7817 16.1643 23.3291
1186 3 17.7066 17.8524 24.92
1689 2 15.8943 16.1054 24.7684
3189 3 16.0425 17.9323 23.2274
1188 2 0.0633239 0.0216401 28.7846
2180 3 1.79435 1.76994 28.6191
2668 3 1.76053 0.216128 26.7013
3657 1 0.116879 1.77792 26.8456
559 2 7.27269 -0.0666502 28.5998
94 1 7.04792 1.98377 26.7
1189 2 3.55878 -0.0121479 28.575
1666 3 5.4504 -0.0231774 26.8278
2181 2 5.47008 1.87119 28.5405
2669 2 3.65899 1.80833 26.796
560 3 10.7699 -0.249919 28.5659
95 3 8.65908 0.146498 26.7094
2182 1 8.96539 1.62083 28.5179
2672 3 10.7442 1.77915 26.898
538 3 14.0873 1.82968 26.7022
1667 3 12.445 0.0586393 26.6353
2184 2 12.5174 1.86286 28.8432
2183 3 14.2924 0.153127 28.5619
2159 1 17.8978 1.80443 26.8339
3193 1 16.3524 1.95193 28.4205
3679 1 18.0006 -0.108629 28.5087
3664 3 15.9154 -0.0335099 26.8543
1168 3 2.00502 3.68295 26.6219
1669 3 1.6568 7.3064 26.8886
2186 2 0.139665 7.24246 28.657
2185 3 -0.0433666 3.36734 28.7161
2674 1 0.261525 5.50626 26.8358
3194 2 1.8312 5.37295 28.5539
544 2 3.5719 5.43566 26.5663
563 3 7.27233 7.32611 28.6476
1691 1 7.33039 3.63594 28.4538
1690 2 3.6563 3.57654 28.6676
2676 1 7.06817 5.33344 26.8412
3196 3 3.43157 7.26218 28.5674
3195 1 5.2282 5.52131 28.4677
3176 1 5.12954 3.71425 26.7154
3174 2 5.3052 7.19651 26.9284
545 2 10.6585 5.38368 26.778
1171 3 9.00099 3.63813 26.813
1169 3 8.93616 7.08985 26.8098
2694 2 10.8186 3.71556 28.6339
3197 2 8.92207 5.28714 28.5675
3681 2 10.8954 7.20871 28.5373
104 1 12.559 3.635 26.8141
103 1 14.3299 5.45676 26.8421
2695 3 14.2174 3.61068 28.4348
3178 1 12.5242 7.07177 26.8369
3684 1 14.4643 7.12511 28.6481
3683 2 12.5073 5.39229 28.6858
622 1 17.742 3.56031 28.7705
1004 2 17.8222 7.29054 28.5125
1174 1 16.2058 7.04353 26.8559
1173 1 18.0227 5.24618 26.8176
3180 1 16.0055 3.69959 26.6164
3685 3 16.1605 5.23847 28.5179
1673 1 -0.296282 9.24258 26.8112
2161 3 1.88336 10.7314 26.8076
2696 2 0.00728902 10.7767 28.6508