ITEM: TIMESTEP
5000
ITEM: NUMBER OF ATOMS
4000
ITEM: BOX BOUNDS pp pp pp
1.1949046576612332e-01 3.5614569534233667e+01
1.1949046576612332e-01 3.5614569534233667e+01
1.1949046576612332e-01 3.5614569534233667e+01
ITEM: ATOMS id type x y z
1 2 0.246278 1.81749 1.93063
1563 2 0.140677 0.196298 0.187699
2064 1 1.91485 1.86449 0.149645
3561 1 1.97759 0.203521 1.89859
564 2 3.76239 1.97707 1.91864
565 3 7.171 1.86969 1.91832
1565 2 7.27384 0.269402 0.196517
2065 3 3.7587 0.110466 0.151506
3061 1 5.49132 1.82876 0.0933259
3562 3 5.54912 0.173083 1.97032
566 3 10.824 1.93367 2.06851
1070 3 10.8343 0.187752 0.163196
3063 3 9.05718 0.194596 1.94739
3062 1 8.8639 1.8533 0.052816
567 2 14.406 1.98476 1.78084
2566 2 14.44 0.264878 0.182005
3064 2 12.6462 1.98737 0.125389
3563 3 12.5831 0.241513 1.73081
2 2 17.9096 0.148168 -0.0371446
3 3 15.9939 0.287645 1.97041
3066 2 17.8834 1.98267 1.81344
3065 3 16.2862 1.91036 0.0851221
4 2 1.8372 5.36132 0.055253
5 3 1.89231 3.70905 1.9884
6 2 1.93523 7.40779 1.74158
1071 3 0.345127 5.43012 1.83644
3067 3 0.145895 3.73456 0.198973
3565 1 0.115636 7.13631 0.0235482
7 3 5.64132 5.45896 0.239782
8 3 3.76888 7.12646 -0.00772585
1072 1 7.21476 5.4425 1.85442
1075 2 5.37995 7.21723 1.961
1074 3 3.73723 5.54127 1.79281
1567 1 7.34872 7.35019 0.116431
2570 1 7.29911 3.699 0.0697716
2569 1 3.85381 3.77739 0.119975
3569 3 5.50345 3.7397 1.86962
9 3 9.09106 5.29776 0.23841
10 1 9.00645 3.47067 1.93566
1077 1 10.8048 7.28798 0.0763961
1076 1 10.8999 5.31791 1.89802
1568 3 9.16861 7.41871 2.00688
3068 1 10.9346 3.53556 0.307698
11 2 12.504 5.62538 0.178922
12 3 14.2271 3.84353 0.131753
570 1 12.7374 3.55766 2.06301
1571 2 14.3369 7.17867 0.157552
1570 3 14.324 5.57541 2.01672
1569 3 12.491 7.30998 2.00352
572 1 16.1091 3.5523 1.8018
1081 2 16.0695 7.35986 2.05396
1079 3 17.8452 5.55878 2.07704
1078 2 16.0901 5.37023 0.121702
1573 2 17.8927 3.72586 0.0336527
2070 1 17.9367 7.36797 0.142429
575 3 1.89074 10.7118 1.81842
1082 3 1.92974 9.02476 0.0336743
1574 1 0.0250861 9.02423 1.80253
3070 3 0.139486 10.8153 0.082915
576 3 3.75336 10.9347 0.0660658
1085 2 5.44989 8.90555 0.251806
1083 2 5.38191 10.6827 2.00439
1577 3 7.13879 10.6425 0.298083
1576 2 7.30234 8.99629 1.88566
1575 2 3.74193 8.87479 1.85458
14 3 10.8443 10.8131 0.0315761
1087 1 8.9214 10.791 2.10255
1086 1 9.10718 9.04473 0.256489
2071 1 10.7206 9.27395 2.1418
580 3 12.6521 10.9702 1.89623
1088 1 14.458 10.9192 0.163012
2073 2 12.5098 8.90839 0.260083
2074 3 14.4778 8.92314 1.95488
15 2 17.7844 8.92073 1.98354
1581 3 16.0997 10.7045 1.91116
2076 2 17.8911 10.7654 0.171834
2075 3 16.055 9.07578 0.116743
2079 2 1.84382 12.4937 0.302215
2078 2 1.90658 14.2561 1.87559
2077 1 0.171579 12.4824 1.72613
2572 3 0.160715 14.2823 0.233173
2082 2 5.49249 14.2587 1.90904
2081 2 3.62963 12.5483 1.89436
2080 2 5.32668 12.6547 0.118496
2576 1 7.05367 14.3647 0.325054
2575 2 7.19259 12.3226 1.98954
3071 2 3.65651 14.2025 -0.061944
1583 3 8.95468 14.2136 1.80577
2084 3 10.7901 14.4154 0.148274
2579 3 10.7422 12.4638 1.83208
3073 1 8.93921 12.4801 0.182522
2085 3 12.7217 14.3468 1.80992
2580 3 14.3901 12.5342 1.92461
3074 3 12.6159 12.652 0.0317458
3574 1 14.4232 14.2596 0.114846
581 1 17.9576 12.5084 1.80158
1089 2 17.9621 14.212 0.0933924
2583 3 16.1712 14.444 1.90921
3075 3 16.1248 12.4731 0.0257818
16 3 0.217881 17.9057 -0.00124319
2086 3 1.8678 17.8012 1.92383
2584 1 0.192226 15.976 1.91788
3076 1 1.95658 16.0205 -0.0281048
17 1 5.36805 16.1673 0.213013
1090 1 3.64783 18.0103 0.0697918
2585 3 7.16085 17.9032 0.181262
3079 2 5.34063 17.8691 1.82917
3078 1 7.10343 16.1747 1.92502
3077 1 3.61997 16.0752 1.76806
18 1 8.82583 16.101 0.00435033
1585 2 10.6779 17.8705 0.0253259
3080 2 10.7233 16.1337 1.99827
3578 3 9.01472 17.6336 1.92352
19 3 12.5394 16.2112 0.228255
2088 2 14.1675 17.7808 0.237474
3081 1 14.1707 16.3093 1.97012
3581 2 12.4267 18.0396 1.93189
20 1 15.9518 16.127 0.142052
1586 2 18.0246 16.0988 1.84304
3083 3 16.0633 17.8005 1.86943
3082 2 17.9476 17.8258 0.0302391
584 2 1.91257 1.71988 7.12016
1564 3 0.258178 0.149531 3.62007
2588 3 2.06458 0.0603894 5.41723
2563 2 2.06912 1.90197 3.72116
3084 3 0.126049 -0.0201167 7.12873
3583 3 0.241128 1.9915 5.27728
22 1 5.55249 1.82415 7.22892
1069 1 3.6885 -0.00676866 3.50375
1566 2 7.26174 0.118406 3.77021
2089 1 5.50884 0.0727147 5.55046
2590 1 3.66222 0.0256723 7.29188
2564 1 5.57753 1.91329 3.66444
3085 2 7.3274 0.132463 7.31555
3585 3 3.86876 2.09409 5.43524
3584 1 7.30853 1.87934 5.35493
586 3 9.0449 1.95438 7.32326
2066 2 10.818 0.191418 3.76089
2593 1 8.97782 -0.154072 5.40582
2565 3 8.98582 1.96031 3.66559
3086 1 10.655 0.230843 7.20161
3586 1 10.8049 2.10541 5.40461
23 3 12.4432 1.87193 7.25834
24 3 14.3079 0.259115 7.32267
25 2 14.4365 1.92195 5.26726
2568 1 14.234 0.213565 3.60369
2567 1 12.6949 1.92271 3.56706
3087 3 12.5854 0.216777 5.54153
568 2 18.0089 0.311847 3.60336
588 1 16.1319 1.81929 7.22149
1587 3 17.8757 0.0546008 7.13314
3088 2 16.1695 0.241803 5.19664
3588 3 18.0053 1.8883 5.61257
3564 1 16.0755 1.94803 3.50537
27 3 1.91835 5.56852 7.32654
28 1 1.87403 7.09856 5.39168
589 1 0.212917 5.52775 5.45825
2067 3 0.0312797 3.852 3.69894
3090 3 1.98322 3.75131 5.31021
3590 1 0.022793 7.24557 7.20261
3589 2 0.0749829 3.71315 7.04953
3567 3 0.115948 7.19486 3.54266
3566 3 2.05586 5.4445 3.56091
29 2 3.69088 3.59691 7.25389
593 3 3.54274 7.33837 7.3129
592 2 7.1021 5.40949 5.67258
591 1 7.40552 7.21372 7.17377
590 3 3.78349 5.50733 5.42908
1095 3 5.43251 5.43996 7.34352
1094 3 5.34956 7.22817 5.54099
1073 2 3.66893 7.42657 3.74483
2068 3 7.24241 7.2034 3.70992
2069 2 3.84967 3.7264 3.66015
3593 2 5.53689 3.69368 5.61598
3592 2 7.22469 3.5754 7.28418
3570 1 5.41047 5.54275 3.69121
3568 2 7.18847 4.0468 3.63456
31 2 8.83625 3.69538 5.50486
569 1 10.9231 7.13944 3.79573
594 1 10.9202 5.40105 5.29043
1097 1 9.00332 5.44114 7.07732
1590 1 8.99615 7.18841 5.3784
1589 3 10.8056 7.30424 7.10185
3594 3 10.8884 3.71503 7.12154
3572 2 10.7629 3.78147 3.6796
3571 1 8.94881 5.42112 3.72577
33 2 12.5268 3.7175 5.36953
35 3 14.366 3.56458 7.05714
571 2 12.6571 5.49285 3.61533
595 3 14.3121 7.22025 7.21377
1100 2 14.3417 5.53037 5.52698
1099 3 12.5462 5.49026 7.17904
1592 2 12.5572 7.35693 5.39873
1572 1 14.2918 7.26424 3.85114
3069 1 14.4325 3.83506 3.60568
573 1 16.0037 5.7261 3.74166
1080 1 18.0226 3.69954 3.79945
1595 1 16.2637 7.24193 5.72135
1594 1 16.2409 5.42908 7.18044
2094 2 18.1489 7.22403 7.18534
2092 2 17.9721 3.5084 7.2503
2571 1 18.0223 7.19892 3.77932
3092 1 18.0845 5.45047 5.56092
3595 3 16.1946 3.78705 5.34241
13 2 0.194029 10.7983 3.64522
597 3 0.150869 10.6013 7.27158
596 3 1.80979 10.5848 5.60015
574 2 1.82732 8.97234 3.55432
1102 2 1.89123 8.82616 7.16252
1101 1 0.0700986 8.96057 5.4247
38 1 3.66029 10.6519 7.38364
578 1 3.60144 10.6692 3.59973
577 1 5.43935 8.9847 3.71821
1106 1 7.13801 10.7879 7.23683
1104 3 5.20536 10.8528 5.63945
1103 1 3.53106 8.80922 5.57093
1084 1 7.0595 10.8807 3.79089
1597 1 7.06325 9.06158 5.52886
1596 2 5.41688 8.99107 7.26286
39 3 10.8012 10.8354 7.37445
599 3 9.02658 10.7552 5.5218
579 1 10.8336 11.0554 3.80182
1107 3 8.98394 9.18938 7.21246
1578 1 9.11904 9.04363 3.84595
2097 1 10.75 9.17651 5.37206
1108 1 12.7793 10.7312 5.53526
1598 2 12.6412 9.08748 7.24817
1579 3 12.6118 9.09497 3.6815
2072 1 14.4168 10.8558 3.64645
2099 1 14.5706 10.8155 7.12723
2098 1 14.4356 9.00344 5.49782
1599 1 16.2496 9.01879 7.15452
1580 1 16.113 8.9618 3.88807
2100 2 16.1502 10.7637 5.42003
3093 3 18.0672 10.815 7.19877
3597 3 18.0008 9.01096 5.50608
3573 3 17.8816 10.9064 3.65483
1110 1 0.104773 14.1483 7.17322
1582 1 1.78962 12.4622 3.52429
2103 3 1.80499 12.5188 7.35373
2102 1 1.87795 14.2673 5.46079
2101 1 0.252458 12.5807 5.29472
2573 1 -0.073523 14.2675 3.62516
1112 3 7.15784 14.2272 7.25088
1600 3 5.40982 12.5159 7.25503
2104 1 5.47789 14.1063 5.45926
2083 2 3.6527 14.3196 3.61273
2601 2 7.11535 12.3662 5.50221
2600 3 3.52849 12.4615 5.56157
2599 3 3.5217 14.3588 7.23097
2577 1 7.227 14.2001 3.66086
2574 2 5.23263 12.4466 3.74578
2604 2 8.82738 14.4103 5.46329
2603 2 10.8141 14.3257 7.3273
2602 2 10.7772 12.7879 5.37337
2578 2 8.89268 12.4985 3.86015
3097 3 9.07353 12.5383 7.24995
3072 1 10.6437 14.2978 3.55418
602 2 14.4283 14.3382 7.25557
1603 2 12.6192 12.6159 7.27561
2605 3 14.411 12.4863 5.41475
2581 1 12.6784 12.6946 3.61006
3098 2 12.5086 14.3103 5.53413
3575 3 14.4218 14.3216 3.74698
1114 1 18.0837 12.5668 5.39965
1584 1 17.8353 14.4934 3.58801
2582 3 16.1795 12.6505 3.73732
3100 3 16.1922 14.3429 5.50866
3099 3 16.2472 12.5065 7.16276
3599 3 17.9709 14.2177 7.23332
582 3 0.0085888 17.8923 3.46547
1605 2 1.95048 17.8446 5.33034
1604 3 1.87708 16.109 7.30231
3104 1 0.0884584 16.1931 5.40622
3103 3 0.0411128 17.8034 7.31295
3576 3 1.90969 15.9379 3.61042
2087 3 3.73528 17.8295 3.67603
2607 1 5.41221 17.7906 5.4254
2586 2 7.04974 17.8632 3.66235
3107 2 7.17081 17.6975 7.40793
3106 2 5.48464 15.958 7.19875
3105 1 3.43157 17.83 7.24531
3602 3 3.69121 15.9585 5.55232
3601 1 7.0579 16.0296 5.35018
3577 2 5.30328 15.8441 3.64898
1091 1 10.6285 17.8488 3.69073
2107 1 8.80849 16.0758 7.15393
2608 3 8.9847 17.7788 5.42786
3109 1 10.7784 17.7899 7.27345
3603 3 10.6356 15.9498 5.41849
3579 1 8.92095 16.0476 3.62014
41 3 14.3759 16.0503 5.29914
2610 1 12.5529 17.751 5.30922
2609 3 14.1578 17.749 7.41359
2587 3 14.2936 17.8738 3.67776
3604 2 12.4925 16.1017 7.32941
3580 1 12.4252 15.9825 3.85016
583 3 16.2362 16.217 3.6655
1606 3 17.7322 17.9073 7.18233
2109 3 16.1799 15.9291 7.13659
3112 2 16.074 17.8597 5.49489
3110 3 17.9092 16.1526 5.43887
3582 2 18.0643 17.8506 3.68044
21 2 0.0721297 1.89692 8.91788
604 1 0.0920712 0.0768286 10.6281
2110 3 1.84216 1.86699 10.6996
2589 3 1.94997 -0.0299023 8.83235
585 2 7.21876 1.91603 8.98394
1092 2 5.45072 0.0584969 8.96685
1608 3 7.37678 0.249005 10.8312
1607 1 3.62072 0.0487811 10.8052
2111 3 5.33064 1.91392 10.8289
2591 3 3.62808 1.73819 8.93145
1116 3 10.9955 0.231092 10.7547
2612 1 9.15845 1.98793 10.7095
2592 1 10.8927 1.98856 9.02731
3587 2 9.20357 0.228472 9.17605
587 3 14.4935 2.04785 8.94617
1609 1 14.2834 0.212438 10.9307
2090 3 12.6501 0.246551 9.03003
2613 2 12.746 2.00435 10.8091
26 2 16.0383 0.157159 9.10215
2594 3 17.677 1.74799 8.93426
3116 2 16.1859 2.00328 10.7766
3115 2 17.8207 0.0922002 10.7246
1093 2 1.87136 7.34501 9.18118
2091 1 1.61366 3.54531 8.79378
2615 2 0.158637 3.74565 10.7924
3118 2 0.209393 7.26571 10.7216
3117 3 1.83205 5.38739 10.7804
3089 1 0.18077 5.39194 8.92854
30 3 5.41837 3.5378 8.95864
45 1 7.24956 7.13404 10.7734
1096 1 3.52752 5.55079 9.08033
2112 2 7.32082 3.68129 10.7304
2616 2 3.71537 3.72424 10.6414
3091 2 7.33034 5.48694 8.78207
3608 2 3.70589 7.20227 11.0175
3607 1 5.54561 5.52456 10.6374
3591 1 5.36122 7.25088 8.95573
46 3 10.6985 7.20189 10.7681
1098 3 10.7651 5.47123 9.09232
1591 2 9.10928 3.71395 8.93182
1588 2 8.97252 7.40583 9.03405
2113 3 10.87 3.83193 10.8395
3609 3 9.0409 5.39598 10.8227
32 3 12.5423 7.22916 8.9458
34 3 12.6537 3.79601 8.94947
36 3 14.3552 5.59988 8.92606
609 1 14.4401 7.37583 10.6841
3119 1 14.3487 3.84378 10.722
3611 2 12.6029 5.50509 10.826
1120 2 17.9197 3.77186 10.767
1615 2 17.9375 7.23381 10.8115
1593 3 17.9776 5.50841 8.965
2093 1 16.3851 7.27066 8.79478
2595 3 16.2106 3.8725 8.9512
3612 2 16.1252 5.68538 10.6981
48 3 1.92401 9.03887 10.8745
2095 1 0.251619 8.85035 8.9086
2596 3 1.91392 10.7376 9.04711
3120 2 0.0437027 10.5266 10.7683
37 3 3.63469 8.94198 9.12303
49 1 5.36183 9.03718 10.7694
612 1 7.09683 10.6034 10.8013
1105 2 5.32827 10.7959 9.03367
2096 1 7.1083 8.87118 8.98559
3121 1 3.63394 10.7187 10.9566
613 1 8.89996 8.92126 10.8368
598 1 10.8986 9.0833 9.08386
3613 1 10.6599 10.672 10.7301
3596 2 8.89769 10.6222 9.04559
50 3 14.3318 10.8278 10.6424
614 1 12.5848 9.11992 10.6902
2598 3 12.664 10.8558 8.96066
2597 1 14.2984 8.981 8.90443
51 1 18.0104 10.8705 10.7951
600 3 18.0095 8.97961 9.0524
1122 3 16.0334 9.14199 10.7818
1109 2 16.2618 10.8413 9.10115
616 2 0.164353 14.3477 10.8386
601 3 0.0646071 12.3642 9.0968
1123 1 1.85026 12.5761 10.9169
3094 1 1.93034 14.2758 9.01389
1124 3 5.37705 12.4592 10.9569
1111 2 5.45095 14.2243 9.12239
1619 3 7.18137 14.2753 11.004
1618 3 3.56395 14.1245 10.9329
1601 3 7.1632 12.3093 9.08665
3095 1 3.6004 12.3705 9.21742
617 1 10.6852 14.3546 10.868
1125 3 8.89113 12.469 10.7024
3096 3 8.74395 14.3083 9.06362
3598 3 10.6751 12.6397 9.03471
1126 1 14.3742 14.2085 10.6697
1113 1 12.6587 14.2247 8.98427
1620 1 12.5097 12.5131 10.5332
1602 3 14.4814 12.5529 8.81682
1621 3 16.1324 12.4637 10.7696
3126 3 17.928 14.3078 10.7284
3102 3 16.1705 14.276 9.01978
3101 1 17.9073 12.4823 9.06214
1623 2 0.141161 17.9548 10.8744
2119 3 1.92237 15.9581 10.8232
2606 3 1.78314 17.9152 8.99911
3600 2 -0.00940329 16.0151 9.1122
40 3 7.1289 15.9078 9.14486
619 3 3.52084 17.8348 10.6284
1127 1 7.31459 17.9441 10.6625
2120 3 5.36361 16.0157 10.7965
2106 2 3.53327 16.0312 8.96696
2105 2 5.41266 17.7392 8.94765
1624 2 10.7637 17.7018 10.9544
2108 1 10.7737 15.9734 9.12115
2625 1 8.98408 16.0328 10.8943
3108 3 9.14291 17.7823 9.0173
603 3 14.396 16.0987 9.05164
1115 2 12.452 17.7048 9.18574
2626 1 12.6983 16.0666 10.8056
3620 2 14.2273 17.9224 10.7577
2628 3 16.0032 16.087 10.8398
2611 1 17.8715 16.2441 8.89394
3127 3 17.7472 17.836 10.7991
3111 1 16.1612 17.7364 8.94884
42 1 -0.107883 1.94221 12.4487
2121 3 0.00631212 0.134025 14.3782
2629 1 1.79199 1.87379 14.4479
3113 1 1.90109 0.16859 12.6737
43 3 3.51796 1.90535 12.4568
605 3 7.2563 1.9151 12.45
1625 1 7.34306 0.233142 14.3096
2123 1 3.65351 -0.00874624 14.5212
3128 1 5.43938 1.73862 14.2618
3605 2 5.62293 0.0892201 12.5423
606 2 10.9552 1.94957 12.3465
1627 2 10.7279 0.0791479 14.2979
3129 2 9.11274 1.94141 14.2723
3606 3 9.17786 0.288257 12.6071
1117 2 14.4272 2.0391 12.5263
2632 1 14.4015 0.173564 14.3326
3131 2 12.5166 1.75231 14.3096
3114 3 12.5506 0.0980385 12.5284
44 1 16.1826 0.233647 12.3641
501 1 17.8138 0.161286 14.2242
2614 3 18.0652 1.8479 12.4738
3132 3 16.292 1.94386 14.1735
607 2 1.87959 3.65637 12.4941
1119 2 1.7832 7.29082 12.4617
1118 2 0.254547 5.41454 12.5857
2634 3 0.0692785 7.2166 14.318
2633 1 -0.0036873 3.83504 14.3794
3624 2 1.89156 5.48093 14.2114
60 1 7.36823 7.14751 14.4957
608 2 5.46894 3.80265 12.4268
1612 2 7.2782 5.43069 12.6373
1611 1 5.50203 7.18812 12.5443
1610 1 3.6662 5.27736 12.5999
2128 1 7.15122 3.58351 14.2327
2126 3 3.76051 3.67386 14.3707
3136 3 3.78892 7.30993 14.4887
3626 3 5.34261 5.4134 14.424
1613 1 11.0367 5.50371 12.6664
2114 1 8.96838 7.05259 12.7057
3137 2 10.9794 3.70116 14.3424
3629 3 9.17663 5.31614 14.5136
3628 1 10.845 7.29907 14.4119
3610 1 9.21276 3.72943 12.4931
610 1 12.7622 3.7419 12.6163
1614 3 14.4279 5.56357 12.4769
2617 3 12.6041 7.32173 12.533
3138 1 14.3284 3.59125 14.243
3631 3 14.3607 7.22985 14.4147
3630 1 12.682 5.45091 14.303
47 2 17.7289 5.58178 12.5145
65 1 15.9313 5.46113 14.2826
1138 1 18.0006 3.858 14.3893
1121 1 16.2392 3.81855 12.5741
2618 3 16.1437 7.366 12.793
3140 2 17.8071 7.21827 14.4682
67 1 1.88246 8.84248 14.3875
611 3 1.79666 10.6733 12.6163
2115 3 0.0997011 8.92122 12.688
2636 1 0.0042001 10.8499 14.3281
69 3 7.37032 10.8333 14.5002
70 2 5.59513 8.84166 14.24
1616 2 5.56067 10.657 12.7517
2116 2 3.62019 9.04786 12.6465
2619 1 7.33413 8.83201 12.6844
3633 3 3.64541 10.6687 14.3768
71 2 8.94423 8.96615 14.3909
2117 3 9.07601 10.6546 12.6415
2620 3 10.862 8.90816 12.5634
3141 3 10.848 10.8196 14.3869
510 3 12.5812 9.09714 14.2349
1617 3 12.6479 10.841 12.5291
3122 2 14.298 9.06134 12.5214
3635 2 14.4351 10.8163 14.3674
511 1 16.024 9.0489 14.3301
615 3 17.8715 8.96679 12.7176
1639 3 17.9227 10.9171 14.3047
2118 2 16.2273 10.6668 12.6609
513 2 0.086318 14.2245 14.3434
514 2 1.97838 12.6685 14.4136
2621 3 0.10205 12.5146 12.4469
3123 3 1.92807 14.2714 12.7268
72 2 7.36208 14.2312 14.4963
515 3 5.48932 12.406 14.4445
516 2 3.62017 14.4004 14.4227
3125 1 7.2798 12.5749 12.7506
3124 2 3.75385 12.5614 12.6762
3614 2 5.48596 14.3214 12.8636
73 1 10.8163 14.1883 14.3451
1145 3 9.07671 12.5196 14.4097
3616 3 10.6761 12.4247 12.4106
3615 3 9.13029 14.3328 12.7448
1147 1 12.709 12.4919 14.1361
1146 1 14.6176 14.2451 14.3309
2622 1 12.5651 14.2187 12.5729
3617 3 14.4074 12.6516 12.6099
1149 1 16.1933 12.5669 14.3119
1622 2 17.746 12.4264 12.5796
3146 3 17.8312 14.3566 14.2991
3618 3 16.2349 14.3826 12.5409
52 3 0.17849 16.1021 12.524
518 3 0.0827602 17.8636 14.4091
1150 2 1.86468 16.1959 14.5666
2623 3 1.93206 17.9742 12.4856
53 1 3.48508 16.1236 12.6635
618 2 7.20824 16.1462 12.6525
1151 2 3.71504 17.809 14.4831
1642 3 5.4843 16.0875 14.4477
2142 1 7.00768 17.9789 14.3283
2624 1 5.07578 17.7561 12.4715
54 1 10.7668 16.1209 12.5353
1643 1 9.13634 16.0324 14.3691
2649 3 10.8656 17.9351 14.21
3619 3 8.83729 17.7986 12.4506
55 1 12.6734 17.8055 12.5146
620 1 14.2132 16.0355 12.6209
1646 1 12.5378 16.1615 14.3951
1644 3 14.3897 17.6371 14.3349
56 1 16.1061 17.9666 12.5697
1647 2 16.1675 16.1081 14.3251
2627 1 17.9179 16.0775 12.4791
3644 3 17.9507 17.9561 14.3843
57 2 1.83111 0.086587 16.1507
621 1 0.0506398 1.97126 16.0094
1128 3 -0.0902375 0.314515 17.7925
2122 2 1.83083 1.9562 17.8551
58 2 5.57927 0.0846098 16.2317
1132 2 7.14994 0.026896 18.0561
1131 1 7.22808 1.98448 15.9366
1130 1 3.59574 0.050759 17.7877
1129 3 3.63172 1.9226 16.0747
2630 3 5.52412 2.01374 17.7643
1133 2 10.8828 1.92004 15.9404
1626 2 10.7959 0.134776 17.8481
2631 3 8.97073 1.88797 17.7902
3621 2 8.85824 0.193924 16.0432
59 1 12.5398 0.00372682 16.0914
1134 3 14.4547 1.84419 15.9214
2124 3 14.3842 0.0981951 17.9468
3130 1 12.5161 1.75438 17.9238
502 2 16.2183 0.0498451 15.9425
3133 3 16.1815 1.90218 17.9495
3623 3 17.8559 0.133083 17.8327
3622 3 18.0073 1.83725 16.1311
503 3 1.83192 3.82605 16.166
504 1 1.80324 7.17384 16.0129
1628 2 -0.0844521 5.43355 16.1529
2125 3 -0.0579162 3.67653 17.791
3134 3 0.202702 7.41292 17.7486
3625 2 1.73119 5.607 17.7992
61 3 5.43786 3.58293 16.0254
505 1 3.64551 7.20521 17.7905
1135 1 7.06774 7.13587 17.9056
1631 2 5.64473 7.27929 16.126
1630 2 3.54916 5.65467 16.2132
1629 3 7.17292 5.2758 16.074
2127 2 3.62438 3.64242 17.8242
3135 3 7.30132 3.67996 17.8235
3627 3 5.3962 5.28112 17.8107
62 2 8.99944 5.40432 17.7813
63 2 10.8684 7.05912 17.9612
506 3 9.1502 3.61445 15.9993
1632 1 11.1258 5.32116 16.0532
2129 1 9.08874 7.07958 16.1201
2635 2 10.8541 3.52785 17.8291
64 3 12.5906 5.24616 17.9137
1137 3 14.3137 7.17082 17.9678
1136 3 12.7658 3.50199 16.1784
2131 3 14.3583 5.332 16.1798
2130 2 12.6115 7.10332 16.2711
3139 1 14.3772 3.72696 17.9716
66 1 17.877 5.40788 15.955
507 2 16.0741 5.36085 17.9223
1140 3 17.7933 3.67024 17.9
1139 3 16.0597 3.56762 16.1292
1634 1 17.9018 7.33372 17.9161
1633 3 16.0702 7.21359 16.212
508 1 1.91414 8.92866 17.8928
1141 2 1.93255 10.8261 16.1926
2132 3 -0.0214752 9.10287 16.106
3632 2 0.0210323 10.7562 17.7755
68 2 3.59177 10.6157 18.0838
509 3 7.24004 10.6739 17.7194
1142 3 5.39634 9.03457 18.0323
1635 3 5.55099 10.6775 16.2101
2134 1 7.40362 8.9659 16.0069
2133 1 3.75228 9.094 16.0933
1143 1 8.98633 8.82091 17.8975
1636 3 9.17848 10.8882 16.1212
2637 3 10.7404 8.97355 16.2026
3634 1 10.8499 10.9174 18.0008
1144 2 12.5748 10.8132 16.0027
1638 3 12.4992 9.10682 17.8836
1637 1 14.207 10.9249 17.8055
2638 3 14.3285 9.03156 16.2025
512 1 17.9095 9.00871 16.0479
1640 1 16.1544 9.23706 17.9145
2135 3 16.1842 10.8255 16.0614
2639 1 18.0014 10.8775 17.8382
2137 3 0.0382629 14.3873 17.8015
2136 1 1.9565 12.5885 17.8764
2641 3 1.93924 14.3402 16.0831
2640 3 0.14661 12.5598 16.0707
2140 2 7.21108 14.3489 17.8496
2139 3 3.7096 14.3943 17.9183
2138 2 5.40514 12.4388 17.7228
2643 3 5.47812 14.2188 16.1179
2642 1 3.57736 12.5321 16.0999
3142 2 7.2526 12.5559 16.0627
2141 1 9.10853 14.4001 16.0968
2645 2 8.87755 12.5654 17.8231
2644 2 10.833 14.2464 18.1117
3143 1 10.9456 12.5091 16.092
2647 3 12.5384 14.4217 16.0149
2646 2 12.5582 12.6662 17.8887
3145 1 14.2628 14.4031 17.8973
3144 2 14.2147 12.6313 15.9971
517 2 17.8977 14.2811 18.0492
1148 2 17.9124 12.5043 16.193
3148 3 16.1507 14.3905 16.3577
3147 1 16.1619 12.5584 17.9671
2648 3 2.00037 17.9334 16.2271
3150 2 1.97042 15.9785 17.945
3149 1 0.0727326 16.1004 16.0351
3636 2 0.25305 17.823 17.7676
1641 2 3.67895 17.8767 17.8919
2143 2 7.17025 17.8897 17.831
3640 2 5.41034 17.8708 16.1972
3639 3 7.32066 16.2896 16.0348
3638 2 5.50238 16.0963 17.9766
3637 2 3.71037 16.2045 16.0378
74 3 8.93908 17.8557 16.023
519 3 10.7856 17.8887 17.8779
3642 1 8.90745 16.2923 17.8345
3641 2 10.6764 15.916 16.2115
75 3 12.5478 16.1862 17.9009
76 3 12.5891 17.8877 16.1594
1645 2 14.3581 17.9924 17.9591
3643 1 14.3776 16.1523 16.0684
77 2 16.0867 16.188 17.8061
2144 2 18.0074 16.0407 16.1291
2650 2 17.705 17.8924 17.9868
3645 2 16.1584 17.8976 16.0035
520 1 0.183139 0.0427611 21.1784
78 2 0.015757 1.89761 19.4851
2145 1 1.77822 1.78754 21.1117
3151 2 1.81785 0.0980151 19.3253
521 3 3.41333 0.0656899 21.2452
80 3 3.70613 1.86815 19.4129
79 3 7.23177 1.92186 19.5456
2147 2 5.4419 1.78036 21.2079
2146 1 7.12594 0.0112896 21.2432
2651 2 5.47307 0.209717 19.6152
81 2 10.7015 1.93232 19.7179
1648 3 10.7565 0.00384134 21.3691
2652 1 8.84898 1.73491 21.3778
3152 1 9.0542 0.0958124 19.6204
522 3 14.4834 1.90585 19.6858
1649 2 14.4874 0.115652 21.2618
2653 2 12.437 1.89608 21.4096
3646 1 12.503 0.0387679 19.7687
82 1 17.9879 -0.0157268 21.2896
2654 2 17.8653 1.71871 19.6759
3153 2 16.2982 1.77566 21.3533
3647 2 16.0843 0.1358 19.6576
523 2 -0.00797875 5.60144 19.5457
84 1 1.80779 7.20414 19.6716
83 2 0.0122187 7.07911 21.3599
1650 2 0.0830252 3.54008 21.2636
3155 3 1.9165 5.45923 21.2868
3154 2 1.82118 3.78949 19.5127
524 2 3.61316 5.41767 19.5884
525 1 7.29312 5.35807 19.5529
526 3 3.51326 7.06911 21.4944
1153 3 7.16992 7.15846 21.41
1152 3 5.30285 7.1972 19.5385
2655 3 3.60044 3.52189 21.2649
3156 3 7.08575 3.47966 21.5018
3649 1 5.42925 3.63748 19.6449
3648 1 5.37592 5.40927 21.4465
86 1 10.7332 7.0023 21.4158
85 3 8.8977 3.71638 19.6973
1155 1 10.6745 5.32028 19.5543
1154 2 8.98864 7.08811 19.69
2656 1 10.738 3.55836 21.5408
3650 3 8.93437 5.3802 21.5416
527 1 12.3813 7.28454 19.7415
88 3 12.4912 5.37203 21.2883
87 3 12.5593 3.53398 19.7177
1156 3 14.2219 5.48145 19.7233
2148 3 14.3337 7.17797 21.4788
2657 1 14.5337 3.60114 21.3703
528 2 17.8628 3.65148 21.4878
89 1 16.1224 5.3363 21.5405
1157 3 16.1112 7.12389 19.7365
3158 3 17.9736 5.43873 19.7115
3157 2 17.8113 7.12532 21.3081
3651 2 15.9898 3.66461 19.4865
529 3 1.86147 8.90194 21.436
530 2 1.78864 10.7418 19.629
1158 2 0.146993 9.29091 19.6218
3652 2 0.210747 10.7127 21.3968
531 3 5.41886 9.02975 21.3763
532 3 5.50639 10.8493 19.5397
533 1 7.38062 10.7775 21.4478
1159 2 3.66712 8.83189 19.6225
1651 3 7.27051 8.87293 19.6657
3653 3 3.60509 10.8756 21.2427
90 1 9.07036 10.836 19.3843
1161 1 9.01974 8.89089 21.2717
1160 2 10.5945 10.6789 21.2059
1652 2 10.6563 8.99348 19.5135
534 3 12.6009 10.8211 19.6295
1162 1 12.4988 8.90413 21.2945
1654 2 14.3035 10.7831 21.4108
1653 1 14.2709 8.85498 19.7377
1656 1 16.0521 10.7623 19.6738
1655 1 16.2358 9.00885 21.288
3159 3 17.8346 10.6869 21.3253
3654 2 17.9876 9.10782 19.6028
1660 2 0.0365604 14.3273 21.3322
1659 2 1.87492 14.3141 19.621
1658 2 1.64657 12.5269 21.2471
1657 1 0.0381967 12.3844 19.4531
1163 1 5.54278 14.2147 19.6671
1661 3 3.72222 14.2665 21.4094
2151 3 7.18054 12.5232 19.4823
2150 1 5.59004 12.5771 21.4025
2149 3 3.52534 12.7137 19.4784
3160 3 7.29372 14.295 21.305
1662 2 9.05681 14.3586 19.4832
2153 2 8.94968 12.6769 21.4048
2152 3 10.8239 12.6199 19.5716
2658 2 10.7866 14.4106 21.3345
2155 2 14.2774 12.6618 19.777
2154 1 12.5255 14.3897 19.8702
2660 1 14.3432 14.2992 21.5429
2659 2 12.4918 12.5843 21.5967
535 3 17.8026 12.5216 19.6716
1164 3 17.8683 14.3572 21.3645
2156 1 15.8492 14.411 19.5665
2661 1 16.0266 12.4188 21.5506
1165 3 0.176784 17.9137 21.4739
2157 2 1.84347 17.8461 19.6168
2662 3 0.142515 16.1572 19.5527
3161 1 1.98089 16.0999 21.4021
1664 3 7.20348 17.8462 21.2867
1663 3 3.71985 17.9274 21.3632
2664 1 3.80258 16.0411 19.6541
2663 2 7.34447 16.1196 19.7272
3163 1 5.43026 15.9887 21.3627
3162 2 5.37653 17.8705 19.5624
536 2 10.8186 17.7492 21.4812
2665 2 10.8644 16.1855 19.6329
3164 1 9.07392 18.0663 19.6365
3655 3 9.09692 15.9527 21.3245
2666 1 12.4879 17.8527 19.595
3166 3 14.2116 16.1482 19.7132
3165 3 14.1423 17.8631 21.3891
3656 1 12.455 16.1502 21.6642
92 3 16.0248 16.0864 21.2568
91 3 17.7531 17.8404 21.3727
1166 2 17.8321 16.2479 19.6034
3167 2 16.0494 17.853 19.6939
93 3 2.08068 1.88081 24.9393
1665 1 1.85933 0.232393 22.9727
2667 3 0.180248 0.204096 24.9862
3168 1 0.183578 1.8043 23.2057
2158 3 5.47623 0.125848 23.1471
2670 2 3.72383 0.102549 24.9698
3170 1 7.20549 1.91213 23.1805
3169 3 3.72311 1.77834 23.0595
3659 1 7.08594 0.0154132 24.9176
3658 3 5.47965 1.79341 24.9974
537 3 8.90027 1.92366 24.9011
2671 3 8.95137 0.0583299 23.1793
3171 3 10.7953 0.106957 24.9523
3660 2 10.6636 1.88201 23.0304
2673 3 12.7004 0.176117 23.1044
3663 2 14.4416 1.89004 22.9343
3662 2 14.5043 0.092639 24.8732
3661 1 12.6958 1.78897 24.8041
539 1 16.1486 1.84238 24.8741
1167 2 17.757 -0.153657 24.8428
1668 3 17.9712 1.74874 23.2511
2160 1 16.2953 0.0471614 22.9936
99 2 1.79659 5.50485 24.9708
98 1 1.89834 7.20844 23.157
97 3 0.0103823 7.2054 24.7667
96 1 0.10956 5.34671 23.1895
3173 3 1.99965 3.66616 23.239
3172 2 0.0793041 3.63875 24.7791
540 1 3.42004 7.35716 25.083
541 1 5.33356 7.11685 23.1541
542 2 7.13953 5.4817 23.2509
543 2 5.5585 5.38885 25.0616
101 1 7.26236 7.15597 25.013
100 3 3.61598 5.35684 23.0438
2675 2 7.18918 3.72701 24.8391
3175 2 3.64318 3.84584 24.9279
3665 3 5.2316 3.58648 23.1089
546 3 9.03893 7.17966 23.1508
547 1 9.22093 5.27138 24.9204
102 2 10.9471 5.36115 23.2533
1170 1 10.8313 7.23111 24.8392
3177 1 10.8897 3.50367 24.8201
3666 3 8.99963 3.6024 23.102
548 3 14.3909 5.39398 23.2022
549 2 12.4025 5.41243 25.0609
105 1 14.2417 3.48174 24.9714
1670 1 12.5189 7.19468 23.143
3179 1 12.6796 3.69225 23.1257
3667 2 14.2029 7.28964 25.0088
1172 1 16.0027 5.27039 24.9336
1672 2 18.0079 3.67054 25.0185
1671 3 16.1582 7.19751 23.1715
2678 2 17.8133 7.27143 24.9467
2677 2 17.8975 5.32019 23.2507
3668 2 16.3131 3.60914 23.3085
550 3 0.199417 8.96818 23.0949
106 3 1.85134 10.8448 23.0762
1175 1 1.85577 9.02986 24.9151
3669 2 0.210804 10.8101 24.9091
108 3 5.5056 10.8356 23.131
1180 2 7.06976 10.7266 25.01
1178 1 7.23185 8.96157 23.16
1177 2 3.74695 9.06936 23.1516
1176 1 5.72547 8.92411 24.9241
3670 2 3.71567 10.6217 24.8889
551 2 10.7282 10.849 24.8947
552 3 8.97543 10.7412 23.0934
1181 1 8.90873 8.91333 24.8703
1674 2 10.76 9.10622 23.1935
1182 1 12.6186 10.6156 23.2773
1676 2 12.4405 9.02826 24.9885
1675 3 14.2384 8.90543 23.1862
2163 2 14.3111 10.7334 24.958
1183 1 16.0534 8.89452 25.0258
1677 3 16.1052 10.6135 23.0215
2165 2 17.8584 10.756 24.8143
3671 2 17.8516 8.93749 23.2136
555 3 0.107126 14.3982 24.9057
1184 1 1.93962 14.3617 23.1754
1678 1 1.847 12.5196 25.007
2166 2 0.0859545 12.6059 23.0461
113 3 7.24728 14.4219 24.9258
1185 2 5.52004 12.6119 24.994
2170 1 5.52125 14.3176 23.1131
2169 3 3.70007 12.597 23.1532
2168 2 3.68038 14.1969 24.9274
2167 2 7.19199 12.6403 23.2907
1680 3 10.9484 14.2113 24.9536
2171 2 10.6433 12.531 23.195
2682 2 8.98017 14.2874 23.2269
2681 2 8.88218 12.459 24.9757
114 1 14.3643 14.1771 24.8457
1681 3 12.4939 12.5644 24.9567
2684 2 14.1442 12.5743 23.2312
2683 2 12.4222 14.2911 23.182
557 1 17.8646 12.4493 23.0183
2173 2 16.1172 14.244 23.3501
2685 1 16.2146 12.4695 24.7923
3183 2 17.9012 14.4156 24.8298
1684 1 1.78113 16.1343 24.8273
1683 2 1.88548 17.7295 23.1745
2688 1 0.0274905 16.1445 22.9769
2687 3 0.0176738 17.7672 24.9867
2175 2 7.08875 17.8615 25.008
2174 3 5.50419 17.7777 23.1394
2689 3 3.70306 17.8434 24.8899
3187 3 5.39949 16.1095 24.9372
3186 1 7.26574 16.0034 23.1036
3185 1 3.61135 16.1403 23.1387
1687 3 9.0053 17.8834 23.1702
1686 2 8.90199 16.145 25.0968
2177 3 10.7056 17.867 24.9638
3675 3 10.4977 16.1027 23.2815
2178 2 14.2567 17.9798 25.056
2690 2 12.5015 17.8628 23.2764
3188 2 12.5711 16.0487 25.0478
3676 1 14.3194 16.1956 23.1469
1187 3 17.726 16.1201 23.148
1186 3 17.6962 17.97 24.8161
1689 3 16.1573 16.0553 24.9948
3189 2 15.9367 17.7958 23.1394
1188 1 0.174184 0.205579 28.3894
2180 3 2.03223 1.85567 28.5085
2668 2 1.87027 0.190452 26.7368
3657 2 0.279651 1.99141 26.5868
559 2 7.188 -0.0406728 28.4202
94 3 7.20933 1.95426 26.7529
1189 2 3.66986 0.0114117 28.5637
1666 3 5.49828 0.0483332 26.7602
2181 2 5.31508 2.00554 28.573
2669 2 3.57704 1.88418 26.7479
560 2 11.0088 -0.00447849 28.4861
95 2 8.94659 0.200437 26.7298
2182 3 8.93609 1.98633 28.5334
2672 3 10.8271 1.89934 26.707
538 2 14.3559 1.84858 26.7051
1667 3 12.7296 0.060906 26.6877
2184 2 12.6095 1.84329 28.4935
2183 1 14.3884 0.117178 28.477
2159 2 17.9193 1.95977 26.5794
3193 1 16.1779 1.95159 28.4408
3679 1 17.7997 0.289097 28.4296
3664 1 16.1056 0.108467 26.717
1168 2 1.86527 3.63554 26.6618
1669 3 1.93963 7.24997 26.889
2186 3 0.0987262 7.24795 28.4052
2185 2 0.251502 3.3641 28.6264
2674 3 0.159435 5.4913 26.5938
3194 3 1.77082 5.38091 28.6071
544 1 3.62762 5.34971 26.8549
563 1 7.39964 7.35388 28.5279
1691 1 7.127 3.66176 28.5971
1690 1 3.6888 3.7617 28.5683
2676 1 7.23787 5.52476 26.803
3196 3 3.72929 7.17633 28.546
3195 2 5.52253 5.42489 28.6094
3176 3 5.50387 3.74991 26.6982
3174 3 5.41924 7.21377 26.6306
545 1 10.8012 5.46404 26.614
1171 3 8.93242 3.68414 26.7138
1169 2 9.17925 7.29641 26.6643
2694 2 10.8346 3.58584 28.5804
3197 1 9.17854 5.49623 28.5074
3681 3 10.8255 7.14968 28.4202
104 2 12.5362 3.4687 26.5699
103 1 14.3266 5.43258 26.6373
2695 1 14.2443 3.70933 28.392
3178 3 12.3812 7.10232 26.6521
3684 3 14.1374 6.9741 28.5195
3683 3 12.5101 5.2956 28.492
622 3 17.8182 3.65169 28.4108
1004 3 17.902 7.19581 28.4561
1174 2 16.0568 7.1932 26.6603
1173 1 17.9886 5.53128 26.55
3180 2 16.0186 3.73772 26.7754
3685 1 16.0879 5.35571 28.5885
1673 1 0.0731428 8.99323 26.7442
2161 3 1.87415 10.5564 26.798
2696 1 -0.0831069 10.7013 28.5691
3687 1 2.07016 9.15115 28.6259
122 1 7.17505 10.6184 28.6844