ITEM: TIMESTEP
5000
ITEM: NUMBER OF ATOMS
4000
ITEM: BOX BOUNDS pp pp pp
1.6315420906996181e-01 3.5570905790930013e+01
1.6315420906996181e-01 3.5570905790930013e+01
1.6315420906996181e-01 3.5570905790930013e+01
ITEM: ATOMS id type x y z
563 1 0.22937 0.168297 0.211462
1064 3 1.87656 1.85194 0.154501
1563 2 1.91628 0.143715 1.84979
2064 2 0.193299 1.86151 1.92621
1 2 3.86845 1.8387 1.96997
565 1 7.16802 0.175663 0.202663
2065 3 7.20101 1.9683 1.89655
2565 1 3.88072 0.289148 0.186289
3064 2 5.54509 1.86993 0.176482
3564 2 5.43151 0.0638618 2.04198
2 2 10.8358 1.62583 2.04587
1066 3 9.01601 1.9245 0.210323
1564 3 8.90269 0.090485 1.98427
2566 1 10.6786 0.104197 0.185255
567 1 14.2227 0.0698965 0.152839
2066 3 14.2673 1.80191 1.99648
3066 1 12.5923 1.82936 0.0753385
3565 1 12.5377 0.00512073 2.00712
751 2 17.8441 0.0898192 0.236976
1068 3 16.048 1.9847 0.290073
1565 2 15.9232 0.0285993 1.8203
2001 3 17.9287 1.88175 1.90512
3 1 0.217531 5.46448 1.79734
573 3 0.273507 7.20623 0.082792
1568 3 1.96781 7.2366 1.86674
2569 2 0.0112887 3.73965 0.110131
3068 1 1.80141 5.47146 0.215652
3566 1 1.86006 3.57943 1.9555
4 1 7.25093 5.42777 1.87114
569 3 3.64588 3.65504 0.138463
577 3 7.10641 7.11856 0.0964666
1070 1 5.24193 5.51342 0.181199
1566 2 5.45371 3.79102 1.79978
2067 2 3.57283 5.34029 1.8463
2576 2 3.68069 7.27983 0.0986233
2571 3 7.20347 3.7731 0.066274
3570 2 5.59289 7.23807 1.93375
570 3 10.6461 3.45806 0.195903
1570 1 8.86639 7.1192 1.87786
2068 2 10.7577 5.63776 1.96521
2578 3 10.7206 7.3002 0.058029
3070 3 9.03758 5.34178 0.151577
3567 1 8.99675 3.86662 2.0011
5 2 14.3234 5.42809 1.80994
581 2 14.1504 7.28634 0.225297
1072 3 12.3436 5.29308 0.195814
1567 3 12.3829 3.53224 1.91649
2573 1 14.3144 3.64688 0.2782
3572 3 12.488 7.21277 2.04248
253 2 17.8818 5.4108 2.01214
761 2 17.8819 7.11188 0.154022
1572 1 15.9904 7.10981 1.90967
2819 1 17.9104 3.68714 0.234685
3072 3 16.1897 5.448 0.255778
3568 2 16.1998 3.66162 1.92077
1074 1 1.9802 8.98634 0.224415
2069 2 0.0915 9.04979 1.79872
2574 3 0.128842 10.8743 0.130098
3569 1 1.92489 10.7884 1.91377
6 1 3.68433 9.01854 1.8615
575 2 3.73558 10.7123 0.131676
1569 1 5.41243 10.8347 1.80815
2070 1 7.08016 9.09339 1.91039
2579 2 7.19474 10.8096 0.152459
3074 3 5.38518 8.99683 -0.00631753
7 3 10.6916 8.95288 1.91683
578 1 10.8916 10.6997 0.206461
1076 3 9.00111 8.95511 0.129341
3571 1 8.88941 10.7581 1.75953
1571 3 12.5264 10.7922 2.0869
2071 2 14.318 9.05554 2.21136
2582 1 14.3673 10.7151 0.182015
3076 2 12.4777 8.87608 0.201235
1078 2 15.9939 8.90282 0.238384
2006 2 17.8825 9.06105 1.85781
2825 3 17.839 10.8189 0.239143
3573 2 16.0357 10.8047 1.89897
8 2 0.262607 12.5558 1.91769
583 1 0.28914 14.4967 0.283002
1573 1 1.94476 14.2702 2.05131
3078 1 1.93044 12.7245 0.0846052
9 1 7.20168 12.5512 1.88582
585 3 7.12158 14.3539 0.289561
1080 2 5.41221 12.6089 0.140327
2072 2 3.60193 12.4808 1.96334
2585 3 3.64729 14.394 0.0642142
3574 1 5.27745 14.3585 1.94182
1574 1 8.87531 14.2934 1.96711
2073 3 10.7557 12.5468 1.8698
2586 1 10.6168 14.3563 0.229742
3080 2 9.00554 12.6662 0.188108
10 2 14.2628 12.7374 1.93736
587 3 14.2079 14.3971 0.248231
1082 3 12.4586 12.5592 0.294445
3575 2 12.5238 14.4066 2.00412
258 3 17.9195 12.8038 2.10595
771 3 17.7632 14.2277 0.0953712
1575 2 16.0271 14.285 2.0576
3082 2 16.0532 12.6173 0.192013
626 1 0.216391 17.852 0.159329
1084 1 2.07029 16.117 0.120711
1688 3 1.97061 17.8416 1.89026
2074 2 0.313253 16.14 1.88101
11 2 3.74258 16.0575 1.86283
630 2 7.0745 17.8996 0.151023
2075 3 7.13342 16.0353 1.83937
2691 2 3.76508 17.9447 0.196993
3084 2 5.42886 16.0826 0.265648
3690 1 5.5724 17.9276 1.9842
12 2 10.6746 16.1475 1.9262
1086 2 8.73119 16.2109 0.133462
1690 2 8.88546 17.9281 2.03551
2693 2 10.6096 17.9955 0.334439
634 1 14.3629 17.8375 0.199107
2076 2 14.4705 16.1395 2.11891
3086 3 12.3643 16.1542 0.212595
3692 2 12.5842 17.6729 1.9752
876 3 17.8311 17.9449 0.263137
1088 3 16.1223 16.0382 0.208316
1692 2 16.0728 17.8603 1.93963
2011 1 17.9366 15.8738 2.04065
13 1 -0.00596844 1.97343 5.47402
588 3 0.0900823 0.252759 7.20116
1089 1 1.86743 1.96991 7.27321
2564 2 0.175631 0.144412 3.70629
3063 1 1.98181 1.81396 3.6814
3576 3 1.85272 0.142117 5.6232
14 3 7.16307 1.89189 5.49613
564 2 3.65355 0.0966419 3.78852
1065 2 5.45347 1.78849 3.92231
1577 1 3.8329 0.0732998 7.36743
1576 2 5.45013 0.0497157 5.61989
2078 2 5.50062 1.94892 7.2943
2077 2 3.6725 1.7715 5.54934
2589 1 7.14364 0.066472 7.25508
2567 1 7.32711 0.32743 3.69891
566 1 10.7384 0.133429 3.75089
2079 3 10.8067 1.97744 5.50055
3065 2 9.02495 1.84644 3.70386
3088 3 8.88535 1.81273 7.25017
3578 1 10.8556 0.123206 7.39223
3577 3 8.98798 0.153718 5.56936
15 2 12.5636 1.93862 7.29948
16 1 14.4978 1.90477 5.39752
589 3 14.2909 0.212112 7.27371
1067 2 12.6422 1.77119 3.77246
1578 3 12.6103 0.134491 5.58533
2568 3 14.2929 0.11656 3.7778
263 3 17.9208 1.81318 5.40061
776 1 17.8799 -0.0113877 7.38994
1090 3 16.0603 1.96561 7.19891
2815 2 17.6512 0.168268 3.6578
3067 3 16.1904 1.87297 3.63087
3579 2 16.0768 0.0379476 5.66517
568 3 0.074051 3.60072 3.70205
1069 1 1.89452 5.31553 3.54953
1580 3 0.211453 3.75046 7.20096
1579 1 1.89565 3.69824 5.34252
2081 1 1.8938 5.42006 7.23503
2080 2 0.221391 5.32267 5.44785
2591 3 0.196042 7.2801 7.18073
2575 3 0.208253 7.06226 3.66912
3583 1 2.05191 7.23728 5.39971
17 3 3.73488 5.54586 5.38229
571 3 7.22659 3.70488 3.65266
592 1 7.20347 7.1116 7.18971
576 3 3.61642 7.16359 3.51598
1585 2 5.48386 7.19889 5.57678
2082 3 7.3075 5.47964 5.49886
2590 1 3.6596 3.72032 7.15616
2580 1 7.07907 7.23704 3.73502
2570 3 3.66736 3.74145 3.66136
3069 1 5.60776 5.4598 3.76149
3089 2 5.17507 5.50537 7.35729
3586 3 3.55609 7.18124 7.22513
3581 3 7.35593 3.67374 7.21687
3580 3 5.55737 3.72011 5.48004
18 1 10.7598 5.42493 5.59361
19 1 9.09094 5.41427 7.29472
590 1 10.7525 3.62122 7.28218
579 1 10.7712 7.30514 3.95873
1071 3 9.00848 5.61655 3.66484
1587 1 10.7995 7.19573 7.24218
1581 2 9.0599 3.58614 5.35556
2572 3 10.8875 3.71926 3.62449
3587 3 8.96266 7.27652 5.54424
572 3 14.1596 3.69604 3.71832
1091 1 12.6915 5.57101 7.21841
1589 2 12.6158 7.18634 5.41568
1583 2 14.2783 3.78717 7.12956
2083 1 14.3154 5.52424 5.47792
2593 1 14.4165 7.35417 7.28397
2583 3 14.3894 7.23361 3.72757
3071 3 12.4477 5.41498 3.6981
3582 3 12.5642 3.63801 5.46958
757 2 17.9126 3.60779 3.83603
1073 3 16.0483 5.4315 3.87981
1768 3 17.7743 3.67557 7.1654
1582 1 16.125 3.6595 5.45905
2084 3 16.1786 5.507 7.19053
2017 2 17.8486 5.40017 5.48862
2841 3 17.712 7.186 7.19838
2826 3 17.9391 7.27051 3.61728
3589 2 16.0471 7.21586 5.45046
20 2 0.133144 9.02846 5.32363
574 2 0.13803 10.8707 3.56776
1584 1 1.90795 10.6115 5.37515
3073 3 1.87293 9.03 3.60542
3090 1 1.86243 8.96017 7.2615
3584 2 0.131678 10.6951 7.2287
21 2 5.34305 8.95118 7.25756
22 3 7.11673 8.97067 5.3519
591 2 3.78879 10.7523 7.21142
580 1 7.28561 10.9283 3.58714
1075 3 5.35211 9.02165 3.68
1588 1 7.06341 10.9276 7.27997
2085 1 3.67946 8.8825 5.41701
2577 3 3.65579 10.7221 3.68795
3585 3 5.41277 10.6306 5.47651
1092 2 8.91844 9.07887 7.20221
1586 3 8.95212 10.9204 5.40829
2086 1 10.5294 9.0207 5.42088
2592 2 10.6209 10.7941 7.2203
2581 3 10.5872 10.8311 3.68165
3075 3 8.90751 9.03718 3.63442
23 2 14.3566 9.02275 5.51228
582 3 14.3076 10.7547 3.75677
1077 1 12.4854 9.01958 3.74048
2087 1 12.4632 8.98367 7.09365
3590 1 14.3189 10.6884 7.14401
3588 1 12.5487 10.7754 5.38439
270 2 17.9379 8.85401 5.46433
764 2 17.9459 10.8198 3.76322
1590 3 15.9726 10.7821 5.31747
3091 2 16.1111 9.13164 7.13335
3077 3 16.0517 8.92895 3.68753
3835 2 17.9764 10.7642 7.14251
24 1 1.91957 12.3953 7.36883
593 2 0.183247 14.2958 7.24353
1079 3 1.91184 12.4907 3.81811
2088 2 0.282062 12.604 5.58066
2584 2 0.206626 14.2039 3.81198
3591 1 1.92855 14.4057 5.45082
25 1 3.50589 12.539 5.56105
584 3 3.73121 14.3742 3.61678
1093 1 5.33092 12.6077 7.3339
1592 3 3.61541 14.474 7.36338
1591 3 5.42345 14.2884 5.61642
2089 2 7.20721 12.4976 5.53934
2594 1 7.23377 14.3967 7.22017
2587 1 7.12606 14.361 3.72139
3079 2 5.42353 12.607 3.59244
26 2 10.6942 12.5364 5.48736
586 2 10.6885 14.3489 3.72461
1081 2 9.00721 12.5873 3.65664
2090 1 8.95163 12.5095 7.16039
3593 2 10.6908 14.0941 7.12523
3592 1 9.08424 14.2167 5.27109
594 1 14.2391 14.3554 7.28828
1593 1 12.3912 14.3976 5.53008
2091 2 14.2568 12.6095 5.62274
2588 3 14.3786 14.2497 3.86427
3092 2 12.5661 12.4223 7.20856
3081 3 12.4375 12.6099 3.86563
27 2 16.2038 12.5945 7.26652
781 1 17.9335 14.2166 7.25316
1083 2 16.017 12.5456 3.71326
2025 2 17.8792 12.4687 5.51504
2835 2 17.8563 14.2686 3.73649
3594 2 16.1495 14.2534 5.36547
28 1 0.118278 16.1662 5.46873
651 2 0.16934 17.8371 7.23736
1094 2 1.8839 16.229 7.32402
2690 3 0.201287 17.9469 3.68189
3083 1 1.91871 16.0834 3.72369
3701 2 1.95489 17.8942 5.49637
29 2 7.25792 15.9667 5.48568
629 3 3.70291 17.8044 3.64566
1085 3 5.49053 16.05 3.80132
1704 1 3.62626 17.8444 7.18383
1703 3 5.48494 17.8568 5.54387
2093 3 5.56161 16.1041 7.18439
2092 2 3.75457 16.0729 5.60373
2715 1 7.16796 17.8456 7.24857
2695 3 7.20792 17.7833 3.75353
632 2 10.7368 17.938 3.64565
2094 1 10.6643 16.1848 5.46222
3093 2 8.96633 15.9996 7.19881
3085 1 8.95477 16.0594 3.49595
3704 3 10.625 17.9097 7.28212
3703 3 8.935 17.7802 5.38299
30 2 12.5863 16.0291 7.21288
31 3 14.3772 16.1932 5.38965
653 3 14.4027 17.7773 7.16218
1087 1 12.4846 15.9712 3.72474
1706 2 12.4932 17.859 5.36715
2698 1 14.373 17.9478 3.67843
278 2 17.9436 16.1029 5.45474
901 1 17.917 17.8959 7.24224
1095 3 16.2813 15.9861 7.1757
2878 2 17.9677 17.9042 3.60929
3087 2 16.2613 16.1577 3.92592
3707 3 16.2479 17.9694 5.33407
1594 2 1.77376 0.218772 9.09304
2095 1 0.239409 1.88769 9.03928
2595 2 0.0719894 0.172947 10.959
3094 1 1.86472 1.81746 10.8672
33 1 7.25569 2.08086 8.96061
595 1 3.7792 0.132211 10.7492
1096 2 5.50133 1.96807 10.7293
2597 1 7.1695 0.0902998 10.8432
2596 2 5.5468 0.319695 9.02953
3095 2 3.66548 1.935 8.96249
596 2 10.6379 0.0488957 10.7605
1097 2 10.6494 1.84998 9.00522
3096 2 8.9345 1.83449 10.7749
3596 3 8.8536 0.141262 8.93902
597 3 12.6458 -0.0260743 8.96444
1098 3 12.5005 2.02835 10.7607
2098 1 14.1706 1.94609 9.00989
2598 3 14.3873 0.0760016 10.9748
1597 3 16.0014 0.252766 8.99424
2032 3 17.7552 1.97091 9.0508
2845 2 17.8665 0.376514 10.9608
3097 2 15.9811 2.05298 10.8527
598 3 0.209259 3.56079 10.8214
1099 1 1.87196 5.59894 10.8939
2603 1 0.104095 7.18729 10.8816
2599 3 1.94636 3.65268 9.07598
3098 3 0.282852 5.41354 8.99265
3602 1 1.99048 7.38383 9.02186
36 3 3.5803 5.47918 9.24049
605 3 3.63363 7.24035 10.996
604 1 5.49877 7.27763 8.94663
600 1 7.32529 3.72384 10.8422
1100 3 7.1582 5.35748 9.04323
2606 3 7.16921 7.10122 10.7311
2600 1 3.63138 3.61552 10.8372
3099 3 5.34911 5.43392 10.8372
3599 1 5.27712 3.74158 8.96015
606 1 10.9464 7.23144 10.6829
599 2 9.1153 3.82732 9.12473
1101 1 9.06783 5.62826 10.8202
1605 2 8.92786 7.13099 8.88133
2100 2 10.8746 5.58172 8.99332
2601 1 10.6784 3.72985 10.8425
601 3 14.2782 3.71133 10.6777
1600 3 12.4445 3.70152 8.90457
2609 1 14.3928 7.23274 10.7984
2608 2 12.6641 7.43074 9.02609
3101 3 14.3643 5.46874 8.88467
3100 2 12.5424 5.36825 10.7722
786 3 17.9165 3.62869 10.8819
1102 3 16.0503 5.32599 10.6397
2853 1 17.8133 7.35755 10.7556
2602 1 15.9428 3.63634 8.89774
3348 3 17.8608 5.37646 9.0302
3608 1 16.1573 7.31402 8.93177
39 2 0.328127 8.86835 9.1272
603 1 0.232134 10.6962 10.6639
602 2 1.8632 10.5953 8.89653
3102 2 1.87724 8.94013 10.9933
607 1 7.2165 10.6521 10.9094
1104 2 5.34954 9.01054 10.9245
1103 2 3.66108 8.98001 9.03681
1603 3 5.46445 10.7348 9.08821
2104 3 7.12817 9.00774 8.9096
2604 2 3.53344 10.8408 10.7642
2607 3 10.8965 10.6992 10.8041
2605 3 8.8738 10.7433 8.98603
3104 1 9.03223 8.67229 10.7138
3103 1 10.8096 9.1164 8.89945
42 1 14.4962 8.98273 8.87115
609 2 14.242 10.6959 10.8278
1105 3 12.5735 8.95895 10.6899
3606 2 12.4903 10.5991 8.91158
289 2 17.7701 8.88336 8.95233
792 1 17.8492 10.7803 10.6937
608 3 16.1439 10.7752 8.85827
3105 2 16.1336 9.10557 10.7703
1107 3 1.95133 12.5194 10.8016
1106 3 0.176176 12.4848 8.96538
1609 1 1.9201 14.2626 9.00948
2610 2 0.246619 14.3057 10.7986
610 3 3.61918 14.2479 10.7186
2107 1 3.61471 12.5109 8.93456
2612 1 7.1724 14.3241 10.8505
2611 3 5.42006 14.3197 9.1093
3107 2 7.12556 12.5679 9.22966
3106 3 5.3951 12.4975 10.8304
45 3 10.6771 12.5588 9.07761
611 3 10.7317 14.2218 10.8051
1108 3 8.97947 12.5807 10.7859
3611 1 9.02755 14.3371 9.0171
612 2 12.4527 14.3649 8.96266
1109 3 14.1868 12.5506 8.99879
2613 1 14.239 14.3396 10.7066
3108 1 12.4407 12.5254 10.7387
1293 2 17.9354 12.522 9.13367
1110 3 15.9955 12.526 10.8092
1612 3 16.1427 14.3129 8.92065
2860 1 17.7812 14.1953 10.8284
1719 1 1.80382 17.8901 9.06244
2110 2 0.242889 16.1102 9.06729
2721 2 0.139866 17.8791 10.8809
3109 2 2.0173 16.1551 10.699
48 3 7.22358 15.9896 9.07471
659 1 3.65149 17.7703 10.9712
1111 2 5.52072 16.1638 10.7949
2724 2 7.17722 17.9061 10.8793
2722 1 5.47573 17.7777 9.11662
3110 1 3.521 16.1192 9.12257
661 2 10.6606 17.6668 10.6618
1112 3 10.676 15.9806 8.83989
3111 3 9.02246 15.854 10.753
3723 2 8.93142 17.9326 9.06588
663 3 12.45 17.8578 9.0046
1113 2 12.6133 16.1617 10.7596
2113 1 14.2574 16.0489 8.9227
2727 1 14.3252 17.8508 10.688
1725 1 16.1436 17.9641 9.02521
2047 3 17.8637 16.0909 9.09186
2908 1 17.6655 17.937 10.7968
3112 1 16.1607 16.0022 10.8169
32 2 0.119761 1.72326 12.7774
613 2 0.183983 0.116671 14.4969
1114 3 2.0836 1.70651 14.4567
3595 2 1.93127 0.130174 12.6226
34 1 7.28685 1.8514 12.5837
614 1 7.08872 0.214092 14.5537
1595 2 5.34794 0.319189 12.6559
2096 1 3.6714 1.89313 12.6208
2614 3 3.76154 0.111068 14.4609
3113 2 5.45444 2.13344 14.361
1115 2 9.03892 2.02561 14.4768
2097 3 10.798 1.98334 12.6682
2615 1 10.8727 0.283769 14.3323
3597 2 9.06773 0.265016 12.5989
35 1 14.3179 1.91816 12.5713
615 3 14.3708 0.224512 14.2576
1596 3 12.4626 0.206458 12.5011
3114 2 12.5818 1.97102 14.4666
282 1 17.9716 1.9513 12.603
801 3 18.0079 0.323786 14.4879
1116 2 16.2775 1.97571 14.3504
3598 1 16.1846 0.160633 12.579
618 3 0.163457 7.29661 14.4427
1598 3 1.91773 3.50935 12.5531
2099 2 0.296056 5.35511 12.6878
2616 1 0.216722 3.64472 14.4329
3115 3 2.07711 5.45603 14.3105
3603 3 1.85178 7.19162 12.6849
37 2 3.71103 5.44724 12.5918
620 2 7.28262 7.1901 14.286
616 1 3.77888 3.79932 14.3646
1117 3 5.50235 5.31489 14.4749
1604 1 5.40786 7.14659 12.7082
2101 3 7.35891 5.31958 12.7254
2620 2 3.6792 7.34981 14.3041
2617 1 7.23579 3.59622 14.3396
3600 3 5.51764 3.72484 12.5299
38 2 10.9492 5.575 12.6293
617 1 10.926 3.75914 14.4176
1599 1 9.18491 3.84456 12.599
2621 3 10.8852 7.18501 14.3677
3116 3 9.08436 5.35313 14.4294
3605 1 9.17126 7.12162 12.6062
622 3 14.4963 7.26363 14.3085
1118 3 12.7155 5.49496 14.3808
1607 1 12.644 7.17555 12.6366
2102 3 14.3886 5.38185 12.4903
2618 3 14.3945 3.72012 14.3431
3601 2 12.4872 3.72572 12.5235
806 2 17.7724 7.21428 14.3971
1601 2 16.0765 3.65155 12.5562
2036 2 17.7569 5.43381 12.6287
2866 3 17.9177 3.66509 14.2648
3117 3 16.2179 5.5437 14.3186
3609 3 15.9973 7.3385 12.4682
40 2 0.0213119 8.9886 12.593
1119 1 1.74166 9.01058 14.311
1602 2 1.87416 10.8388 12.5744
2619 3 0.0922036 10.8656 14.3466
41 3 7.30462 8.86884 12.5412
619 2 3.71476 10.6608 14.3828
2103 3 3.68186 9.04895 12.6604
2622 3 7.26054 10.7113 14.4006
3118 3 5.49834 8.93545 14.3046
3604 3 5.24834 10.8055 12.6581
621 3 10.8058 10.6731 14.4111
1120 3 8.97285 8.82483 14.3394
1606 1 8.95131 10.7508 12.7031
2105 3 10.711 8.93797 12.7015
43 3 14.3854 9.04929 12.5067
2623 3 14.4224 10.8665 14.4275
3119 1 12.6709 8.97151 14.2393
3607 1 12.586 10.7806 12.5776
290 3 17.7981 9.08389 12.5832
1121 1 16.1437 9.26452 14.2663
1608 1 15.9682 10.8848 12.5221
2870 3 17.8023 10.8884 14.3047
623 1 0.110307 14.1197 14.4192
2106 1 0.167409 12.6441 12.5757
3120 3 2.00222 12.3863 14.4012
3610 2 1.99758 14.4301 12.4524
44 1 3.63523 12.4837 12.5173
624 1 7.33414 14.2243 14.5091
1122 3 5.3482 12.6566 14.3185
1610 3 5.48376 14.3496 12.4622
2108 3 7.11412 12.5863 12.7894
2624 3 3.47755 14.2314 14.2876
46 3 10.6652 12.521 12.6499
2625 1 10.7847 14.4578 14.43
3121 3 8.92701 12.6035 14.422
3612 3 8.99584 14.2388 12.6018
625 2 14.3938 14.3784 14.3372
1123 2 12.4428 12.4962 14.2282
1611 2 12.6185 14.37 12.5287
2109 3 14.3464 12.5271 12.5053
811 2 17.9266 14.3178 14.3206
2044 2 17.8062 12.4478 12.536
3122 2 16.0663 12.6186 14.327
3613 1 15.9798 14.2303 12.5817
47 2 0.177803 16.1107 12.7094
676 3 0.117031 17.7299 14.473
1124 3 1.912 16.0086 14.3171
3720 2 1.91056 17.8808 12.6232
49 2 7.25696 16.1748 12.582
678 1 7.21691 17.7517 14.3881
1721 2 5.52292 17.8249 12.5034
2111 2 3.64296 16.1324 12.5591
2740 1 3.54686 17.7687 14.2413
3123 2 5.49008 16.1067 14.3217
1125 3 9.01302 16.2234 14.4353
2112 1 10.8471 15.9582 12.5104
2741 1 10.8349 17.8199 14.3491
3724 2 9.07496 17.8709 12.4843
50 1 14.3012 16.0158 12.4413
680 1 14.2985 17.8653 14.3241
1724 2 12.5773 17.8012 12.4707
3124 2 12.494 16.0579 14.2589
297 2 17.8751 16.2081 12.6227
926 1 17.8991 17.9611 14.3101
1126 3 16.0682 16.1073 14.4181
3726 1 16.1066 18.0137 12.613
1613 2 1.91117 0.0615742 16.1937
2114 3 0.0937509 1.98724 16.1568
2626 2 0.12397 0.215143 17.8472
3125 2 1.94176 1.89825 17.9216
51 1 3.82094 1.76378 16.2162
502 3 3.76968 0.108665 17.9801
1128 1 5.54393 1.85599 18.033
2115 1 7.1807 1.92374 16.1719
2628 3 7.30691 0.0726623 17.8633
3614 2 5.48238 0.0679399 16.1709
52 2 10.8906 1.93105 16.2917
503 1 11.09 0.0465377 17.8956
1614 3 9.12932 0.277607 16.1432
3127 3 9.13409 1.92796 17.8485
1130 1 12.7835 2.12799 17.8664
2116 2 14.3313 2.01902 16.1442
2630 1 14.379 0.131081 17.6576
3615 1 12.6696 0.213847 16.0648
1615 2 16.1548 0.119982 16.0345
2051 1 17.9025 1.93313 16.2376
2501 2 17.7146 0.244759 17.8444
3129 1 15.9406 1.98485 17.7823
53 1 0.141121 5.55988 16.2258
506 1 0.167397 3.69823 17.8649
1132 2 2.13364 5.40627 17.7864
1618 3 1.98059 7.28275 16.0691
2636 2 0.257549 7.28778 17.7809
3616 2 2.1439 3.52278 16.1161
54 1 7.207 5.48642 16.2081
508 1 7.2691 3.60637 18.055
513 1 3.68835 7.27677 17.884
1616 2 5.55741 3.66742 16.2404
2117 3 3.70451 5.61041 16.0264
2640 2 7.38245 7.22865 17.7772
2632 1 3.78984 3.6656 17.7429
3131 2 5.38488 5.5023 17.9167
3620 1 5.37953 7.32523 16.3017
515 1 10.8944 7.06039 17.8364
1134 2 8.9254 5.28859 18.0296
1620 3 9.02336 7.13555 16.0995
2118 1 10.7536 5.48431 16.3914
2633 3 10.9432 3.75563 18.0046
3617 2 8.95781 3.73601 16.1246
55 1 14.3752 5.56086 16.1122
510 3 14.4657 3.76631 17.9558
1617 1 12.5296 3.54938 16.0506
2644 3 14.3882 7.31066 18.0081
3133 2 12.6268 5.29354 17.9691
3622 1 12.761 7.1444 16.1823
303 2 17.8618 5.52594 16.1227
819 2 17.9055 3.61964 17.9093
1136 2 16.2299 5.47765 17.9131
1622 3 16.1703 7.36923 16.1184
2511 2 17.8629 7.25125 17.8481
3618 2 16.3166 3.73072 16.0037
511 3 0.0356061 10.7739 18.075
2119 2 0.0718011 9.2201 16.1238
3135 3 1.85589 9.23248 17.8274
3619 1 1.91699 10.7751 16.0037
56 3 3.62257 9.13502 16.1781
516 2 7.38903 10.7581 17.8092
1138 2 5.56721 9.05437 17.7622
1619 1 5.47535 10.7843 15.9001
2120 3 7.21467 8.8793 15.9914
2638 3 3.79945 10.7504 17.7953
57 3 10.9547 8.94123 16.0225
2641 2 11.0286 10.6509 17.9313
3137 1 9.08768 8.86668 17.7552
3621 2 9.19176 10.8187 16.1191
519 1 14.5629 10.7642 17.8833
1140 1 12.824 9.08991 17.93
1621 1 12.6105 10.6127 16.0153
2121 3 14.3342 8.92564 16.0341
825 3 17.9691 10.8192 17.844
2056 2 17.9239 9.04437 16.0742
3139 3 16.0651 9.08397 17.9213
3623 3 16.1256 10.8658 16.0958
58 2 0.23245 12.394 16.1642
1142 1 1.9277 12.5184 17.8959
1623 3 1.80901 14.4015 16.2327
2646 2 0.149669 14.2068 17.9741
59 3 7.26794 12.4564 16.1473
522 3 3.78122 14.2968 17.913
2122 3 3.66377 12.5178 16.0321
2648 2 7.28125 14.2696 17.789
3141 2 5.51044 12.4835 17.9474
3624 1 5.56489 14.2736 16.0962
523 3 10.6958 14.391 17.8826
1144 1 9.11848 12.5193 17.7221
1624 2 9.03443 14.3285 16.0513
2123 2 10.8917 12.5273 16.0056
60 1 14.3403 12.5905 16.1708
2650 2 14.3839 14.3624 17.9255
3143 1 12.6199 12.4669 17.6832
3625 2 12.4814 14.3522 16.0941
308 1 17.8367 12.6053 16.1113
1146 1 15.9814 12.5264 17.9878
1625 3 16.1852 14.2304 16.2192
2521 2 17.8423 14.2221 17.9216
1738 3 1.99643 17.7553 16.0485
2124 1 0.15233 16.0825 16.1666
2751 1 0.0534087 17.9365 17.8542
3145 3 1.87033 16.0875 17.9506
61 3 3.62878 15.9715 16.1171
691 1 3.86607 17.6496 17.8966
1148 2 5.5197 16.028 17.855
2125 2 7.20063 16.1791 16.0631
2755 2 7.27983 17.9085 17.8578
3740 3 5.40417 17.8469 16.168
62 2 10.7837 16.0428 16.0592
693 2 10.759 17.817 17.8138
1740 2 8.97515 17.9014 16.0429
3147 1 8.98814 16.0883 17.8882
1150 2 12.6178 16.11 17.9058
2126 1 14.2768 16.0752 16.13
2759 2 14.347 17.8729 17.8777
3742 2 12.5582 17.8222 16.2464
1742 1 15.9994 17.9023 16.1546
2061 1 17.845 16.1023 16.1915
2938 2 17.8043 17.8037 17.9072
3149 1 16.1323 16.0599 17.8986
501 1 0.200815 0.125187 21.305
63 2 0.165765 1.89893 19.6161
1127 3 1.8954 2.06793 21.397
3626 1 1.93686 0.200356 19.6697
504 3 7.45662 0.165212 21.5035
64 2 7.168 1.80113 19.6873
1626 3 5.5736 0.142549 19.6577
2127 3 3.72599 1.92888 19.5771
2627 2 3.76123 0.169937 21.2979
3126 1 5.27664 1.97993 21.4716
1129 3 9.06853 1.87929 21.287
2128 3 10.9443 1.83179 19.656
2629 3 10.8423 0.179628 21.4294
3627 2 9.15355 0.25069 19.5886
505 3 14.4171 0.130368 21.3789
65 2 14.3846 1.88192 19.6497
1627 3 12.6908 0.108804 19.5667
3128 3 12.689 1.76199 21.4739
815 3 17.964 0.166905 21.4665
313 2 17.7827 1.87116 19.657
1131 2 16.1599 1.86757 21.3708
3628 1 16.1426 0.0397992 19.7211
512 1 -0.103126 7.3091 21.4455
1628 1 2.06229 3.71311 19.5327
2129 1 0.24 5.50926 19.4448
2631 1 0.0664395 3.82424 21.236
3130 3 1.97275 5.43472 21.2529
3631 3 1.90192 7.2939 19.6058
507 2 3.60919 3.69718 21.3044
517 2 7.2978 7.3425 21.4133
66 1 3.86167 5.61076 19.5967
1133 2 5.45371 5.49987 21.4759
1632 1 5.53047 7.36823 19.5184
2130 1 7.07015 5.45572 19.6638
2639 1 3.7164 7.30864 21.4778
2634 3 7.15797 3.63656 21.3698
3629 2 5.37166 3.76955 19.559
509 3 10.7757 3.52764 21.4441
67 3 10.8346 5.38852 19.6375
1629 3 8.92105 3.68677 19.6764
2642 3 10.7877 7.10449 21.4413
3132 2 8.94469 5.45208 21.297
3633 1 8.95239 7.08342 19.676
520 3 14.3451 7.17208 21.4753
1135 1 12.625 5.41013 21.503
1634 3 12.5756 7.20382 19.6456
2131 3 14.3475 5.52175 19.6849
2635 1 14.4452 3.53938 21.4321
3630 3 12.5924 3.65785 19.8576
826 3 17.9837 7.2338 21.5336
1630 1 16.2777 3.78324 19.6351
2316 3 17.8967 5.4714 19.7692
2507 3 17.7642 3.7039 21.5129
3134 3 15.9548 5.44152 21.4177
3635 1 16.2146 7.26318 19.6958
68 1 0.0908134 9.12943 19.6826
1137 3 1.94507 9.1381 21.2161
1631 1 1.88914 10.8649 19.655
2637 2 0.0937879 10.8305 21.4113
514 2 3.86194 10.8551 21.3427
69 1 7.38359 9.00826 19.4987
2132 3 3.81497 9.16566 19.5343
2643 2 7.37633 10.8645 21.4986
3136 3 5.53494 9.12172 21.3381
3632 2 5.68705 10.8416 19.6268
518 2 10.8292 10.5985 21.3314
1139 2 9.03639 9.01572 21.4014
1633 2 9.17219 10.7448 19.5945
2133 3 10.9851 9.13456 19.657
70 2 14.4165 8.95707 19.8232
2645 1 14.4488 10.7562 21.5412
3138 3 12.6414 8.94378 21.3921
3634 1 12.7661 10.8298 19.661
318 1 17.8535 8.93067 19.7072
1141 3 16.0734 8.88596 21.5286
1635 3 16.2032 10.8001 19.6466
2514 3 17.9838 10.659 21.5992
521 2 0.0754341 14.4114 21.4795
2134 3 0.180193 12.5783 19.7809
3140 1 1.91501 12.6219 21.6477
3636 3 1.99247 14.2005 19.6494
524 1 7.21809 14.2758 21.5558
71 3 3.81665 12.5799 19.6664
1143 2 5.65739 12.5059 21.3773
1636 1 5.6653 14.4597 19.5457
2135 3 7.62462 12.5563 19.6586
2647 3 3.73218 14.335 21.5357
72 1 10.8605 12.6384 19.5973
2649 2 10.7222 14.1642 21.4843
3142 3 9.0565 12.4891 21.5482
3637 3 9.01586 14.5 19.6023
525 1 14.316 14.1514 21.3686
1145 2 12.5478 12.5986 21.319
1637 1 12.556 14.2033 19.5144
2136 2 14.2455 12.5274 19.6328
835 2 17.9177 14.3547 21.4329
2321 1 17.9828 12.4309 19.7389
3144 1 16.1215 12.4729 21.5196
3638 3 16.1652 14.3072 19.6894
690 3 0.164436 17.8018 21.4291
73 1 0.0781002 15.9796 19.6432
1147 3 1.92717 16.1825 21.3192
3751 3 1.9273 17.9564 19.5927
695 3 7.29408 17.9466 21.4182
74 1 7.20574 16.0389 19.7046
1502 1 5.38985 17.8399 19.6039
2137 3 3.76533 15.978 19.6205
2754 1 3.58496 17.8214 21.4825
3146 2 5.57522 16.1655 21.5011
1149 2 9.04563 16.1356 21.4056
2138 1 10.6999 16.0978 19.7743
2757 3 10.8752 17.9379 21.4086
3753 1 9.02513 17.8824 19.6981
698 3 14.3207 17.8545 21.2965
75 1 14.2531 16.0442 19.5127
1504 2 12.449 17.8721 19.608
3148 3 12.5633 15.9199 21.3722
941 1 17.9281 17.7982 21.2603
323 2 17.9648 15.9618 19.5352
1151 2 16.1463 16.2253 21.3682
3755 1 16.0696 17.8965 19.5989
1638 2 2.01942 0.0401792 23.1856
2139 3 0.22075 1.89646 22.9916
2651 3 0.034591 0.197398 24.8383
3150 1 1.95072 1.98432 24.7819
526 3 7.20099 0.173789 24.8487
77 1 5.44831 2.1099 24.9018
76 2 3.72066 1.98799 23.1079
2140 3 7.17973 1.9595 23.1195
3640 3 3.78199 0.201883 24.9369
3639 3 5.49601 0.0836864 23.1157
78 2 10.7748 1.89447 23.2146
1152 1 9.00404 2.11149 25.039
1640 2 10.8395 0.273563 24.9617
1639 1 9.14484 0.186818 23.213
2142 1 14.3856 1.93034 23.1837
2141 2 12.7635 1.91238 24.9139
2652 1 14.3416 0.141616 24.9217
3641 3 12.5451 0.235945 23.2158
1641 3 16.1175 0.2157 23.2209
2326 3 17.8667 1.8845 23.2092
2526 2 17.9677 0.154893 24.8711
3151 2 16.2213 1.81239 24.8891
528 1 0.34761 7.23224 25.0892
80 2 1.82973 5.52826 24.8734
79 3 -0.0285591 5.54956 23.1305
1645 1 1.79782 7.25804 23.173
3643 1 0.130341 3.70806 24.9098
3642 2 1.96603 3.64463 23.0765
527 3 3.54434 3.71017 24.9586
81 1 7.3008 5.4531 23.2085
1153 2 5.32641 5.52303 24.8488
1648 1 3.65716 7.3577 24.7083
1643 3 7.17757 3.71501 24.9503
1642 2 5.49923 3.71887 23.081
2143 3 3.46465 5.47936 23.0581
2655 2 7.30403 7.31683 24.9686
3648 2 5.44008 7.17501 23.1092
1649 2 9.20385 7.2042 23.3363
2145 2 9.1792 5.43569 24.8812
2144 1 10.836 5.36421 23.1246
2653 2 10.7551 3.65378 24.9771
3650 1 10.8707 7.22333 25.1008
3644 2 9.03652 3.63214 23.1974
530 1 14.401 7.04855 24.9882
82 2 14.2387 5.3639 23.3923
1644 2 12.5458 3.42086 23.2768
3152 2 12.5144 5.33046 24.9231
3652 2 12.4871 7.10125 23.3143
3646 3 14.3559 3.63228 24.9179
841 3 17.9111 7.22839 24.9781
329 3 17.9512 5.4039 23.3256
83 2 16.1662 5.38592 24.9093
1651 1 16.1311 7.0709 23.2826
3893 1 18.0259 3.7836 25.0693
3645 1 16.1757 3.64904 23.2669
1154 1 1.91113 9.17267 25.1165
1646 3 0.163467 10.7999 24.8887
2146 1 0.334216 9.11235 23.0218
3647 2 1.9989 10.7377 23.2108
84 1 3.66666 9.21434 23.1229
1647 2 5.6589 10.7346 23.2495
2148 1 7.22146 8.82008 22.9828
2147 1 5.56475 8.92354 24.9351
2654 2 3.85082 10.7251 24.934
3651 2 7.43098 10.6717 24.9091
529 1 10.904 10.8762 25.0989
85 1 10.8376 8.97783 23.2464
3153 1 9.08461 8.97065 24.8959
3649 3 9.06656 10.5811 23.2419
86 2 12.6721 8.93819 24.9116
1652 1 14.2194 10.6868 24.9402
1650 1 12.5457 10.6666 23.1075
2149 3 14.3107 8.77118 23.2044
1155 1 16.0724 8.75293 25.045
1835 1 18.0156 10.7403 25.0184
2333 3 17.8586 8.91502 23.3368
3653 1 16.081 10.6253 23.37
87 3 0.230242 12.5436 23.1718
1653 2 1.96146 14.411 23.2907
2150 1 2.0147 12.6153 24.9759
2656 3 0.208934 14.2977 24.9722
531 1 7.35604 14.3498 25.0923
88 2 7.39339 12.4318 23.3203
2151 2 3.80816 12.4807 23.1293
3154 2 5.44125 12.4219 25.0709
3655 1 3.87644 14.3014 24.9837
3654 2 5.57061 14.2635 23.1992
89 2 9.14371 12.4433 24.9331
1655 1 10.7044 14.0671 24.8659
1654 2 8.94633 14.3981 23.2511
2152 1 10.7761 12.3083 23.1997
90 2 14.3218 12.5386 23.2568
1156 3 12.6925 12.5332 24.8321
2657 2 14.3471 14.3676 24.9185
3656 1 12.5418 14.2325 23.2127
337 2 17.8008 12.5744 23.2611
1656 1 16.1724 14.3978 23.0859
2153 1 16.0052 12.5594 24.9642
2531 1 18.0296 14.2145 24.8859
1513 1 1.7685 17.961 23.1583
2154 1 0.186385 16.0731 23.0947
2776 3 0.0889876 17.9611 24.7955
3155 2 1.98417 16.0807 24.9287
715 2 7.37097 17.9206 25.0376
92 1 5.54587 16.1834 24.9851
91 2 3.7087 16.1658 23.3704
2155 1 7.26304 16.1396 23.2281
3767 1 3.70985 17.891 24.9578
3766 2 5.51583 17.9328 23.1917
93 2 10.8632 15.9773 23.1311
1157 3 9.12797 16.1405 24.9418
1515 2 9.19128 17.7804 23.2715
1516 1 10.933 17.8164 24.8742
2157 3 14.2563 15.9745 23.095
2156 2 12.5819 16.1489 24.8599
2778 2 14.3859 17.8007 25.0184
3769 1 12.5388 17.6846 23.1026
1519 1 15.9927 17.703 23.1963
2341 2 17.9746 16.261 23.1499
2963 1 17.9538 17.9435 24.9565
3156 2 16.0478 16.0908 24.9095
532 3 0.181913 0.221136 28.4876
94 2 0.120745 1.99554 26.4909
1158 3 1.87708 1.93366 28.4335
3657 3 1.96068 0.253111 26.792
533 3 5.50956 0.104382 26.7181
534 2 7.12736 0.34818 28.4004
1159 1 3.68544 1.9906 26.6989
2159 2 7.21816 1.91436 26.7235
2658 2 3.7378 0.220658 28.4853
3157 3 5.4106 1.96896 28.5229
1160 3 8.98897 1.94285 28.4086
1658 1 8.9498 0.204081 26.7348
2659 2 10.7859 0.202157 28.4112
3158 3 10.8619 1.8304 26.669
535 1 14.2938 0.0525814 28.4817
97 3 14.408 1.87062 26.6791
2660 2 12.6967 0.192805 26.745
3159 2 12.5643 2.10621 28.5197
845 1 18.0019 0.162011 28.4618
344 2 18.0805 1.99875 26.8481
1161 3 16.2603 2.01696 28.548
3660 3 16.1415 0.164908 26.7191
536 2 1.95594 3.75085 26.7002
540 1 0.238086 7.13933 28.381
1162 2 0.219465 5.4606 26.5842
1664 2 2.10033 7.20035 26.7471
2661 2 0.137586 3.75378 28.3158
3160 2 2.02516 5.46902 28.4062
537 1 3.82331 3.75678 28.5178
543 1 7.26664 7.1833 28.4906
1163 2 5.54293 5.54341 28.4711
1661 2 5.50178 3.73496 26.565
2162 1 3.7408 5.42173 26.5894
2668 1 3.77561 7.21218 28.5084
2667 1 5.65777 7.17139 26.6258
2663 1 7.15453 3.69082 28.4922
3161 1 7.25815 5.48444 26.5974
538 1 10.7571 3.6039 28.5623
99 1 10.8226 5.32479 26.7844
2669 2 10.7345 7.32641 28.4758
2662 2 8.97339 3.68368 26.7194
3162 3 8.93077 5.40315 28.4432
3668 2 9.03058 7.22026 26.6789
545 2 12.6181 7.17311 26.6917
546 1 14.4865 7.03815 28.5738
1165 2 14.4239 5.44682 26.7218
1164 3 12.7751 5.51003 28.5287
2664 1 14.5193 3.56494 28.5056
3663 2 12.5677 3.7953 26.7089
853 2 17.8497 7.14439 28.5802
539 2 16.2622 3.61717 26.7164
1349 2 17.9341 5.40147 26.6541
1670 2 16.2254 7.17341 26.7541
2536 1 17.947 3.76261 28.4086
3163 2 16.2036 5.44571 28.3742
1166 2 1.78091 9.08348 28.4412
2165 2 0.213563 8.97399 26.6565
2666 3 0.183018 10.8598 28.5279
2665 2 1.79282 10.8426 26.7941
541 2 3.67809 10.7678 28.3592
103 1 7.24835 9.18826 26.8093
2670 2 7.12314 10.8052 28.4059
3165 3 5.53502 8.89797 28.4353
3164 1 3.72714 9.0128 26.7454
3666 2 5.537 10.7441 26.7045