ITEM: TIMESTEP
5000
ITEM: NUMBER OF ATOMS
4000
ITEM: BOX BOUNDS pp pp pp
1.4099210631420789e-01 3.5593067893685600e+01
1.4099210631420789e-01 3.5593067893685600e+01
1.4099210631420789e-01 3.5593067893685600e+01
ITEM: ATOMS id type x y z
1 1 0.153881 1.98487 1.91744
1131 3 7.16032 1.8863 16.1645
2064 2 1.94377 1.97869 0.122087
2637 1 10.8012 9.08549 16.0433
564 3 3.73037 1.89216 2.01192
565 2 7.14102 1.92496 1.87157
1636 1 8.88133 10.7838 16.1128
58 1 5.51615 0.0846554 16.1199
3061 3 5.36326 1.82684 0.0151857
2133 3 3.66744 8.91718 16.0791
566 3 10.7813 1.86118 1.82335
1640 2 16.0279 9.0559 17.7761
3063 1 8.99426 0.150739 2.06688
2135 2 15.9302 10.8455 16.0858
567 1 14.2719 1.83525 1.89311
2134 1 6.97876 9.0873 16.0666
57 1 1.95853 0.239167 15.9826
1635 3 5.36697 10.7414 16.2087
2137 2 0.238694 14.3226 17.945
3 3 16.2169 0.176498 1.85288
3066 1 17.8855 1.74228 1.98387
2136 3 1.90015 12.5672 17.8384
4 3 1.90883 5.48623 0.250962
5 1 2.0044 3.61954 1.91946
6 3 1.86036 7.2056 1.93708
1071 1 0.110152 5.5001 1.9689
3067 1 0.195806 3.56968 0.197723
1647 3 16.1042 16.2324 14.355
56 1 16.2472 17.9195 12.4834
8 3 3.63841 7.37354 0.151688
1072 2 7.12387 5.46246 1.83325
1075 2 5.39948 7.23633 1.982
1074 1 3.74845 5.60295 1.89532
1644 1 14.3104 17.8735 14.4666
2570 2 7.08264 3.56025 0.227908
1646 3 12.5214 16.2203 14.3317
3569 2 5.31632 3.69932 2.03399
9 1 8.93001 5.45772 0.179047
10 1 8.9936 3.71299 1.84118
620 1 14.4293 16.1866 12.5073
1076 1 10.6998 5.44237 1.94006
1568 1 8.87057 7.19243 1.96642
3068 2 10.5865 3.63553 0.160183
11 1 12.2481 5.36095 0.075762
1130 3 3.50155 0.0974502 17.7522
570 2 12.4256 3.60779 2.029
1571 2 14.2358 7.06012 0.1159
1570 3 14.1968 5.41804 1.90104
1569 3 12.4416 7.17912 1.93102
572 3 15.8061 3.51381 1.79311
1081 3 16.0363 7.07652 1.8477
1079 3 17.9231 5.40954 2.01037
3619 3 9.13379 17.8975 12.546
2649 2 10.7695 17.8127 14.3583
2144 3 17.7437 16.0323 16.1671
575 3 1.82917 10.9055 1.95962
1643 2 8.93682 15.9323 14.32
1574 3 0.0778822 9.13585 2.05889
3070 2 0.118102 10.8893 0.188945
576 2 3.7714 10.7887 0.120121
1085 2 5.38086 9.01904 0.128485
1083 1 5.54466 10.6837 1.89814
1577 2 7.24991 10.7302 0.152887
1576 1 7.08666 9.02127 1.75232
1575 3 3.6557 9.03614 1.76992
54 2 10.8885 15.978 12.5561
1087 2 9.01865 10.6161 1.8582
1129 1 3.66264 1.98035 15.9146
2071 3 10.7201 9.02702 1.83692
580 3 12.5339 10.8239 1.85247
2630 3 5.36035 1.8098 17.7211
1642 2 5.45716 15.8457 14.2892
2074 2 14.3702 8.8092 1.80075
1133 3 10.8441 1.94062 16.1368
1581 3 16.0581 10.6555 1.88671
618 1 7.25943 16.0467 12.6318
2075 2 16.0188 8.91623 0.0828623
53 1 3.66635 16.1309 12.4061
2078 1 1.91669 14.4677 2.0201
2077 1 0.12306 12.59 2.05145
2623 3 1.97027 17.8612 12.4961
2082 2 5.43574 14.5406 1.85178
2081 3 3.70669 12.5179 2.08166
1150 2 1.8559 16.2347 14.3622
2576 3 7.19044 14.4187 0.0642969
2575 3 7.13095 12.59 1.93942
2641 2 1.90906 14.2964 16.0747
1583 1 9.05107 14.3216 1.75634
52 2 0.186254 16.0741 12.5465
2579 3 10.7132 12.5387 1.90408
3618 2 16.2085 14.3662 12.5485
2085 2 12.5831 14.5277 1.94329
2580 3 14.3116 12.4272 1.92673
3074 3 12.5312 12.7085 0.194981
3574 2 14.2871 14.3492 0.308532
3643 2 14.4222 16.0408 16.269
3146 2 17.9089 14.42 14.393
2583 3 16.1836 14.3125 1.89993
1622 1 17.8265 12.5385 12.5511
1149 3 16.1115 12.8097 14.4014
3617 2 14.3848 12.6928 12.6589
2584 3 0.1131 16.2144 1.9392
2622 1 12.49 14.3839 12.6705
17 3 5.40615 16.1162 -0.00392235
3632 2 0.137157 10.8022 17.8473
2585 3 7.19614 17.766 -0.0316351
2132 1 0.296641 8.9211 16.1488
3078 3 7.20532 16.2034 1.9162
3077 2 3.77225 16.2038 1.90904
18 2 9.11858 16.151 0.143303
1585 3 10.8534 17.9997 0.0637872
3080 3 10.7665 16.1738 1.9481
1141 2 1.81446 10.9047 16.1161
19 1 12.4305 16.0483 0.153562
2088 1 14.4184 17.749 0.0761553
3081 2 14.4847 16.2336 2.0415
3581 3 12.5618 17.8065 1.85675
1146 2 14.3032 14.4682 14.2747
1586 3 17.8676 16.1628 1.92689
1147 3 12.5437 12.6269 14.178
1633 2 16.227 7.23454 16.2495
584 3 1.92253 1.88872 7.22311
1144 1 12.4755 10.7674 16.1632
1139 3 16.0323 3.67358 16.0257
2563 3 1.86028 2.01741 3.69708
3615 3 9.12639 14.4499 12.6427
3583 3 0.0104538 2.15426 5.47555
22 1 5.46307 1.89478 7.19133
3616 2 10.8089 12.6203 12.4695
1566 3 7.25012 0.122227 3.67207
1637 2 14.2673 10.7504 17.9151
3139 3 14.3649 3.60347 17.9002
2564 2 5.53759 1.81518 3.67481
3085 1 7.17488 0.251572 7.17562
3585 3 3.80067 1.84568 5.40657
3584 3 7.30585 1.78964 5.44312
586 3 9.06547 2.05403 7.33349
2130 2 12.328 7.21576 15.8981
2131 1 14.2791 5.46483 16.0391
2565 3 8.95634 1.89886 3.6658
3086 3 10.8329 0.216824 7.35642
3586 2 10.7036 1.83242 5.50474
23 3 12.5508 2.05331 7.17827
1136 2 12.7135 3.56644 15.9249
25 2 14.3059 1.93934 5.35392
2568 3 14.3111 0.0955211 3.69859
2567 1 12.4008 1.82854 3.78242
3087 1 12.5175 0.103177 5.5832
1145 1 9.06779 12.5553 14.3276
588 1 16.021 2.00906 7.36509
1137 1 14.3393 7.33883 17.7855
64 3 12.5972 5.41883 17.8747
75 2 12.6074 15.8954 17.9026
3564 3 16.0852 1.87972 3.65944
27 3 1.86548 5.55175 7.26304
28 1 1.71298 7.31909 5.36063
589 1 0.0892086 5.56688 5.42184
3641 1 10.7721 15.9981 16.1611
3090 3 1.89916 3.6853 5.42485
73 2 10.7429 14.2788 14.4288
3589 3 0.0632504 3.73684 7.25179
3567 2 0.0940636 7.28091 3.53436
3566 1 1.78588 5.46248 3.74047
29 3 3.72667 3.78085 7.14573
593 1 3.63221 7.27183 6.98968
592 1 7.04777 5.42988 5.39833
591 1 7.00335 7.3062 7.24564
590 3 3.57041 5.45408 5.33359
1095 2 5.44454 5.5131 7.23253
1094 1 5.45747 7.32186 5.53097
1073 1 3.61829 7.22854 3.81571
2068 3 7.09035 7.37638 3.53752
2069 2 3.46524 3.82967 3.57393
3593 3 5.31209 3.65874 5.46109
3592 1 7.02807 3.63975 7.15277
3570 2 5.4599 5.43897 3.73162
3568 3 7.15537 3.59975 3.66238
31 3 8.88897 3.73195 5.48426
569 1 10.6345 7.41031 3.88098
594 1 10.8566 5.29862 5.25019
1097 1 8.90645 5.37933 7.17465
1590 1 8.90207 7.27019 5.41809
1589 1 10.6813 7.1953 7.08372
3594 3 10.7575 3.73434 7.3217
3572 2 10.7182 3.68791 3.72711
3571 3 8.79829 5.39719 3.65072
33 3 12.6359 3.90293 5.50275
35 1 14.2096 3.75814 7.34182
571 2 12.4277 5.46056 3.70119
595 2 14.2607 7.21573 7.26262
1100 2 14.4462 5.50777 5.37548
1099 2 12.4816 5.56181 7.29532
1592 1 12.5559 7.20823 5.48297
1572 1 14.201 7.12262 3.65806
3069 3 14.313 3.65639 3.73468
573 1 15.9851 5.43061 3.54474
3614 2 5.49176 14.2158 12.5235
1595 2 16.1495 7.17965 5.45082
1594 1 16.0117 5.35437 7.28997
2094 1 17.8241 7.20037 7.28198
2129 1 9.05018 7.48778 16.0203
3637 2 3.67689 16.2 16.1178
3638 1 5.52469 16.1112 17.9015
3595 1 16.054 3.71518 5.57228
13 1 0.226947 10.8403 3.76996
3639 1 7.29846 16.06 15.9996
596 1 1.89319 10.7148 5.44617
574 2 2.00408 9.05704 3.60994
1102 1 1.73151 9.07526 7.35194
1632 3 10.7296 5.4561 16.0043
38 3 3.6204 10.8477 7.27003
578 3 3.64187 10.7963 3.81268
577 1 5.26869 9.08956 3.72446
1106 3 7.27969 10.8028 7.27144
1104 1 5.44728 11.0173 5.41834
1103 2 3.50934 8.97948 5.44554
1084 2 7.21836 10.8098 3.64616
1597 2 7.161 9.06304 5.30036
1596 3 5.46305 9.06633 7.19091
39 2 10.6851 10.8212 7.21294
599 2 8.9835 10.8695 5.43216
579 3 10.7849 10.6732 3.59685
1107 1 8.99443 9.07566 7.13162
1578 1 8.89687 9.17078 3.72894
2097 1 10.8121 8.94094 5.44106
1108 3 12.6148 10.7837 5.40538
1598 3 12.4945 9.01724 7.21137
1579 3 12.6157 9.00991 3.76978
2072 1 14.3429 10.6592 3.60559
2099 2 14.4293 10.772 7.03625
2098 1 14.2953 9.03825 5.53484
1599 2 16.1169 8.81685 7.10951
1580 1 16.0664 8.91789 3.71058
2100 2 16.1893 10.6277 5.44817
3093 2 17.8189 10.6952 7.31111
3597 3 17.9496 9.0145 5.47876
506 1 9.10736 3.54364 16.1862
3124 1 3.64304 12.6757 12.6219
1582 3 1.97794 12.6977 3.73279
2103 1 1.87577 12.6466 7.20503
2102 2 1.80663 14.4342 5.35612
2101 2 0.00145855 12.6885 5.42091
2573 2 0.0381235 14.3924 3.85104
1112 2 7.30006 14.354 7.14218
1600 2 5.59975 12.6864 7.31439
2104 3 5.51929 14.4383 5.32062
2083 2 3.75591 14.3943 3.60081
2601 2 7.27668 12.4402 5.38116
2600 2 3.61502 12.8088 5.57496
2599 2 3.73554 14.3335 7.26096
2577 3 7.27425 14.4559 3.58196
2574 3 5.39196 12.49 3.63074
2604 1 9.14858 14.3578 5.59407
2603 1 10.7961 14.4405 7.24403
2602 3 10.9308 12.6838 5.4533
2578 3 8.95119 12.5715 3.6273
3097 2 9.08974 12.7043 7.20546
3072 3 10.6324 14.307 3.59745
602 1 14.2964 14.2164 7.31353
1603 3 12.6271 12.418 7.19817
2605 1 14.4015 12.3571 5.43529
2581 3 12.4927 12.5733 3.58642
3098 3 12.5419 14.3351 5.39417
3575 1 14.5103 14.317 3.67225
1114 1 17.7978 12.5368 5.55665
3149 1 0.318316 16.1911 16.0165
2582 3 16.0641 12.4405 3.73596
3100 2 16.0648 14.2459 5.53977
3099 2 16.1493 12.3674 7.17287
3599 1 17.8996 14.3398 7.17738
63 3 10.8435 7.23986 17.7877
62 2 9.06167 5.5044 17.7795
1604 3 1.87791 16.0142 7.33763
3104 1 0.243321 16.1283 5.30695
3125 1 7.30525 12.6353 12.4432
3576 1 2.08173 16.2899 3.66545
3135 3 7.14119 3.71046 17.7141
2607 1 5.43919 18.0278 5.47982
2586 2 7.18592 17.8046 3.66376
2127 2 3.69065 3.67601 17.7332
3106 3 5.46792 16.1832 7.18935
1629 3 7.24533 5.53762 15.9587
3602 2 3.68602 16.2182 5.64706
3601 3 7.31417 16.0959 5.47877
3577 1 5.45213 16.2148 3.71715
1091 2 10.6492 18.059 3.66665
2107 2 9.04175 16.1393 7.09407
2608 2 9.04171 17.8391 5.46403
1630 3 3.64809 5.41831 15.9205
3603 2 10.7905 16.2344 5.35761
3579 1 9.06017 16.2262 3.73897
41 3 14.4688 15.9993 5.44068
1631 1 5.24299 7.12997 15.9794
516 1 3.71156 14.4152 14.3344
505 1 3.76272 7.08984 17.7849
3604 1 12.7454 16.1291 7.18912
3580 3 12.5972 16.0116 3.73374
583 2 16.2102 16.1318 3.77457
515 2 5.45755 12.6122 14.4608
2109 2 16.0378 15.9369 7.37177
61 1 5.46022 3.77634 16.0406
3110 3 17.8092 16.0692 5.49889
3582 3 17.945 17.9672 3.85823
21 2 0.0197163 1.9469 9.02344
604 1 -0.0124077 0.241056 10.6081
2110 2 1.89357 1.90918 10.7034
3625 3 1.96087 5.38814 17.8375
585 1 7.15503 1.77484 9.023
1092 2 5.40622 0.151201 8.87768
1608 3 7.15943 0.111572 10.6775
2638 2 14.364 8.90106 16.108
2111 3 5.53955 2.04908 10.7589
2591 3 3.73888 1.91162 9.00031
72 3 7.33328 14.0774 14.1927
2612 1 9.18714 1.88413 10.5826
2592 2 10.8879 1.86381 9.16138
3587 3 8.91438 0.143228 8.99434
587 2 14.1451 2.00282 8.92072
1609 3 14.4216 0.0832471 10.9283
1628 2 0.228986 5.5497 16.0234
2613 1 12.5274 1.98155 10.8964
504 2 1.94183 7.1896 15.9138
503 2 1.89143 3.65227 15.9375
3116 3 15.8585 1.82497 10.7411
3147 1 16.2564 12.475 17.9443
1093 3 1.9294 7.20446 9.04005
2091 2 1.96389 3.65182 8.89586
3148 3 16.0941 14.1481 16.2718
3118 3 0.313772 7.30302 10.7724
3117 1 2.03836 5.4095 10.8919
517 3 17.8388 14.2593 17.9908
30 1 5.38789 3.84784 8.91955
45 3 7.16434 7.3045 10.784
1096 2 3.6392 5.4123 8.98224
2112 1 7.36274 3.68164 10.4983
2616 3 3.65286 3.58297 10.7733
3091 1 7.10014 5.6089 8.95874
3608 3 3.71155 7.35124 10.8719
3607 3 5.39291 5.53042 10.6024
3591 1 5.34678 7.36279 9.00561
46 3 10.8355 7.28835 10.8509
1098 3 10.7756 5.6322 9.01178
1591 1 9.01361 3.75414 9.06167
1588 3 8.98204 7.16239 8.99827
2113 2 10.6973 3.60147 10.7772
3609 2 8.94296 5.45646 10.7835
32 2 12.4521 7.3644 9.11669
34 1 12.4518 3.66995 9.12257
36 1 14.1718 5.655 9.01138
609 3 14.3075 7.2273 10.7225
3119 2 14.0992 3.75715 10.6451
3611 2 12.4714 5.51322 10.8455
1120 2 17.9333 3.51089 10.7442
3144 1 14.3355 12.5111 16.0619
1593 2 17.8008 5.38035 9.03214
2093 3 16.1465 7.24648 9.01171
2595 1 16.055 3.47691 9.02481
3612 1 16.0466 5.49042 10.6829
48 3 2.02016 9.2404 10.7781
3123 3 1.85228 14.3177 12.6069
2596 3 1.84549 10.9379 9.07643
2621 3 0.0314383 12.6007 12.6051
37 1 3.75172 9.14028 9.16819
49 1 5.31869 9.17852 10.9738
612 3 7.21992 10.8992 10.7478
1105 3 5.49425 11.042 8.9306
2096 1 7.12336 9.01054 9.05819
3121 3 3.60719 11.0035 10.8537
613 3 9.02943 8.99437 10.7295
598 1 10.7053 9.04903 8.87027
3613 1 10.7934 10.7886 10.8041
3596 3 9.02585 10.8383 8.9991
50 2 14.235 10.9321 10.8319
614 3 12.5725 9.08265 10.7264
2598 2 12.5615 10.8207 9.01416
2597 1 14.3811 9.13827 8.97898
2647 1 12.6681 14.3837 16.0578
3143 1 10.7703 12.5567 16.0571
1122 1 16.0678 8.95364 10.9882
1109 3 16.0651 10.7684 8.93983
616 2 0.0442651 14.4747 10.8228
601 1 0.00832597 12.6674 8.91544
1123 3 1.90747 12.6416 10.7273
3094 2 1.80153 14.2245 8.93873
1124 1 5.52309 12.655 10.703
1111 3 5.42718 14.3372 8.91841
1619 1 7.24359 14.3755 10.7201
1618 1 3.66588 14.2985 10.7632
1601 1 7.3242 12.654 8.83582
3095 2 3.65464 12.6192 8.99139
617 3 10.9282 14.359 10.6778
1125 1 9.07131 12.6342 10.796
3096 3 9.09036 14.2821 9.11902
3598 2 10.7905 12.4636 9.04489
1126 3 14.3537 14.4783 10.876
1113 1 12.5514 14.3523 8.85653
1620 2 12.5481 12.6872 10.6553
1602 1 14.3491 12.4294 9.02331
1621 3 16.0332 12.5065 10.7692
2644 3 10.7686 14.2793 17.853
3102 1 16.0728 14.3527 8.91097
514 2 1.82419 12.5961 14.3168
2141 1 8.88859 14.3291 16.1257
2119 2 1.96987 16.0611 10.762
2606 2 1.96255 17.7382 9.12196
3142 2 7.23607 12.6003 16.3941
40 3 7.24355 16.0687 9.00833
619 1 3.81608 17.994 10.7417
1127 1 7.24488 17.8153 10.7887
2120 1 5.43746 15.9886 10.7843
2106 3 3.76291 16.0861 9.00937
3622 2 17.7287 1.88944 16.0945
513 3 0.19974 14.3553 14.2459
2108 3 10.6801 16.1516 8.96981
2625 2 9.01434 16.2364 10.8124
2118 3 16.1651 10.7897 12.6155
603 3 14.3116 16.068 8.97228
502 1 15.9623 0.0452171 16.0095
2626 1 12.5264 16.2637 10.7251
3130 2 12.5853 1.94832 17.7641
2628 1 16.2197 16.2177 10.6969
2611 2 17.8081 16.1409 8.79216
2642 2 3.69854 12.7591 16.1637
3111 1 16.012 17.9287 8.88406
2643 1 5.45529 14.3365 16.2171
2138 2 5.31038 12.452 17.8948
2629 2 1.88514 1.87361 14.1655
3113 2 1.76876 0.081216 12.5051
43 2 3.86791 1.71426 12.4172
605 3 7.26267 1.85426 12.4717
1625 1 7.09908 0.162559 14.2842
2123 2 3.73536 0.0810039 14.2257
3128 3 5.48753 2.03771 14.3465
1134 3 14.2708 1.92433 16.1208
606 1 10.6839 1.86684 12.4923
59 2 12.4629 0.144343 16.1191
3129 1 8.85588 1.98491 14.3099
3621 1 9.03986 0.0829968 16.0665
1117 3 14.2175 1.87282 12.6973
2632 2 14.1432 0.134747 14.4007
3131 1 12.4208 1.84918 14.4446
2631 2 8.95987 1.9881 17.786
44 2 16.2086 0.138717 12.6583
1626 2 10.8287 0.120847 17.6915
2139 2 3.69132 14.3682 17.8779
3132 2 16.129 1.88144 14.2464
607 3 2.01443 3.69356 12.654
1119 2 1.85189 7.27469 12.5233
1118 2 0.177942 5.40094 12.5132
2634 3 0.232458 7.28288 14.3001
2633 3 0.0341285 3.70277 14.3527
3624 1 1.91496 5.49522 14.1905
60 1 7.17102 7.33832 14.2772
608 3 5.45422 3.58386 12.4255
1612 3 7.02918 5.3752 12.4529
1611 2 5.38706 7.22394 12.5781
1610 2 3.6498 5.42975 12.6588
2128 3 7.26871 3.69004 14.4069
2126 3 3.73421 3.64514 14.2552
3136 1 3.73559 7.24064 14.1107
3626 2 5.47932 5.45198 14.2932
1613 2 10.6843 5.49103 12.3825
2114 3 8.88321 7.14398 12.4492
3137 3 10.8024 3.57372 14.2072
3629 1 8.89054 5.41996 14.3076
3628 1 10.672 7.219 14.0827
3610 1 8.94652 3.63956 12.4654
610 2 12.3881 3.55157 12.5501
1614 1 14.2262 5.4263 12.4922
2617 1 12.5365 7.45364 12.579
3138 1 14.4058 3.56457 14.3066
3631 3 14.3315 7.21902 14.3214
3630 3 12.5612 5.45956 14.1442
47 3 17.7806 5.20236 12.4067
65 3 16.0266 5.30659 14.351
1138 1 17.8136 3.6832 14.2722
1121 2 16.0311 3.53871 12.5039
2618 3 16.081 7.20142 12.5331
3140 3 17.7599 7.21047 14.2373
67 3 1.93505 9.10372 14.3836
611 3 1.78539 10.9329 12.491
1639 3 17.7562 10.8234 14.3235
2636 2 0.0311003 10.631 14.5316
69 3 7.15142 10.8534 14.2991
70 3 5.32998 9.03792 14.1522
1616 2 5.50561 11.1763 12.3858
2116 2 3.62058 9.20973 12.5012
2619 1 7.04267 9.1463 12.4276
3633 3 3.73514 10.895 14.4193
71 3 9.12326 9.08542 14.2875
2117 1 8.93994 10.8696 12.5614
2620 1 10.8367 9.08971 12.4733
3141 3 10.764 10.8298 14.2771
510 3 12.6374 9.00236 14.3509
1617 1 12.633 10.96 12.4891
3122 3 14.2689 9.09871 12.6484
3635 2 14.4119 10.9252 14.331
511 1 16.0941 8.9779 14.4526
2640 2 0.0781043 12.5696 16.2398
136 2 14.357 10.8532 31.9996
78 2 0.183458 1.74602 19.7645
2145 1 1.78764 1.81293 21.5988
3151 1 1.96748 0.299518 19.5692
521 3 3.70441 0.0993822 21.3673
80 1 3.71311 1.79369 19.4796
79 2 7.21982 2.04216 19.6581
2147 1 5.57453 1.98227 21.4403
137 3 12.4121 8.96736 32.0012
2713 3 10.7512 10.8934 32.0286
81 3 10.9023 1.76805 19.5185
1648 3 10.7786 0.0246666 21.3759
2652 2 9.17037 1.89887 21.3495
3152 2 9.10493 0.144626 19.7118
522 2 14.3854 1.80464 19.6779
2202 3 10.7405 9.0888 33.8061
2653 1 12.4139 1.90904 21.3281
135 3 8.95998 8.9229 32.0294
640 2 9.00106 10.7898 33.9574
3711 2 16.0643 17.8535 33.7393
3153 2 16.1404 1.8796 21.2377
3647 1 16.1251 0.126796 19.5101
523 2 0.098319 5.38898 19.7001
84 2 1.88255 7.26198 19.629
83 3 0.0671987 7.33294 21.409
1650 1 0.233964 3.81273 21.3892
3155 3 2.04484 5.46294 21.3613
3154 3 1.95532 3.69274 19.8124
524 2 3.75955 5.52377 19.4355
525 2 7.28852 5.36182 19.5508
526 3 3.62395 7.02356 21.519
1153 3 7.28269 7.05795 21.3681
1152 1 5.39096 7.33251 19.6539
2655 1 3.66691 3.54617 21.4442
3156 2 7.34214 3.60777 21.5177
3649 3 5.2958 3.77592 19.539
3648 1 5.42117 5.37791 21.3087
86 2 10.7814 7.16427 21.3876
85 1 8.97605 3.60791 19.5089
1155 1 10.7382 5.51558 19.6744
1154 2 9.12873 7.10036 19.5406
2656 1 10.8243 3.79931 21.3233
3650 3 8.98073 5.33933 21.42
527 1 12.4668 7.32307 19.6901
88 2 12.5439 5.53183 21.4126
87 2 12.6017 3.69299 19.5917
1156 2 14.3544 5.46019 19.7008
2148 1 14.5354 7.22211 21.4243
2657 2 14.2363 3.6509 21.4089
528 2 17.7141 3.60905 21.4148
89 1 16.1799 5.48675 21.3537
1157 2 16.1819 7.29924 19.6214
1717 1 16.0949 15.9925 32.1508
1718 2 17.844 16.0954 33.7375
3651 2 16.0664 3.6262 19.6043
529 3 1.95549 9.05781 21.5232
530 3 1.87882 10.8563 19.7013
3710 3 14.3853 16.0527 33.8658
3211 3 3.65172 10.6539 32.0212
531 1 5.48101 8.98515 21.4181
532 1 5.48926 10.4602 19.6969
533 3 7.23839 10.6062 21.3867
1159 1 3.65113 8.98659 19.7696
1651 3 7.28622 8.74724 19.5447
3653 3 3.81172 10.7417 21.6049
90 3 9.03892 10.6202 19.5581
1161 3 9.05952 8.95596 21.3747
1160 3 10.9217 10.6679 21.5283
1652 1 10.6733 8.88603 19.622
534 2 12.6195 10.6479 19.5403
1162 1 12.5491 9.09127 21.4775
1654 3 14.2729 10.8061 21.5383
1653 3 14.3674 8.97506 19.7951
1656 3 16.1925 10.6744 19.6716
1655 2 16.1838 9.06945 21.4588
3159 1 18.0782 10.7472 21.4019
3654 3 17.9697 9.08634 19.4944
1660 1 0.0997638 14.488 21.5293
1659 2 1.96621 14.2384 19.7242
1658 1 1.93152 12.571 21.5375
1716 3 12.6465 16.0754 32.1297
1163 1 5.45211 14.2344 19.5621
1661 3 3.69487 14.2029 21.4597
2151 3 7.16599 12.3302 19.6177
2150 3 5.59373 12.4952 21.4259
2149 1 3.66832 12.5903 19.6056
3160 1 7.18782 14.2168 21.3601
1662 1 9.04607 14.3232 19.5616
2153 3 9.01599 12.3759 21.2874
2152 1 10.8166 12.3416 19.5357
2658 3 10.7102 14.3672 21.3313
2155 3 14.4571 12.3798 19.5738
2154 2 12.5059 14.1606 19.7781
2660 2 14.3084 14.1702 21.5024
2659 2 12.4446 12.5524 21.4124
3212 2 7.31785 10.767 32.0672
1164 1 17.9911 14.3123 21.338
2156 1 16.2167 14.3298 19.796
2661 1 16.0249 12.4311 21.4309
1165 1 0.229896 17.8329 21.2728
2157 1 1.97798 17.9296 19.7174
2662 3 0.221785 16.0759 19.6716
3161 2 1.97854 16.039 21.5589
2201 2 7.29495 8.94929 33.7867
1712 2 3.59185 9.20736 33.8745
2664 1 3.70154 16.0568 19.6922
2663 3 7.15076 16.1393 19.5873
3163 2 5.42187 16.0483 21.3295
1022 1 5.52282 10.7397 33.8484
134 1 5.4265 9.11066 32.0822
2665 1 10.7771 16.0448 19.6217
3706 3 1.8393 9.08961 32.0499
3655 2 8.98284 15.9959 21.4223
2666 1 12.5858 17.7018 19.6694
3166 2 14.3774 15.9972 19.653
1023 1 12.7602 10.7861 33.7412
3656 3 12.7884 16.0625 21.3929
92 1 16.1659 15.9903 21.4025
3217 1 10.675 15.933 33.8568
1029 2 8.94218 16.053 31.9188
3167 2 16.0434 17.9416 19.6779
93 2 1.83899 1.92263 25.0232
1665 2 1.90093 0.102925 23.2391
1028 1 8.84059 17.9598 33.7398
3168 1 0.0988681 1.78586 23.3227
2158 1 5.58152 0.100579 23.3077
2670 3 3.6385 0.0386565 25.1052
3170 3 7.19869 1.91966 23.293
3169 2 3.67764 1.79472 23.1986
1710 1 1.82979 10.8421 33.8823
3658 1 5.28807 1.95365 25.026
537 3 9.06004 2.05626 24.9279
2671 1 9.04585 0.110673 23.302
1711 1 0.0862183 9.04878 33.7366
3660 1 10.9034 1.77116 23.1532
3704 1 16.0268 5.35799 31.9148
3663 1 14.1441 2.06493 23.0129
3705 3 17.8651 5.38471 33.7662
3661 3 12.5528 1.89328 25.0459
539 3 16.0459 1.89977 24.8471
647 1 10.7489 17.832 32.0486
1668 2 17.8403 1.80571 23.2057
1709 2 15.9679 7.19104 33.7629
99 3 1.84791 5.45311 24.901
98 2 1.95382 7.23841 23.2422
3709 3 5.26961 17.8451 33.8248
96 1 0.201683 5.48643 23.205
3173 3 1.88402 3.61811 23.2652
3215 3 7.26001 16.1721 33.6487
540 1 3.62899 7.20245 25.0782
541 1 5.50679 7.07956 23.1423
542 2 7.22695 5.38962 23.2201
543 1 5.61039 5.51687 24.9518
101 2 7.19969 7.1809 24.9558
100 2 3.65102 5.3491 23.248
2675 1 7.23653 3.642 24.9403
3175 2 3.70785 3.69748 24.9744
3665 3 5.51073 3.73952 23.2193
546 2 8.95581 7.12482 23.1911
547 1 8.99063 5.29181 24.9003
102 2 10.7496 5.38033 23.1476
1170 3 10.7979 7.05552 24.8085
3177 2 10.7246 3.73486 24.976
3666 2 9.02565 3.59522 23.0718
548 2 14.4597 5.61842 23.2086
549 3 12.6015 5.3615 24.9212
105 3 14.332 3.8795 24.7913
1670 1 12.6559 7.20618 22.9691
3179 3 12.4751 3.72084 23.1841
3667 1 14.1805 7.31906 24.9992
1172 2 16.0641 5.46103 25.0303
1672 1 17.9658 3.71714 24.9936
1671 2 16.0188 7.32843 23.3383
2678 2 17.9136 7.20364 24.8549
2677 3 17.6479 5.46071 23.0975
3668 3 15.9381 3.50797 23.1453
3216 1 3.5358 16.06 33.7344
106 2 1.89925 10.7536 23.1797
1175 1 1.92451 9.0518 24.9774
3669 1 0.155259 10.6794 25.0282
108 1 5.59755 10.6787 23.1999
1180 1 7.13151 10.7006 25.0724
1178 3 7.28626 8.93216 23.2943
1177 2 3.70239 8.9135 23.3133
1176 3 5.45308 8.99295 24.9564
3670 1 3.81439 10.8029 24.8391
551 1 10.5721 10.861 24.9192
552 1 8.97051 10.7998 23.2931
1181 3 8.91258 9.03914 25.0841
1674 3 10.5507 8.87766 23.2141
1182 2 12.5679 10.7369 23.3084
1676 3 12.4922 9.08739 24.9509
1675 2 14.2962 9.06659 23.292
2163 1 14.3042 10.8289 25.0239
1183 1 16.1442 9.12242 24.8719
1677 2 16.2236 10.7467 23.1749
1714 2 3.54048 17.8691 32.045
1715 1 7.09154 17.9817 31.8828
1027 3 5.42474 16.0374 31.9421
1184 1 1.9289 14.2008 23.2595
1678 2 1.9504 12.3767 25.0213
133 1 16.0395 3.71432 33.834
113 2 7.20822 14.3847 24.9531
1185 2 5.61112 12.5042 25.0738
2170 2 5.55719 14.3434 23.1267
2169 2 3.72386 12.6491 23.2226
2168 3 3.76744 14.3012 24.9963
2167 3 7.18972 12.4512 23.1312
1680 1 10.748 14.3477 25.08
2171 1 10.8389 12.4824 23.0854
2682 3 8.96687 14.1281 23.1962
2681 1 8.9479 12.6154 24.9408
114 1 14.2888 13.995 25.0977
1681 3 12.4108 12.5181 24.9417
2684 3 14.2874 12.3705 23.24
2683 3 12.4594 14.263 23.2556
557 3 17.9133 12.5522 22.9539
2173 1 16.2304 14.2574 23.024
2685 1 16.1712 12.6601 24.8581
1026 1 1.89827 16.0299 31.9721
1684 1 1.92543 16.0941 24.8601
1683 2 1.84246 17.9329 23.1803
2720 3 16.1562 14.2098 33.9498
1024 1 15.9671 12.692 32.1017
2203 2 14.2671 8.99274 33.8122
2174 2 5.49 17.8289 23.1763
2689 1 3.68322 17.8686 24.9285
3187 3 5.45534 16.037 24.8686
3186 3 7.35772 16.1596 23.1556
3185 1 3.74803 16.2889 23.0358
139 2 15.9989 8.94334 32.0738
1686 2 9.02139 16.0498 24.8726
3703 2 12.6088 5.45181 32.0446
3675 3 10.7218 15.9959 23.2476
3209 1 14.2181 7.30728 32.0396
2200 2 14.3552 3.56294 32.028
3188 2 12.5579 15.9695 25.0848
3676 1 14.3369 15.8583 23.1657
1187 3 17.8615 16.1167 23.3712
3213 2 12.5465 14.361 33.8919
1689 3 16.0031 15.9413 25.0908
3189 1 16.01 17.6777 23.1824
2718 2 14.2642 12.5679 33.8461
2180 3 1.83706 1.9743 28.6531
1708 3 14.3494 5.3826 33.6918
645 3 14.2714 14.3619 32.2258
559 2 7.1424 0.0693606 28.5269
94 2 7.12562 1.78299 26.7239
1021 3 12.5171 7.14651 33.9277
637 1 12.4839 3.63123 33.7386
2181 1 5.38464 1.75914 28.5399
2669 2 3.65549 1.97375 26.7756
3702 2 8.81038 5.414 32.0115
2711 3 10.7239 3.60523 32.0169
2182 2 8.94725 1.78488 28.5248
2672 3 10.7233 1.82383 26.6794
538 1 14.3694 1.95886 26.64
2712 3 10.8151 7.33575 31.9923
2184 3 12.4232 1.86487 28.4774
2183 2 14.4099 0.137974 28.6291
2159 1 17.8895 1.97386 26.76
3193 3 16.0525 1.8206 28.555
646 3 12.6258 12.5914 32.0714
1706 2 8.98323 7.13248 33.7358
1168 1 1.96321 3.79033 26.6699
1669 2 1.75173 7.30688 26.7133
2186 1 0.0960452 7.2657 28.4792
2185 1 0.0553305 3.62688 28.4442
2674 3 0.159834 5.4259 26.7033
3194 2 1.83385 5.36781 28.468
544 2 3.66535 5.40831 26.7042
563 2 7.28039 7.11114 28.4428
1691 1 7.15854 3.61599 28.4013
1690 3 3.72896 3.61428 28.6894
2676 1 7.50304 5.42993 26.7686
3196 1 3.61123 7.21334 28.2239
3195 2 5.47113 5.31289 28.4774
3176 1 5.38149 3.62073 26.7382
3174 1 5.59338 7.2521 26.7583
545 2 10.7559 5.46419 26.7036
1171 2 8.88367 3.67151 26.8179
1169 1 9.00957 7.30131 26.594
2694 3 10.754 3.64428 28.4232
3197 2 8.90017 5.44269 28.5484
3681 2 10.7752 7.18909 28.4362
104 1 12.3494 3.82462 26.8025
103 3 14.1933 5.43026 26.7179
2695 1 14.2634 3.59587 28.594
3178 3 12.4232 7.13638 26.7486
3684 2 14.3572 7.11591 28.546
3683 1 12.573 5.43656 28.5256
622 1 17.7736 3.78411 28.3496
1004 1 17.8301 7.18051 28.516
1174 2 16.0318 7.38469 26.6075
1173 2 17.758 5.46443 26.7479
3180 2 16.0077 3.72133 26.6406
3685 1 15.9458 5.56264 28.3848
1673 3 0.0579652 8.81719 26.6186
2161 1 1.85453 10.6681 26.7386
2696 3 0.184446 10.7223 28.5663
3687 1 1.93569 8.95828 28.3365
122 2 7.23221 10.8634 28.6874
107 3 3.73503 9.02884 26.7664
1179 3 5.48347 10.7263 26.8257
2162 2 7.07628 8.94922 26.8302
3689 3 5.394 8.9313 28.5549
3688 1 3.56735 10.7286 28.5229
625 3 8.92312 9.07169 28.5423
110 2 10.7949 8.84374 26.7115
109 1 8.94086 10.7982 26.8452
2698 3 10.8 10.873 28.4577
626 3 12.6274 9.06041 28.4534
2164 1 14.2844 9.0521 26.6654
3181 1 12.546 10.8106 26.7186
3690 1 14.2683 10.8994 28.4897
2717 1 10.8716 12.7259 33.6995
554 1 16.325 10.849 26.6847
628 1 16.0099 8.98721 28.4347
1698 2 17.8847 10.4418 28.5384
629 3 1.89326 12.511 28.4184
111 2 0.237176 12.6133 26.7502
2207 1 9.01795 14.4514 33.6408
2679 1 1.92473 14.2137 26.7694
630 2 7.18428 14.4658 28.422
112 2 5.40086 14.398 26.7111
1006 2 5.52547 12.6862 28.4492
1007 3 3.62649 14.2353 28.5099
1679 2 7.27606 12.5561 26.6943
2680 2 3.77958 12.5451 26.6805
124 1 10.7346 14.452 28.523
1008 3 8.94899 12.6282 28.5382
2172 3 9.00177 14.494 26.7482
3182 1 10.6373 12.5879 26.6589
556 2 12.4807 14.3647 26.9254
1009 3 12.4417 12.6868 28.4356
1699 1 14.3784 14.3348 28.4844
1682 1 14.2679 12.5764 26.7642
1011 1 16.2227 12.6126 28.5618
643 1 10.9486 14.3848 32.1075
3184 3 16.1014 14.2909 26.7708
644 2 8.95198 12.631 32.0769
2192 3 2.10746 16.0156 28.479
3707 3 3.85056 14.1926 32.0201
3708 3 7.04707 14.3693 32.1255
1707 3 10.7229 5.38402 33.6462
128 2 3.65776 18.0388 28.3157
115 3 5.55409 17.9226 26.6175
1020 2 8.94414 3.69515 33.9156
1685 2 3.69043 16.1177 26.6148
2193 2 5.34322 16.1913 28.4841
3674 1 7.25562 16.0823 26.6558
3700 3 3.68255 7.3068 32.0183
1688 2 10.7443 16.1424 26.8016
2194 1 8.94237 16.0611 28.6436
2176 3 9.11202 17.8097 26.6858
558 3 12.5685 18.0352 26.5523
116 3 14.2532 16.0502 26.6287
1702 3 14.443 17.7969 28.4201
2195 1 12.6061 16.2186 28.4727
2715 2 3.68783 12.5615 33.7729
2716 3 7.18758 12.5909 33.9028
2704 2 16.0998 15.9631 28.5526
3701 3 7.15214 7.20712 31.8379
3678 2 -0.0896365 2.00256 30.2485
3208 1 5.36777 5.51258 31.9925
118 2 7.12079 1.99241 30.1471
117 2 3.69168 1.8653 30.3965
3191 3 5.31968 0.068244 30.4878
119 1 10.595 1.74 30.304
2710 2 7.18166 3.72274 32.07
561 1 14.3706 1.8251 30.2527
3192 3 12.6114 0.151942 30.1987
562 2 16.1078 0.0199426 30.3121
1713 2 5.43853 14.3123 33.752
121 2 1.83216 7.13597 30.1862
120 3 1.88095 3.74472 30.3037
642 2 5.53819 12.414 32.1018
1001 1 3.54698 5.43715 30.2181
1191 3 7.26869 5.26107 30.2477
1692 1 5.36548 7.18968 30.1029
3680 1 5.56703 3.68469 30.22
1002 3 10.788 5.41854 30.2895
2693 3 9.14023 7.17489 30.3046
3682 3 8.97887 3.5693 30.1852
1003 3 12.451 3.49026 30.3075
1693 1 14.2787 5.57256 30.3052
2187 3 12.4156 7.2292 30.2662
623 3 15.9411 3.60504 30.3052
1694 1 16.1964 7.28401 30.1077
3686 3 17.8374 5.36071 30.1597
624 3 1.92359 10.7725 30.2439
1695 1 0.141996 8.96172 30.3468
1696 2 3.69889 8.91951 30.2405
2189 3 7.07131 8.84145 30.2133
2188 1 5.47472 10.7529 30.2915
1697 2 9.03804 10.8992 30.3389
2697 2 10.6272 9.05226 30.3186
627 2 12.6532 10.811 30.168
2699 1 14.2772 9.01652 30.2881
123 1 17.913 9.01762 30.4231
2190 1 16.1367 10.7622 30.1874
2191 3 0.0415866 12.4649 30.2703
3691 1 1.77641 14.3738 30.1631
2700 1 3.7664 12.4998 30.3522
3199 3 7.19791 12.6558 30.3156
3198 1 5.37539 14.2641 30.1382
2701 1 8.97368 14.3337 30.3039
3200 1 10.8632 12.5261 30.319
2702 1 12.4651 14.2688 30.3231
3201 2 14.3321 12.561 30.2034
125 1 16.0398 14.1704 30.2439
2205 3 0.0467252 12.6163 33.9006
2199 2 5.4055 7.49895 33.872
2206 3 1.88941 14.2117 33.7846
127 1 7.24438 16.059 30.26
126 3 3.61293 15.9529 30.3521
2703 3 5.26543 17.7551 30.3016
3696 3 10.8125 16.0595 30.4278
3695 3 9.01609 17.8568 30.2786
129 3 14.4844 16.0466 30.3299
1013 2 12.6203 17.8163 30.4161
641 3 1.84925 12.733 31.8538
3202 1 16.1552 17.8793 30.2024
631 3 0.0972607 1.89421 33.8741
2714 3 15.9677 10.9896 33.8525
2707 2 1.76988 1.98858 31.9877
1705 2 3.66089 3.71708 32.0256
633 1 3.60011 1.88971 33.8282
632 2 7.19684 1.98275 33.8179
1014 3 3.53993 0.0659561 32.1763
1015 1 7.20474 0.0527328 32.1738
2708 3 5.42254 1.86773 31.9651
3203 1 5.44318 0.0685739 33.6971
634 1 10.6934 1.78986 33.9725
1019 3 7.1633 5.43611 33.7848
2709 3 8.75166 1.81087 32.0194
3698 2 8.89508 0.124135 34.0065
635 1 12.5936 0.244986 33.7778
1016 2 14.2144 1.97557 33.9635
2197 3 14.2741 0.363379 32.0678
3204 3 12.6139 1.88308 32.0481
1018 3 3.67481 5.52199 33.887
2204 1 17.8643 10.7732 32.1662
3206 2 17.8079 1.91949 33.9999
3205 1 16.0923 1.90589 32.1813
636 1 1.85672 7.30151 34.0168
1017 1 0.201693 5.55451 33.9415
138 3 17.7165 8.90405 33.7743
2198 1 0.133957 7.13453 31.9755
3207 1 1.84017 5.28826 32.185
3699 1 1.8311 3.52366 33.7547
132 1 5.36382 3.6842 33.6347
3634 3 10.7541 10.7585 17.7997
1143 2 8.92027 8.9182 17.7694
1132 3 7.25904 0.144525 17.9073
1070 3 10.7847 0.0754005 35.6956
2122 1 1.78735 2.04289 17.8669
3062 2 8.93668 1.82336 35.6929
3064 2 12.4119 1.90645 35.5102
1142 2 5.44291 8.90633 17.7963
3065 1 16.0414 1.96775 35.4348
509 1 7.33198 10.6047 17.885
7 3 5.39023 5.40503 35.5822
1567 1 7.21679 7.02442 35.5408
2569 1 3.66906 3.64173 35.7117
1077 3 10.6363 7.39441 35.5318
12 3 14.0633 3.66496 35.6675
1078 2 16.0007 5.45061 35.4902
2650 2 17.7803 17.9054 17.9786
1082 2 1.68792 9.16128 35.5808
14 2 10.7997 10.8246 35.5651
1086 1 8.90985 9.01823 35.4966
1088 2 14.1793 10.6843 35.6472
2073 3 12.5761 8.90447 35.5497
77 2 16.0214 16.0576 17.9995