ITEM: TIMESTEP
5000
ITEM: NUMBER OF ATOMS
4000
ITEM: BOX BOUNDS pp pp pp
-2.7315721395368087e-02 3.5761375721395979e+01
-2.7315721395368087e-02 3.5761375721395979e+01
-2.7315721395368087e-02 3.5761375721395979e+01
ITEM: ATOMS id type x y z
5 2 1.63432 3.89565 1.82835
564 1 3.58685 1.97979 1.78849
1644 2 14.063 17.6684 14.4381
2563 3 1.70823 2.01728 3.5117
1608 1 7.04952 -0.0150949 11.2365
3140 3 17.913 7.15771 14.2296
3569 2 5.34425 3.39075 1.83536
2069 1 3.45866 3.52207 3.5675
3568 3 6.98431 3.4485 3.52864
3113 3 1.80624 0.00352566 12.6827
565 1 7.0076 1.87014 1.93444
10 3 8.9266 3.47835 1.72605
597 1 -0.0551515 10.8204 7.27044
1138 3 18.0411 3.61142 14.2426
566 2 10.6264 1.67238 1.59476
567 2 14.5867 1.5964 1.34999
1586 1 17.8987 16.2322 2.02007
572 3 16.3493 3.70599 1.50566
1146 1 14.2107 14.5237 14.3551
1615 1 17.6222 7.31975 10.6937
1622 1 17.6821 12.5025 12.8052
3566 3 1.65047 5.45912 3.58387
2115 3 0.0104707 8.79317 12.6039
1074 3 3.4363 5.37129 1.81794
1072 2 7.08266 5.13222 1.48088
3084 1 0.0773838 -0.08624 6.95413
3605 3 5.40461 -0.0330254 12.7518
1076 1 10.842 5.24652 1.57756
1568 1 8.75802 7.02817 1.52254
1101 2 0.366569 8.86059 5.40253
3571 3 8.71978 5.29771 3.42536
3640 3 5.11864 18.0324 16.1861
570 2 12.5631 3.45906 1.50938
1569 1 12.7999 7.04415 1.39065
571 3 12.6 5.22077 3.36027
1570 2 14.3636 5.31039 1.42423
1081 2 15.9324 7.28109 1.78765
3148 1 16.1492 14.3225 16.0715
3087 3 12.4923 -0.197798 5.27949
3069 1 14.3967 3.64385 3.15378
573 1 15.9842 5.43861 3.42407
1572 3 14.1076 7.08528 3.44352
512 1 17.6561 9.01012 16.2215
6 3 1.82722 7.20641 1.73088
3101 1 17.5139 12.6353 8.64535
1075 2 5.33202 7.00172 1.69338
1575 3 3.5132 8.92258 1.77669
1576 1 7.29066 9.05756 1.87968
577 3 5.24902 8.92174 3.64145
2624 1 5.43561 17.9523 12.4626
2607 3 5.63387 18.0037 5.53314
1578 2 8.76655 8.74319 3.5411
2573 1 0.0510747 14.4743 3.55584
2071 1 10.5838 8.5372 1.63234
2074 3 14.1611 8.98571 1.59907
580 3 12.5087 10.6622 2.02656
2571 3 17.928 7.0861 3.23697
1580 2 15.9613 8.80983 3.36918
616 2 0.075935 14.5218 10.7773
575 2 1.98071 10.7863 2.07048
2081 1 3.45987 12.6437 1.97015
578 1 3.60973 10.8718 3.55311
1582 3 1.96202 12.5249 3.87941
3071 2 3.49122 14.3413 -0.0388071
17 1 5.28038 16.1259 -0.111194
1083 3 5.48743 10.7824 1.67815
2574 2 5.39295 12.5687 3.73848
2615 1 -0.140201 3.51798 10.4873
1584 1 17.7322 14.284 3.82964
579 1 10.4901 10.7118 3.75584
2575 2 6.9702 12.5675 2.0724
1087 3 8.99908 10.8939 2.04976
2579 2 10.5762 12.6736 1.96432
2578 2 8.92497 12.6743 3.68947
3085 3 7.43602 -0.131368 7.22971
2085 3 12.4304 14.4665 1.83683
2581 2 12.3871 12.5532 3.54849
2127 3 3.85402 3.84387 17.7018
1581 2 15.9835 10.6779 1.79704
2580 2 14.2149 12.5574 1.84713
2582 1 15.6726 12.5577 3.54627
3575 1 14.2201 14.6047 3.33804
576 1 3.64853 10.6852 -0.219728
615 1 17.8866 9.25497 12.3876
2608 3 8.74176 17.6568 5.47186
2078 2 1.87198 14.2447 2.04258
3077 1 3.76466 16.1026 1.66044
582 3 -0.169991 17.7751 3.56967
2630 3 5.66699 1.81722 17.9811
2082 3 5.36127 14.3232 1.53941
3078 3 6.84694 16.1893 1.76677
1593 2 17.8518 5.45806 8.51838
3597 3 17.6135 9.06159 5.38431
1583 3 8.75923 14.304 1.77009
3080 3 10.6279 15.9969 1.86865
3081 2 14.3016 16.2206 1.71533
3580 3 12.3251 16.4314 3.70206
3109 3 10.7792 17.6403 7.26453
1079 2 18.1111 5.10846 1.53094
1646 3 12.3944 16.269 14.4029
2583 3 16.04 14.1235 2.09851
2606 3 1.78375 17.9745 8.89414
29 3 3.49562 3.71823 6.89773
2609 1 14.3265 17.9185 7.30971
1080 3 17.9928 3.71868 3.51558
584 3 1.7244 1.73831 7.03633
2564 2 5.39996 1.62817 3.51559
3585 2 3.65622 1.83442 5.34666
3584 2 7.47236 1.92823 5.32526
22 3 5.37984 1.27345 7.40999
2565 1 9.05292 1.48987 3.42107
3586 1 10.4892 1.73204 5.5101
586 3 8.84725 2.02277 7.34713
3599 1 17.87 14.3871 6.84286
3572 2 10.6912 3.58069 3.32883
2567 1 12.5019 1.88542 3.16541
23 1 12.2537 1.49944 7.10226
25 1 14.2679 1.76299 5.40956
15 1 17.6651 8.84318 1.66043
3564 1 15.8022 1.86477 3.43115
588 3 16.1402 1.77738 6.77245
601 2 0.0427917 12.5686 9.16329
3090 3 1.6644 3.56062 5.11808
28 1 2.01699 7.09187 5.29832
27 3 1.84899 5.29883 6.87205
590 2 3.69679 5.34032 5.41363
593 2 3.80382 7.25847 7.04557
3570 3 5.24062 5.3389 3.36921
3593 2 5.4299 3.23628 5.47542
1094 2 5.29 7.09469 5.28478
592 1 6.93577 5.13371 5.23302
569 1 10.914 6.89819 3.5604
31 1 9.08306 3.76241 5.10789
594 1 10.8869 5.21308 5.26273
1097 2 8.62405 4.94884 7.0441
1590 3 8.64951 7.04211 5.25446
591 2 7.15639 7.04946 7.08616
33 1 12.4657 3.49184 5.15904
1589 3 10.3634 7.07804 6.88635
1100 2 14.1492 5.02844 5.33209
1592 1 12.8026 6.88928 5.06157
3594 1 10.7543 3.63578 7.43848
1099 2 12.4753 5.17815 6.98076
3595 2 16.0894 3.48777 5.22459
35 3 14.2042 3.48603 7.04124
1595 2 15.9952 7.25227 5.16224
1594 2 15.934 5.40979 6.63031
1073 1 3.68316 7.21142 3.65312
574 2 1.80702 8.7197 3.54502
1102 1 2.03558 9.29896 7.33492
2068 3 6.89799 6.84789 3.64212
1103 2 3.71717 9.08653 5.4417
1596 2 5.22702 8.84824 7.22863
1597 1 6.94818 9.00885 5.19036
38 2 3.72509 10.823 7.27515
1106 3 7.24349 10.5213 6.88841
2097 3 10.6835 8.86622 5.14668
599 1 9.015 10.6643 5.42136
1107 3 8.8136 8.7565 6.95865
1598 2 12.7107 8.79295 7.17201
1579 2 12.3964 8.84917 3.43296
2098 2 14.1224 8.87438 5.3618
2099 2 14.1094 10.6189 7.18119
3643 1 14.1672 16.1225 16.2326
595 2 14.165 6.87905 6.94927
1599 2 15.8313 8.78434 7.11296
596 3 2.14459 10.9384 5.46309
2102 2 1.86556 14.5467 5.52144
2103 3 1.93004 12.6996 7.08748
2600 1 3.68 12.7152 5.57948
1104 1 5.23493 11.0324 5.40738
1084 3 7.1648 10.625 3.62213
3072 3 10.7529 14.3692 3.55721
2601 2 7.28224 12.4933 5.24085
2602 2 10.8533 12.5567 5.5375
2603 1 10.9539 14.1682 7.48823
39 2 11.0127 10.6496 7.31975
2072 1 14.3947 10.7172 3.52625
1108 2 12.4479 10.4745 5.34577
3098 1 12.5596 14.2551 5.29129
2605 1 13.9826 12.4657 5.41357
2100 3 15.9013 10.6838 5.61156
507 1 16.236 5.29904 17.9953
3576 2 2.02787 16.1528 3.52899
3619 2 8.78992 18.0127 12.625
2083 2 3.62964 14.4634 3.7852
3577 1 5.29002 16.1399 3.47765
2104 1 5.15933 14.3083 5.55413
3602 3 3.72077 16.394 5.5678
3089 2 0.022036 5.31021 8.79356
3106 2 5.57012 16.2419 7.50031
2577 2 6.97536 14.5963 3.34341
2604 1 8.75704 14.5255 5.42485
3601 1 6.93224 15.779 5.5573
3579 2 8.87529 15.9749 3.68958
3603 2 10.8937 15.8813 5.66113
41 2 14.3358 16.0473 5.22607
51 3 17.7679 10.9746 10.7179
583 3 16.1462 16.1958 3.5802
57 1 1.51622 -0.279147 15.9868
3100 1 15.6129 14.1342 5.06054
2109 2 15.9477 16.0542 7.1664
2125 1 0.00503447 3.45712 17.9659
3590 3 0.0170715 7.24231 7.12228
2110 1 1.86107 1.86284 10.5677
2066 1 10.7833 -0.0650716 3.39742
2591 3 3.51539 1.70108 8.92004
30 3 5.2891 3.332 8.91587
513 1 0.166602 14.2674 14.2634
3645 1 15.9321 17.7754 16.2133
585 1 7.01335 1.55047 9.18681
2592 1 10.8232 1.8266 8.85864
34 2 12.5799 3.67105 8.72005
587 3 14.1639 1.65159 8.70986
2584 1 0.422632 16.3296 1.74984
3632 3 0.118407 10.7767 18.0978
64 1 12.3677 5.14565 17.9387
2091 3 1.83597 3.56563 8.60274
3117 3 1.74084 5.24716 10.6599
3592 3 6.87124 3.45121 7.3012
1095 1 5.36662 5.46646 6.85868
1096 2 3.65 5.2513 8.90991
3091 3 7.22207 5.23801 8.75506
2112 1 6.83369 3.79268 10.632
1591 2 8.90596 3.69639 9.07912
1588 1 8.93872 6.95063 9.02263
1098 2 10.6838 5.40625 8.90857
32 3 12.4334 7.05434 8.73877
2595 1 16.0728 3.36658 8.86778
36 3 14.4508 5.43072 8.87742
609 1 14.3795 6.95863 10.6311
2648 1 1.80914 17.6671 15.8439
1 1 0.174239 1.52527 1.6925
1093 1 1.89112 7.27597 8.59216
37 2 3.84461 8.83568 8.99128
3591 3 5.47873 6.77964 8.93016
2096 2 7.22434 8.74534 8.87021
1105 2 5.64814 10.6023 8.88187
45 1 7.20669 7.13682 10.6699
3121 2 3.74532 10.5249 10.7938
3608 3 3.57066 6.95775 10.6957
49 2 5.25471 8.73963 10.8953
3596 1 8.96306 10.4511 8.91777
613 1 9.09975 8.83024 10.5166
46 3 10.6706 7.10365 10.782
598 1 10.697 8.80139 8.74476
2597 2 14.3888 8.83357 9.14815
3613 3 10.8984 10.398 10.7891
614 1 12.5359 8.78769 10.7801
52 1 -0.147325 16.0419 12.7047
2093 3 15.7173 7.16063 8.60942
1122 1 16.0294 8.71688 10.5779
1109 1 16.1393 10.6077 8.8418
3573 3 17.5963 10.6411 3.44494
2596 2 1.8409 10.9746 8.94508
3095 1 3.52175 12.4776 9.06779
3094 2 1.97919 14.29 9.02369
1123 3 1.76051 12.4981 10.8521
1600 3 5.5376 12.4914 7.39651
1112 2 7.34377 14.1719 7.3982
2599 3 3.69147 14.5439 7.2758
1124 3 5.58285 12.4273 10.8161
3097 3 9.05189 12.4881 7.11603
1601 1 7.43126 12.2061 8.84061
3598 1 10.7458 12.1663 9.37745
612 2 7.05487 10.4436 10.6101
602 3 14.1771 14.1875 7.29348
2598 3 12.5907 10.6257 9.09866
1603 3 12.5659 12.391 7.46105
1620 2 12.7024 12.6238 10.697
1602 2 14.4484 12.3833 8.98247
3099 3 16.0132 12.6723 6.98074
3102 2 16.0369 14.3756 9.10691
1621 2 16.2936 12.7185 10.8367
3149 2 0.174872 16.234 15.9122
2144 1 17.7568 16.4068 16.0478
1604 2 1.88036 16.0186 7.24316
2106 2 3.79265 16.1146 9.39217
3064 1 12.3832 1.69009 -0.163422
1111 1 5.57759 14.2744 9.1439
40 1 7.33627 16.0871 9.0807
1618 2 3.83187 14.0029 10.9744
2107 1 8.98217 16.046 7.36992
3096 3 9.04842 14.2495 9.3362
2625 3 9.05453 16.1755 10.9369
3604 2 12.5712 16.0028 7.26399
1113 1 12.5701 14.407 9.19488
2108 1 10.9224 16.08 9.06723
603 3 14.2302 16.0191 9.06322
3093 2 17.8334 10.8124 6.91182
3108 3 9.05491 17.6762 8.96987
1126 2 14.2897 14.3808 11.0833
2628 1 16.0085 16.2094 10.5702
3600 2 0.0492721 16.0483 9.11834
2629 3 1.73413 1.84523 14.6716
43 1 3.40164 1.81029 12.7303
2126 3 3.50336 3.41548 14.4253
2111 1 5.3453 1.79753 10.5727
605 2 7.24027 2.09932 12.54
608 2 5.36993 3.64835 12.3248
3587 3 8.92939 0.149681 9.19512
2612 1 8.82491 2.16076 10.6812
606 1 10.8743 1.7253 12.6085
2095 1 0.206216 9.19603 8.7605
2113 1 10.9471 3.60035 10.6686
2613 3 12.4106 1.66971 10.6574
610 2 12.4841 3.44332 12.4001
581 1 17.7509 12.4475 1.92732
502 3 16.1664 -0.0465598 16.0778
3116 1 16.0274 1.5324 10.5885
1117 1 14.2613 1.80448 12.2827
3132 3 16.2615 1.91891 14.0651
3641 2 10.4013 16.1073 15.8742
607 1 1.70211 3.49179 12.5897
1119 2 1.88058 7.19407 12.3694
2616 3 3.60207 3.56681 10.5916
1610 2 3.33335 5.17977 12.5898
3136 1 3.29498 7.07512 14.1172
3624 2 1.46979 5.49393 14.176
3607 2 5.38116 5.36522 10.73
3609 3 8.92239 5.07981 10.843
1612 3 7.16482 5.24681 12.4857
3610 2 9.14552 3.59695 12.5987
60 3 7.03393 6.94995 14.0879
3629 2 8.86764 5.43263 14.1454
3137 2 10.7791 3.52484 14.1427
3611 3 12.4644 5.37262 10.73
1613 3 10.823 5.55879 12.5078
2617 1 12.851 6.90461 12.5493
1643 1 8.8463 16.2129 14.254
3119 3 14.3122 3.28412 10.5778
3612 2 16.2484 5.4418 10.4411
3138 2 14.3903 3.29152 14.2705
1614 1 14.544 5.07294 12.4036
1121 1 16.153 3.53442 12.2278
3126 1 17.8446 14.5713 10.6037
48 1 2.02727 8.86216 10.6297
611 3 1.77465 10.6512 12.6699
67 3 1.67544 9.00155 14.2438
2116 1 3.69179 8.96089 12.5723
1611 3 5.27335 6.84113 12.5213
2619 3 7.16451 8.90683 12.4931
1616 3 5.44068 10.6256 12.545
2114 3 8.8421 6.99832 12.2371
2620 2 10.8582 8.87557 12.5707
2117 1 8.99642 10.5402 12.4436
71 2 9.01409 8.69104 14.1216
3628 1 11.0283 7.24852 14.3401
3122 3 14.5999 8.54174 12.6338
1617 2 12.6418 10.8446 12.5328
50 2 14.3077 10.5438 10.7913
1642 3 5.52925 16.0295 14.2353
3635 3 14.7262 10.4978 14.472
2618 1 16.1581 6.87365 12.3951
2118 3 15.8666 10.8517 12.5912
2090 3 12.4159 -0.214455 8.86329
3123 2 1.95792 14.2284 12.3605
3124 1 3.65925 12.2074 12.4069
516 1 3.45176 14.2506 14.1753
1619 2 7.43269 14.1443 10.9957
515 2 5.22907 12.2138 14.3816
3125 3 7.06196 12.1561 12.4163
72 1 7.21551 13.9433 14.2143
1125 1 8.85689 12.165 10.8556
69 2 7.13849 10.5108 14.3986
3615 3 9.11907 14.2099 12.6091
3141 3 10.7871 10.581 14.345
1147 1 12.5252 12.3826 14.5572
3616 2 10.9085 12.281 12.4084
2622 2 12.4251 14.2832 12.7886
73 1 10.6507 14.0229 14.4899
617 2 10.9869 14.2253 10.806
2632 2 14.4901 -0.268217 14.2607
3617 3 13.9874 12.6569 12.6194
1150 3 1.95464 15.9904 14.024
3637 2 3.72752 15.8862 15.8417
2119 1 1.97677 15.9438 10.7529
3614 3 5.67799 14.1655 12.5227
53 2 3.88154 16.1745 12.6435
2120 2 5.57051 15.9756 10.9243
618 1 7.17446 16.1582 12.5947
3075 1 16.115 12.4537 -0.0190016
2626 1 12.5032 16.0801 10.8575
54 1 10.7702 16.0966 12.7893
620 1 13.9449 16.1694 12.518
3627 1 5.41002 5.56612 17.8207
3639 3 7.04456 16.0222 16.0005
2634 2 0.205995 7.27686 14.5245
1647 3 16.0326 16.3757 14.124
3618 1 16.16 14.5139 12.5225
2641 1 1.81445 14.3144 16.0401
2105 2 5.5325 17.8036 9.35149
2586 1 7.24064 17.6873 3.74171
1577 3 7.17116 10.7796 -0.135341
1129 2 3.7508 1.74194 16.0677
1151 1 3.6336 17.7266 14.3119
3128 3 5.41007 1.90526 14.2593
1131 2 7.29069 1.81358 16.192
3129 2 8.9859 1.88961 14.4344
1133 3 10.8891 1.71041 16.0992
2568 3 14.2716 -0.0999365 3.61043
2077 1 -0.111826 12.3608 1.89097
3131 3 12.5911 1.46986 14.2603
1082 1 1.71565 8.88165 0.077285
1134 2 14.4723 1.8453 16.2537
509 2 7.16997 10.6001 17.8257
1130 1 3.78405 0.0654319 17.6371
1114 1 17.7586 12.6031 5.30331
1091 3 10.4438 17.7679 3.68958
24 3 14.1984 -0.114952 6.97147
504 1 1.71515 7.27859 16.0834
1630 1 3.40756 5.58151 15.7778
503 2 1.7016 3.76323 16.1819
3606 3 8.98303 0.166048 12.7991
2101 3 -0.0846207 12.6409 5.45737
3578 3 8.91613 17.8214 1.78481
61 2 5.51368 3.52735 16.1324
3626 3 5.30811 4.95368 14.1839
2128 1 7.22004 3.49818 14.2979
21 1 0.0544271 1.74113 8.87451
506 3 8.98902 3.82772 15.906
1632 3 11.0381 5.25087 16.0135
1629 3 7.02537 5.18489 16.0698
1136 3 12.6551 3.28905 16.074
3630 1 12.7244 5.26877 14.2394
2131 2 14.1873 5.11394 16.1315
2130 2 12.6493 7.11216 16.0686
3120 2 0.290716 10.738 10.8877
1605 1 1.80888 17.8957 5.6287
3143 2 10.537 12.2972 16.1785
1139 2 16.0706 3.50497 15.8549
65 1 16.05 5.24546 14.0694
1633 3 16.0992 7.04233 16.0231
1574 3 0.0955935 9.20308 2.0334
1141 2 1.76548 10.5672 16.0943
1144 2 12.615 10.8183 16.0591
70 2 5.61738 8.76076 14.1621
2133 2 3.8197 8.47691 15.9339
1631 2 5.39786 7.23384 15.8701
3146 3 17.9771 14.4096 14.3396
1636 3 8.83502 10.7056 16.0325
2129 2 9.05754 7.14215 15.6797
2134 2 7.13294 8.78052 15.87
2638 2 14.3271 8.81671 16.1896
510 2 12.593 8.85998 14.2768
3631 3 14.4489 6.98541 14.3545
2637 3 10.8179 8.92507 16.0436
1149 2 15.9206 12.8136 14.3632
3144 2 14.0598 12.8118 16.2698
511 1 16.44 8.68864 14.1129
3567 3 -0.0198751 7.22686 3.6574
2135 3 15.7963 10.971 16.3601
2647 2 12.3791 14.2572 16.1685
514 1 2.27461 12.4732 14.3329
2643 1 5.14605 14.1234 15.953
1635 3 5.24362 10.5855 15.9261
2642 3 3.52526 12.3953 16.3637
3633 3 3.49147 10.4768 14.4421
1145 2 9.02897 12.2922 14.2379
2141 2 8.55769 14.2466 16.1059
3142 3 7.32493 12.2015 15.8854
3103 1 0.1516 17.7619 7.15168
1077 1 10.784 6.94735 -0.328164
2594 1 17.9279 1.67222 8.80276
2621 3 0.043166 12.7511 12.6366
66 2 17.6384 5.43284 15.814
4 3 2.03088 5.51319 -0.00388371
2640 2 0.258197 12.5378 16.4314
600 3 18.0163 8.95624 9.15588
3133 2 15.979 1.777 17.8001
2645 1 8.73642 12.3197 17.9959
3622 1 17.8519 1.82026 15.7607
1639 1 17.4232 10.9137 14.4275
3135 1 7.39539 3.48693 17.7226
3139 1 14.7779 3.6499 18.0963
3107 2 7.14816 17.7754 7.47106
3583 3 0.0195035 1.83944 5.12672
3634 3 10.6181 10.61 17.9624
20 3 16.1217 16.3627 -0.0244489
68 3 3.77455 10.4436 17.766
2140 1 6.70971 14.2905 17.7776
2631 1 8.87864 1.89585 17.8953
2576 3 7.14245 14.0846 -0.110548
1088 1 14.2653 10.7692 0.0116134
1089 3 17.6698 14.4014 0.105732
3076 1 1.76814 16.0771 -0.22854
1142 3 5.40174 8.69202 17.7946
2080 2 5.23641 12.4535 0.0681392
2122 2 1.56968 1.75711 17.3625
2064 2 1.86393 1.69802 0.0115589
3134 3 -0.0461049 7.24717 17.7464
2079 3 1.9845 12.6503 -0.0100397
1143 3 8.73976 9.02563 17.7683
3074 3 12.7059 12.6665 0.0265157
1135 3 7.21969 7.22001 17.5402
3625 1 1.73751 5.52282 17.9479
2646 2 12.2879 12.5712 17.9058
2644 1 10.6481 14.1737 17.8997
62 3 8.93101 5.38164 17.682
14 1 10.8102 10.6912 0.126858
2073 1 12.4249 9.09865 0.0442465
3642 3 8.84911 15.9517 17.8177
1637 3 14.0062 10.765 18.0873
3073 2 9.00257 12.4682 0.172168
2124 1 14.4055 -0.247108 17.7954
1640 1 15.7694 9.02221 18.0509
3070 2 0.0749735 10.8624 -0.133075
2145 3 1.77736 2.03474 21.2164
3192 2 12.4455 -0.0537093 30.322
80 3 3.4539 2.18434 19.4923
79 3 7.41249 1.60847 19.7234
1673 1 -0.294529 8.87076 27.0113
2160 3 16.0724 0.133173 23.4021
3159 2 17.7522 10.9155 21.6373
85 3 8.84431 3.63479 19.3944
2673 2 12.2498 -0.249736 23.0035
81 1 10.6396 1.55926 19.6611
2653 3 12.5745 1.59099 21.5504
16 2 -0.0621405 18.0521 35.6366
522 2 14.6801 1.64042 19.7002
2721 1 1.78661 18.0577 33.904
1704 3 -0.000436186 3.51761 32.2006
3154 2 1.94973 3.76664 19.6205
84 2 1.83232 7.43792 19.7361
1717 2 15.9085 15.9484 32.2016
2655 3 3.55462 3.69872 21.3494
3155 2 1.93205 5.37795 21.3872
1005 3 -0.0297465 14.3378 28.5072
524 1 3.50922 5.301 19.5267
3649 1 5.53844 3.59527 19.7332
1152 3 5.51314 7.21115 19.4165
1585 2 10.669 17.7709 35.7791
525 3 7.30463 5.41173 19.5703
1155 1 10.8009 5.25469 19.4352
1153 2 7.27058 6.98242 21.2703
3650 2 8.94607 5.30274 21.3415
2650 3 17.6519 18.019 18.1351
87 2 12.5403 3.44756 19.6511
527 2 12.6119 7.35645 19.5146
3651 2 16.1275 3.56907 19.7199
1156 3 14.4136 5.31255 19.7629
2668 1 1.51107 -0.224011 26.9207
1565 2 7.14739 -0.171054 35.8827
1159 3 3.60675 8.91026 19.6835
529 2 1.62635 9.11105 21.5414
530 2 2.14411 10.6999 19.7671
1683 3 1.80799 17.9395 23.3585
111 1 0.104602 12.2302 26.7662
531 1 5.40871 8.83942 21.3502
1651 1 7.21376 8.81895 19.6435
533 1 7.09176 10.6619 21.51
3653 1 3.5923 10.7162 21.4972
1154 2 9.04605 7.21387 19.3892
86 2 10.5162 7.02588 21.4945
90 1 8.9148 10.6427 19.7867
3654 3 17.4301 9.15055 19.655
1652 2 10.7009 8.9546 19.3593
534 2 12.2913 10.6245 19.6124
2204 2 17.7717 10.661 32.6989
138 1 17.5668 8.99445 34.0252
1653 1 14.394 8.93569 19.9436
1157 3 16.3285 6.94658 19.7249
1665 2 1.64789 0.129115 23.1118
2720 1 15.9966 14.1574 33.9747
2149 2 3.37593 12.4432 19.5702
1189 3 3.46147 0.0270358 28.7257
3061 2 5.24182 1.65783 35.8265
532 3 5.41801 10.3228 19.607
1010 2 17.6295 12.3841 30.2736
2670 2 3.25707 0.0333727 25.2374
2151 3 6.88461 12.4907 19.5931
2153 2 8.92425 12.4895 21.311
2152 2 10.4616 12.466 19.5813
2659 1 12.1701 12.3618 21.1947
2154 2 12.2723 14.3627 19.5164
1714 3 3.60968 17.8931 31.8576
1012 1 10.6859 18.0272 28.4235
2155 1 13.7949 12.5879 19.8491
1656 2 15.5639 10.7514 20.057
520 1 0.0407401 0.124609 21.2457
3213 2 12.3053 14.3518 33.8513
1188 2 -0.35147 0.0360136 28.8197
3678 2 -0.347494 1.72632 30.3052
1659 3 1.71992 14.3249 19.8213
3161 3 1.74929 16.2945 21.5193
3147 1 15.9637 12.589 18.1601
3710 1 14.3247 16.0392 33.9589
3157 2 18.3137 7.27887 21.2071
1163 3 5.26805 14.3734 19.4737
2664 2 3.54186 16.0264 19.7288
1661 2 3.40875 14.2315 21.4449
1715 3 7.10245 17.9158 32.1208
1650 1 -0.0701543 3.78766 21.121
3705 2 18.0093 5.20872 33.9211
1662 2 8.92808 14.2528 19.6302
2658 1 10.8464 14.287 21.5392
2663 3 6.89149 16.2351 19.657
3709 1 5.56555 17.8022 33.725
3160 3 7.00613 14.4896 21.2974
2665 2 10.6039 16.0603 19.882
3166 1 14.1194 16.1574 19.7828
3656 2 12.5195 15.956 21.5741
1013 3 12.4988 17.7803 30.3039
3664 2 16.2746 0.209119 26.7168
2156 2 16.0078 14.2556 19.7116
1716 2 12.4325 15.8753 31.9425
562 1 16.1891 -0.271456 30.4136
93 1 1.41677 1.82868 24.9819
3169 1 3.3211 1.49363 23.3469
3173 2 2.0466 3.5409 23.2554
3175 2 3.3795 3.74319 25.23
1164 2 17.8828 14.2559 21.4669
2147 1 5.26031 1.7075 21.3385
647 3 10.879 17.5603 32.071
2652 3 8.68229 1.50506 21.4915
3170 1 7.18578 1.77276 23.2461
537 1 9.0341 1.67074 25.091
2183 1 14.1271 -0.10006 28.5087
2666 2 12.6628 17.7802 19.8478
3164 3 8.93031 18.0495 19.4831
3660 1 10.7613 1.73723 23.0849
3663 1 14.1655 1.70214 23.329
3202 2 15.842 17.8806 30.2996
3153 3 16.36 1.84641 21.6067
2569 1 3.58959 3.62517 35.8601
3217 1 10.7233 15.8292 34.0393
3145 3 14.1631 14.3507 18.156
100 3 3.54644 5.61764 23.1687
99 1 1.60637 5.2092 25.0527
98 3 1.76588 7.14883 23.3713
526 1 3.61938 7.01164 21.2857
3665 3 5.2761 3.15403 23.1454
3648 1 5.43861 5.39149 21.0853
542 2 7.04934 5.01657 23.2671
543 2 5.20821 5.24938 24.984
3156 2 7.12073 3.53782 21.3341
3666 2 8.99257 3.58114 23.1738
547 3 8.86138 5.14572 25.1959
2656 2 10.5679 3.3191 21.2723
3177 1 10.5928 3.54107 24.7915
1170 1 10.6523 6.93636 25.1152
3179 3 12.3922 3.54525 23.0607
88 1 12.2289 5.15407 21.4336
102 3 10.5812 5.40994 23.3549
1670 2 12.4033 7.15506 23.3072
548 3 14.2199 5.38893 23.1313
549 2 12.7938 5.07473 24.9804
89 1 16.2438 5.16329 21.734
2657 3 14.3074 3.41546 21.6411
3668 2 16.3136 3.67327 23.4903
1172 1 16.3029 5.48353 25.2175
1177 2 3.81637 8.62909 23.2203
3662 1 14.318 0.267726 25.0564
540 3 3.3828 6.82218 25.0989
1175 1 1.79164 8.89441 25.1598
541 3 5.55287 6.91721 23.1027
1178 3 7.1993 8.84758 23.0522
1176 3 5.25056 8.73086 25.0829
1161 1 8.79948 8.74253 21.3902
1160 1 10.592 10.7167 21.4679
546 2 8.78434 7.05683 23.6226
1674 1 10.4373 8.72462 23.4762
1181 2 8.56063 8.87429 24.864
552 3 8.84764 10.5316 23.1368
551 1 10.5024 10.5716 25.1024
1162 1 12.2542 8.67978 21.3882
1676 3 12.357 8.84393 24.8341
2148 3 14.2833 7.06326 21.4442
1655 3 15.9641 8.83008 21.4942
1675 2 14.5704 8.49666 23.1328
1671 1 16.2271 6.98769 22.9027
2191 2 0.155404 12.528 30.3824
106 3 1.73961 10.7741 23.3329
1658 3 1.65511 12.343 21.4264
1184 3 1.65842 14.3164 23.11
1678 2 1.93152 12.6306 25.0497
2169 2 3.44698 12.4018 23.221
108 3 5.25293 10.4356 23.1205
2150 2 5.3063 12.5445 21.4762
2170 3 5.00157 14.1815 23.1679
1185 1 5.27675 12.3077 24.7956
2167 2 6.90578 12.5248 23.3761
2171 3 10.5058 12.2391 23.4488
1182 1 12.4643 10.6343 23.3901
2683 3 12.5094 14.1947 23.3854
1654 1 13.911 10.4586 21.7237
2661 1 15.7729 12.7098 21.3286
1677 1 16.1191 10.4686 23.4662
2660 1 14.0409 14.3656 21.6892
2684 2 14.0218 12.2879 23.3176
2173 2 15.8569 14.6028 23.2926
2157 3 1.5499 17.8519 19.5098
2207 3 9.16746 14.2045 33.9575
523 3 -0.0336432 5.43919 19.536
643 1 10.5347 14.229 32.0804
3190 3 15.9551 18.2366 26.6588
3152 2 8.82785 -0.265312 19.7202
1684 2 1.85752 16.1932 25.1148
3185 3 3.50734 16.1731 23.3548
3163 2 5.13527 15.95 21.4472
3186 1 7.05838 15.8636 23.3766
2703 3 5.3732 17.7526 30.4704
141 1 -0.147328 17.958 32.2614
1711 3 -0.189189 9.12955 34.1131
2682 2 8.76625 14.2456 23.1429
3655 1 8.70418 16.0147 21.3299
3675 1 10.4425 15.9759 23.4658
1686 3 8.78674 15.923 25.1894
3676 3 14.0756 16.0325 23.417
3188 2 12.4732 16.0686 25.002
622 3 18.0167 3.2223 28.6241
3151 1 2.08306 0.0194779 19.3723
3210 3 0.151213 10.8882 32.2146
92 1 16.1067 16.1155 21.5079
3708 3 7.03321 14.2489 32.3063
1168 2 1.3771 3.61471 26.7713
2180 2 1.47404 2.00379 28.5346
3658 3 5.41145 1.69604 25.2363
2669 2 3.10283 1.72066 26.9658
2181 2 5.36338 2.01689 28.5907
94 2 7.14249 1.70928 26.9882
2182 3 8.98256 1.72207 28.7968
2672 1 10.7972 1.75172 26.7723
2675 1 7.01107 3.47843 24.8849
3661 2 12.0695 1.83363 24.9881
105 1 14.3067 3.43515 24.7319
2184 2 12.627 1.58845 28.7645
2694 2 10.691 3.66535 28.7516
3218 3 12.5445 17.5902 33.7991
559 1 7.02421 0.0986966 28.8317
538 1 14.4156 1.84579 26.6362
539 2 16.0996 2.16237 25.1061
3180 2 16.1012 3.57507 26.7806
544 2 3.45802 5.44751 26.9606
1690 1 3.42093 3.89088 28.6077
3194 3 1.73912 5.58943 28.8096
3176 2 5.28919 3.62421 26.9379
2676 2 7.13232 5.32779 26.9066
3174 3 5.20853 7.08721 26.7937
101 2 7.01369 6.8478 25.1135
1171 2 9.09572 3.37317 26.7545
1169 2 8.77373 7.04888 26.5177
545 2 10.7416 5.18777 26.816
3197 2 8.93391 5.42034 28.3179
104 3 12.5967 3.48355 26.8356
103 3 14.264 5.13924 26.7293
3683 2 12.5368 5.17677 28.6942
3667 2 14.442 6.76983 25.1928
3684 2 14.3515 6.71955 28.3178
2696 3 0.095144 10.6179 28.5864
1669 1 1.79278 7.23109 27.1906
2161 2 1.81514 10.573 26.7482
3196 1 3.46787 6.92017 28.7796
1713 2 5.37176 14.1683 34.1916
3687 2 1.7595 8.85096 28.8746
3216 3 3.61397 16.1073 33.8965
107 3 3.53469 8.73433 26.7901
3670 2 3.48925 10.585 24.9445
3688 2 3.62481 10.6044 28.466
3689 1 5.30144 8.83853 28.4687
122 1 7.15412 10.6935 28.874
2162 1 6.94273 8.77516 26.8383
3681 3 10.62 7.13078 28.6358
109 2 8.65528 10.4189 26.8197
110 3 10.6995 8.833 26.7097
3178 3 12.6004 7.02721 26.824
3181 2 12.5181 10.6711 26.7325
1183 2 15.841 8.72228 25.3854
1174 2 16.2968 6.98471 26.8198
2164 3 14.1354 8.76493 27.0713
628 2 16.0571 8.67333 28.7104
1027 3 5.57068 15.9191 32.2141
3215 3 7.22226 15.9511 34.3115
629 3 1.82526 12.297 28.5777
1015 1 6.99651 0.249082 32.064
1179 3 5.34749 10.559 26.8805
2680 1 3.36057 12.4826 26.5199
112 1 5.12989 14.1875 26.7206
1006 1 4.94505 12.5437 28.5931
1180 1 6.76536 10.6826 24.8143
1679 3 7.05415 12.272 26.9609
2681 3 8.79674 12.1794 24.8657
113 1 7.02534 14.1272 25.142
1008 1 8.75616 12.3853 28.4664
2698 2 10.6179 10.6232 28.3694
1681 3 12.3862 12.3661 24.9954
3182 1 10.64 12.3491 26.8932
1009 2 12.2983 12.4922 28.5012
3638 3 5.1695 16.1348 17.6404
2163 2 14.4355 10.6043 25.0255
2685 1 16.0797 12.5546 24.7498
1682 2 14.3686 12.6878 26.9546
554 2 16.0602 10.7014 26.82
3184 3 16.1283 14.2545 26.8096
1030 3 14.2735 17.7934 32.2035
83 1 0.0681162 7.04068 21.7704
2679 2 1.7442 14.3609 26.722
1685 2 3.47898 16.1281 26.738
2192 1 1.63842 15.9778 28.3339
2168 1 3.19419 14.3549 24.8792
1007 1 3.34809 14.1788 28.6125
3187 2 5.33685 15.7844 24.9047
2193 2 5.30114 16.0144 28.5415
3674 1 6.93116 16.0256 26.8977
2172 3 9.02865 14.1695 26.7188
1688 1 10.7147 15.9846 26.978
2194 2 8.82912 15.7188 28.3369
1680 2 10.6261 14.0922 25.0437
114 2 14.1864 14.2566 24.8004
2159 2 17.961 1.80077 26.8201
556 2 12.5537 14.1833 26.5991
116 2 14.1076 16.1057 26.7302
1699 1 14.446 14.4287 28.3962
2206 3 1.86351 14.4042 33.7467
18 2 8.97121 15.9273 35.9937
1689 1 16.0084 16.0746 25.191
560 1 10.7965 -0.196275 28.6229
75 2 12.408 16.1662 17.6204
120 1 1.67884 3.67802 30.3413
2719 3 17.7905 14.3252 32.2267
117 2 3.38605 1.86094 30.3495
2708 1 5.44275 1.95708 32.2188
1705 1 3.59978 3.45862 32.3883
2205 3 0.0800067 12.4945 34.0071
557 2 17.767 12.7093 23.1842
118 2 7.18867 1.83409 30.3504
2711 1 10.5997 3.28136 32.3258
119 3 10.647 1.9383 30.3397
1003 1 12.5975 3.3832 30.4116
3062 3 8.88175 1.73913 35.7209
519 3 10.5976 17.6875 17.7538
561 2 14.4331 1.38806 30.3823
3193 3 16.1565 1.78204 28.5201
623 3 16.2601 3.62795 30.2918
3207 2 1.95332 5.29581 32.3648
121 1 1.65616 7.1008 30.7805
521 1 3.53423 0.056257 21.2605
1691 1 7.20679 3.51515 28.6734
3195 2 5.35404 5.35868 28.6411
3680 3 5.15561 3.63809 30.3801
1001 1 3.54505 5.31924 30.4364
3682 2 8.8419 3.70091 30.4268
1191 3 7.27381 5.45389 30.2198
3702 2 8.81595 5.33773 32.1642
2710 1 7.16933 3.55614 32.2895
1002 1 10.6264 5.35197 30.3814
2187 1 12.6698 7.07347 30.1149
3703 1 12.4907 5.44746 32.0423
2572 1 0.186574 14.3246 36.0179
3685 2 16.3824 5.13401 28.4017
2695 3 14.4699 3.48256 28.7449
1693 3 14.5197 5.47782 30.3247
2714 2 15.702 10.6135 34.0752
1701 3 7.08732 17.9599 28.5
3706 1 1.68913 8.92633 32.3074
1692 3 5.2384 7.13511 30.4099
1696 1 3.71393 8.93579 30.2369
2188 1 5.34059 10.6219 30.3577
2189 2 7.21289 8.52081 30.5987
563 3 6.97058 7.0811 28.4428
135 1 9.06825 8.96005 32.076
2693 1 9.07192 6.92678 30.1263
625 3 8.75764 8.74098 28.7075
2697 1 10.6662 8.81973 30.2107
3701 1 7.12066 7.06898 32.3297
3690 2 14.2016 10.7119 28.6344
626 2 12.2644 8.89853 28.6657
137 3 12.2564 9.17896 32.3299
2699 2 14.2609 8.81382 30.2525
1694 2 16.2152 7.02106 30.2891
2190 1 15.877 10.4931 30.4071
139 1 15.9934 8.85876 31.941
77 2 15.9415 15.9736 17.8859
131 1 15.9975 -0.0319518 33.7914
624 1 1.93 10.5869 30.4278
3691 1 1.77643 14.4115 30.3579
641 1 1.92025 12.7699 32.0298
12 2 14.3322 3.56798 35.8397
2700 2 3.71269 12.4466 30.3674
3198 3 5.604 14.2365 30.4051
3199 3 7.21219 12.4264 30.5433
1697 3 8.84987 10.6498 30.2805
2701 3 8.80962 14.2302 30.1648
124 2 10.6766 14.1428 28.5119
3200 2 10.5897 12.2893 30.242
627 1 12.3795 10.8296 30.3588
2713 2 10.7206 10.9092 32.2428
3201 1 14.5145 12.4126 30.1636
136 2 14.1962 10.8109 32.1139
2702 3 12.3852 14.2996 30.1579
1011 1 15.8311 12.5571 28.533
1024 3 15.9601 12.4977 32.2087
125 3 16.025 14.3869 30.3635
78 2 0.224242 1.73725 19.46
1026 3 1.81585 15.9194 32.1983
126 3 3.50954 16.0388 30.065
3695 3 9.04914 17.731 30.4948
630 2 7.1019 14.0997 28.5563
127 3 7.17762 15.9897 30.518
63 1 10.7712 7.17469 17.5072
2691 2 8.89893 0.0330002 30.2386
1029 1 8.94684 15.9421 32.1564
2196 2 10.5951 -0.165844 31.9842
3696 1 10.355 15.9341 30.1332
3189 1 15.9756 17.6621 23.318
1645 2 14.3314 17.9387 17.8222
2195 2 12.4575 15.9838 28.3217
129 2 14.2949 16.1569 30.455
1638 3 12.684 8.80469 17.7828
2165 1 17.7731 10.7538 25.2065
1710 3 1.84891 10.7483 34.0319
2704 3 16.0909 16.1357 28.5523
1190 1 0.0827841 5.28871 30.9154
2707 3 1.69912 1.76232 32.2414
3699 1 1.70635 3.49845 34.1304
642 3 5.31066 12.5059 32.1097
1166 2 17.5644 16.0344 19.5988
633 2 3.32518 1.74571 33.9851
3171 3 10.5636 -0.224811 24.9356
632 2 7.14021 1.52574 34.0928
2709 2 8.9427 1.6331 32.2301
634 1 10.8289 1.54895 33.9874
2203 3 14.0297 8.89222 33.9658
3209 1 14.1371 7.20624 32.1102
3211 2 3.33049 10.746 32.3037
1657 2 -0.342665 12.7054 19.8116
2717 3 10.6902 12.5744 34.0149
2200 3 14.2595 3.71656 32.0507
3204 1 12.6502 1.82975 32.2933
1016 2 14.2546 1.84005 34.0883
3205 2 15.8799 1.78985 32.2878
646 2 12.2647 12.8103 32.1588
644 3 9.00397 12.3741 32.1693
2175 3 6.8863 17.7246 24.8931
640 2 9.3313 10.833 33.9805
636 3 1.82993 7.14005 34.005
1018 3 3.71645 5.25845 33.785
2718 2 14.0727 12.4254 34.0354
3208 2 5.42968 5.4725 32.3279
2199 1 5.46052 7.17828 33.9966
132 3 5.34277 3.49892 33.8912
1019 3 6.95403 5.38532 34.0902
1707 2 10.572 5.06929 33.868
1020 1 8.70978 3.55298 33.8479
2176 3 8.86418 17.9039 26.8505
1708 3 14.3484 5.20807 33.876
637 1 12.4762 3.65723 33.7523
2716 3 6.97688 12.3659 33.9294
3704 3 16.1476 5.27586 31.9569
133 2 16.1621 3.38826 33.9161
2715 1 3.68938 12.4279 34.0084
645 1 14.1815 14.1736 32.3901
3700 3 3.57724 7.24142 32.2988
1712 2 3.62622 8.86457 33.9455
1022 2 5.30888 10.7524 33.9634
134 1 5.31623 9.01734 32.5911
3707 3 3.74243 14.4082 32.0222
2201 1 7.10682 9.13567 33.8651
2202 1 10.5544 8.80587 33.9426
1706 3 8.9643 6.93447 33.9823
2712 3 10.857 7.22353 32.1249
1021 2 12.4749 6.7301 33.8275
1023 2 12.4904 10.6606 34.1237
1718 3 17.7574 15.9879 34.174
3212 1 7.09245 10.4632 31.9647
1709 3 15.9611 7.07043 33.8971
9 2 8.92342 5.1332 35.7627
11 2 12.3754 5.23922 35.7979
635 2 12.5248 -0.0690907 34.073
2084 2 10.6471 14.0953 36.0842
1700 2 1.71874 17.7391 30.3043
2678 2 18.0798 7.08099 24.9583
2186 3 -0.054318 7.1995 28.7703