ITEM: TIMESTEP
5000
ITEM: NUMBER OF ATOMS
4000
ITEM: BOX BOUNDS pp pp pp
2.0039845057948824e-01 3.5897381549420381e+01
2.0039845057948824e-01 3.5897381549420381e+01
2.0039845057948824e-01 3.5897381549420381e+01
ITEM: ATOMS id type x y z
3063 2 2.08333 2.19431 3.52012
3566 2 1.86143 3.92292 2.00727
633 1 11.1362 18.1866 3.97018
2017 3 18.0792 5.40856 5.73744
3064 1 5.75429 2.08299 0.228696
1 3 3.88828 1.95017 2.12499
1566 2 5.56601 3.7311 1.9063
2065 3 7.34187 2.11791 1.80336
566 3 10.9553 0.112081 3.7232
3072 1 16.2915 6.02895 0.166618
2088 1 0.152081 12.7625 5.33335
2571 1 7.45825 3.96155 0.0393728
2 3 11.2201 1.92587 1.87423
3065 3 9.10408 1.98473 3.74785
3567 2 9.16993 3.9863 1.96126
926 1 18.0133 18.0515 14.4018
1567 1 12.7872 3.88433 1.86442
2564 3 0.345715 -0.0734659 3.95533
1067 1 12.7038 2.16277 3.77367
1615 1 15.8822 0.0651769 16.348
2066 3 14.501 2.11237 2.02384
28 2 0.716141 16.2269 5.56786
253 2 18.0881 5.59617 2.0227
2570 3 3.82036 3.98031 3.35982
1069 2 2.06369 5.80681 3.59743
653 2 14.4666 18.0231 7.36258
2095 3 0.131692 2.13872 8.86008
2067 2 3.80651 5.77895 1.87068
3069 3 5.41511 5.6696 3.71782
278 3 18.0368 16.297 5.65684
4 3 7.24164 5.67331 1.94414
2068 1 10.8764 5.57983 1.98571
1569 2 9.3183 7.62202 2.05976
576 2 10.8027 7.32717 3.87108
3570 3 12.5512 7.48466 2.14706
2578 2 14.6412 7.32171 3.89603
5 3 14.4333 5.62329 1.94795
572 1 14.6828 3.87654 3.64259
3568 3 16.4306 3.90335 1.93345
1073 1 16.4009 5.43844 3.74285
2126 3 14.3788 16.1855 16.3462
1568 3 2.0374 7.57796 1.86631
6 2 4.07853 9.16614 1.84857
2574 1 0.223744 7.44731 3.73401
1740 1 8.96908 17.9966 16.4802
3569 2 5.80405 7.49069 1.95303
2825 1 18.1542 7.41927 3.73493
1571 3 5.99411 10.9771 1.95255
2591 2 0.0549956 7.46322 7.16732
282 3 17.9745 2.21945 12.5387
2070 3 7.41124 9.25263 2.01684
7 1 10.9064 9.43156 1.92124
615 3 14.1321 0.230931 14.5327
1077 3 12.7743 8.9961 3.69484
1572 3 12.818 11.004 2.04276
582 3 14.5623 10.9917 3.81887
2835 1 18.0255 14.6152 3.84129
1570 1 16.292 7.39705 1.97128
2071 3 14.4503 9.46467 1.94977
1134 1 9.05292 5.5 18.0977
3077 3 16.2808 9.09142 3.61603
1082 1 12.6898 12.7029 0.282187
3571 1 2.12752 10.9298 2.08636
1079 2 2.02122 12.8261 3.70451
2072 2 3.98174 12.8119 1.91134
2011 3 17.8403 16.3372 2.11214
3614 1 5.36326 0.164 16.06
2566 3 7.36707 0.368894 3.63093
3079 2 5.59231 12.6609 3.76464
9 3 7.35361 13.0387 1.8478
3574 2 5.5773 14.7346 2.0444
1594 2 2.04253 0.162454 8.89025
3572 3 9.13871 11.0384 1.90063
2073 3 10.7963 12.6931 1.89457
1574 1 9.17909 14.6338 1.69714
10 2 14.6006 12.6991 1.83821
3081 1 12.6599 12.8126 3.83377
2588 3 14.7045 14.3951 3.76609
3573 1 16.3981 10.9482 1.72309
1083 3 16.2443 12.7865 3.77545
270 1 17.9096 9.26216 5.75286
1575 1 16.1197 14.4412 1.85053
2845 1 18.0716 0.248852 11.0708
303 2 17.9934 5.67429 16.4297
1573 1 2.44035 14.2594 1.85921
3083 3 1.9733 16.2761 3.77944
2621 1 0.289786 10.8678 14.3554
3625 3 12.6839 14.2832 16.2922
565 1 7.54996 0.132837 0.264474
11 3 3.91048 16.3283 1.96231
1085 1 5.68416 16.2651 3.70811
2075 2 7.357 16.2565 1.84318
586 2 10.9689 14.354 3.68034
12 2 10.8837 16.4791 2.00607
2056 2 18.0904 8.92566 16.3889
3575 3 12.8503 14.6444 2.13826
2076 2 14.6369 16.3744 2.12899
3565 1 12.7569 0.313933 1.85746
2584 1 0.385572 14.5019 3.49874
3125 3 2.14711 2.13406 18.1778
1293 1 18.1424 12.8286 9.236
62 2 10.9481 16.2002 16.558
3124 3 12.6344 16.2282 14.5752
623 2 0.131989 14.4384 14.3424
596 2 12.7148 0.182638 8.92509
2727 2 14.5403 18.2383 11.125
2077 3 3.7053 1.94856 5.33908
1579 1 2.10278 3.99672 5.38898
1089 3 2.03092 2.02518 7.1232
1125 2 9.16894 16.304 14.6655
598 2 0.289939 3.99716 10.7233
570 1 7.379 3.84452 3.63943
2568 2 14.4263 0.331573 3.54208
2061 2 17.9554 16.4464 16.2941
1065 3 5.66291 1.9913 3.60612
14 1 7.36659 2.09195 5.32066
794 1 18.1761 10.7346 10.7765
1581 2 9.23259 3.6803 5.39484
2079 1 10.7904 2.06107 5.45072
2572 2 11.0346 3.84852 3.5647
3740 3 5.5555 18.1047 16.268
3582 2 12.4751 3.90327 5.50689
15 2 12.8109 1.94891 7.09975
16 1 14.506 1.90355 5.59282
3067 2 16.4596 2.19257 3.84022
1582 3 16.0619 3.75193 5.5139
1090 3 15.9897 1.82108 7.33561
574 3 3.70776 7.56902 3.8293
17 2 3.88602 5.47191 5.60434
2081 2 1.89926 5.49811 7.10149
2626 1 0.261407 0.397839 18.2387
3580 1 5.44231 3.71635 5.55301
1584 3 5.4775 7.28009 5.60181
3089 2 5.62094 5.63746 7.28416
2082 3 7.38441 5.63495 5.371
3581 1 6.99082 3.59265 7.00883
1071 2 9.08917 5.8826 3.61859
590 2 10.8771 3.63732 7.39309
3585 1 9.03567 7.53191 5.58635
3071 1 13.0407 5.52338 3.81324
19 1 10.832 5.51377 5.38572
1585 2 12.871 7.19165 5.58358
2083 3 14.461 5.45484 5.72299
2124 3 0.292296 16.3178 16.1214
3586 3 16.2577 7.43001 5.75431
2084 1 16.2822 5.3438 7.37792
2125 2 7.3289 16.1448 16.1454
1624 2 9.31335 14.2999 16.3971
3073 3 1.89544 9.13233 3.65336
3583 1 2.27683 7.16774 5.56586
3090 3 2.08734 8.96747 7.36635
2576 1 7.3291 7.48341 3.84917
2085 2 3.78796 9.16993 5.6478
1075 2 5.48773 9.22545 3.62107
22 2 7.19884 8.97827 5.45345
3075 3 9.07794 9.37645 3.77975
580 3 7.37879 10.9556 3.7504
1092 2 9.01149 9.25227 7.30178
1588 3 9.12589 10.935 5.50215
2582 2 10.8401 10.9416 3.6892
2593 2 10.8238 11.2681 7.12359
2086 1 11.1093 9.27546 5.53324
23 2 14.6305 9.27144 5.57006
2087 1 12.7953 9.5111 7.17128
3589 3 12.5766 11.0751 5.25901
3091 3 16.0725 9.19612 7.46027
3590 1 14.5696 10.8524 7.2136
1590 1 16.438 10.8417 5.5437
510 2 14.428 3.83969 18.2206
1587 3 2.00781 10.9181 5.63399
2580 3 3.92393 11.152 3.88714
3591 1 1.96675 14.4558 5.82864
25 2 3.89723 12.8288 5.70487
3588 3 5.57324 10.6785 5.52523
1592 2 3.84925 14.7162 7.31063
1081 3 9.24445 12.855 3.5921
2089 3 7.65081 12.7713 5.41732
2586 1 7.40548 14.5567 3.68182
3592 3 9.07476 14.5615 5.46742
2090 2 9.09421 12.7745 7.33447
26 2 10.8511 12.8338 5.43892
2091 2 14.5415 12.448 5.56077
1593 2 12.5925 14.5414 5.39914
2036 3 17.8838 5.20731 12.7513
3594 2 16.2001 14.6578 5.6017
2715 1 7.49562 18.1438 7.38775
1094 3 2.15503 16.5794 7.40766
3692 3 12.6047 18.177 1.91468
2603 3 0.276764 7.11981 11.0854
2074 2 0.190449 16.5484 2.05747
584 3 3.88523 14.5138 3.78245
2092 1 4.00573 16.3748 5.52925
1591 3 5.7637 14.4054 5.57638
29 2 7.36493 16.3386 5.56968
3085 2 9.28107 16.2464 3.75888
2094 1 10.8454 16.1013 5.42092
2632 3 3.71125 4.0504 17.8331
1087 3 12.8847 16.3652 3.77372
31 1 14.4959 16.371 5.5017
8 2 0.213695 12.8447 1.7571
597 3 10.808 0.25913 10.7671
3087 2 16.3487 16.3814 3.88041
581 1 10.9211 11.0945 0.0594495
3123 3 5.46469 16.2735 14.6247
2599 3 2.04533 3.7701 9.01851
3579 3 16.1164 0.151513 5.48071
2078 3 5.67832 1.73503 7.36284
3095 2 3.9807 1.93809 8.94644
33 3 7.37028 1.8032 9.07293
3088 1 9.09541 1.9522 7.28123
599 3 9.25823 3.81354 9.19302
1097 1 10.779 2.07859 9.13052
2615 3 10.7827 0.109434 14.3552
1721 1 5.53428 17.8306 12.8176
1600 3 12.5176 3.73275 8.96174
3598 2 16.3561 0.13375 12.5344
1098 2 12.5284 1.88192 10.837
1703 2 5.8749 18.2033 5.68108
2098 2 14.3818 1.94078 8.96081
3097 2 16.0551 1.93667 10.9827
2602 2 16.1812 3.69121 9.17951
2590 1 4.06287 3.53469 7.27079
1099 3 2.11464 5.52114 10.9479
36 3 3.75799 5.53643 8.87223
3599 2 5.65436 3.63966 8.8638
1100 3 7.38244 5.50866 9.04317
591 1 7.31713 7.47859 7.2526
18 2 9.16066 5.38957 7.16276
2101 2 10.9365 5.65755 9.2685
1586 2 11.0197 7.36639 7.1098
1091 3 12.5665 5.64247 7.53676
2592 1 14.4962 7.37475 7.36194
2605 2 12.7916 7.28398 8.94452
3101 1 14.504 5.32826 9.01895
1583 2 14.3183 3.65831 7.29789
2606 3 14.4065 7.2416 10.7991
1102 1 16.0565 5.48534 10.7598
603 3 3.73609 7.3141 10.8663
3602 3 1.87183 7.3527 8.92203
3102 2 1.92316 9.28047 10.8586
3624 3 5.60253 14.5936 16.1475
1565 2 16.3648 0.31061 1.84567
3584 1 3.8304 7.36831 7.32648
21 1 5.37606 9.04571 7.54127
1103 1 3.73178 9.18482 9.19485
602 1 5.68407 7.46793 9.16274
1606 2 5.48347 10.8489 9.21914
1589 2 7.27498 10.7378 7.2491
2104 1 7.42761 9.23823 9.13576
1603 2 9.1131 7.53348 9.10006
2608 2 9.3426 11.0324 9.02085
3104 3 10.9226 9.13661 8.746
42 3 14.4191 9.11071 9.19789
609 1 14.4057 10.8616 11.0001
2047 1 17.8966 16.1437 9.3396
3605 3 16.1612 7.44591 9.41067
608 1 16.402 10.8505 9.27203
3105 3 16.0085 9.0762 11.0461
592 1 3.8243 10.9427 7.39919
1704 1 3.97552 18.1354 7.54731
605 2 2.0589 10.8374 8.99349
24 3 1.99832 12.6526 7.55052
40 1 0.438773 9.13347 12.6567
1124 2 1.89999 16.4106 14.3454
651 2 0.429822 18.1413 7.46596
2107 1 3.87866 12.6693 9.09486
1093 1 5.62365 12.6694 7.44847
3107 3 7.42139 12.5695 9.22249
45 3 11.1521 12.7471 9.04676
2594 1 7.4279 14.5535 7.20058
3608 2 12.8657 10.9723 9.07676
3092 2 12.7083 12.7315 6.98402
1109 2 14.3012 12.7935 8.95175
3593 1 10.8667 14.4482 7.25917
611 2 12.7417 14.4022 9.02552
594 1 14.6374 14.3894 7.19077
595 3 3.64127 0.0868642 10.8811
27 1 16.2625 12.6371 7.44871
1612 2 16.198 14.3585 9.13117
1110 2 16.1664 12.6346 11.0212
1609 1 2.27075 14.5603 9.15997
3109 2 2.13802 16.2864 10.7251
614 1 7.48082 0.175016 14.3993
2611 1 6.03348 14.6212 9.03631
2093 2 5.641 16.3589 7.38761
3110 2 4.01554 16.268 9.1791
1768 1 17.8517 3.70074 7.63102
3093 2 8.93597 16.3677 7.48353
3611 1 9.1499 14.308 9.02399
48 2 7.36294 16.3691 9.01292
2080 2 0.199265 5.71565 5.42144
30 2 12.7165 16.3644 7.36499
1112 3 11.0449 16.0879 9.23544
2113 3 14.2858 16.2869 9.37252
2853 2 18.0451 7.07972 11.1162
61 2 3.67654 16.2043 16.2773
1095 3 16.2411 16.1755 7.37464
3723 2 9.22543 18.1504 9.084
2110 1 0.142321 16.5005 9.07982
57 2 10.9651 9.03117 16.3529
3094 1 1.99663 1.94404 10.6236
618 2 0.154256 7.39898 14.3844
2096 3 3.62154 2.07611 12.3282
502 1 3.48689 0.027456 18.4142
1096 3 5.59692 1.74119 10.8561
3143 2 12.6583 12.6011 18.2057
34 1 7.3089 2.18127 12.7303
3113 2 5.68819 1.98713 14.2683
1578 3 12.6788 0.121956 5.32916
3096 3 9.09173 2.13532 10.9626
59 2 7.20776 12.41 16.2546
1115 2 9.13185 1.83429 14.5913
1599 2 8.94557 3.75413 12.5544
2617 1 7.6058 3.77377 14.3172
2097 2 10.6541 2.07442 12.6436
601 2 14.453 3.78271 10.7673
35 2 14.4153 1.93431 12.6314
1601 1 16.0487 3.54193 12.7859
2123 3 10.9634 12.5686 16.1815
1598 2 1.9526 3.70657 12.446
3115 2 1.81397 5.44967 14.2712
3603 3 2.16943 7.10951 12.5927
2600 3 3.98767 3.67967 10.5981
3099 1 5.43814 5.46876 10.5888
616 1 3.46016 3.76317 14.4581
3600 3 5.54371 3.79596 12.5487
37 3 3.93973 5.52725 12.4037
1117 3 5.56458 5.27388 14.3448
2619 3 3.87569 7.18143 14.322
2100 1 7.36285 5.58094 12.7972
600 3 7.34429 3.87299 10.8068
1101 3 9.34727 5.59864 11.1027
3604 2 9.30419 7.45392 12.954
38 2 10.8322 5.55033 12.7871
3100 1 12.5973 5.66467 10.8395
2601 1 10.8616 3.93355 10.8742
3601 2 12.6691 3.88344 12.5747
617 2 10.9421 4.05561 14.6019
1118 1 12.5981 5.65387 14.6523
2618 2 14.3171 3.7951 14.5254
2102 3 14.3111 5.57608 12.7235
3606 1 16.1032 7.12404 12.7276
620 1 14.5981 7.34268 14.6497
1623 3 2.10405 14.2197 16.1436
2103 1 3.48128 8.88937 12.6496
607 3 7.39062 10.8141 10.9449
1602 2 5.65397 7.35483 12.6546
1104 2 5.53796 9.10949 11.1308
41 3 7.46417 9.04635 12.5844
3118 2 5.79842 8.97304 14.3683
2604 3 7.34718 7.19935 10.9344
604 1 10.8724 7.31587 11.1479
3103 3 9.53636 9.14689 10.7662
1120 3 9.2277 8.88863 14.6072
2105 2 10.99 9.1244 13.0045
1105 1 12.3693 9.09256 10.7765
1604 1 12.6064 7.30765 12.6005
2609 1 11.1343 11.179 10.8679
3119 3 12.8283 9.06038 14.8159
3609 1 12.8151 10.9905 12.6636
2620 1 10.9781 7.25584 14.6202
2623 1 14.4281 10.7764 14.8692
43 3 14.3117 9.07954 12.739
1608 3 15.9719 10.8756 12.5651
1605 3 2.09888 10.936 12.5121
2871 1 17.9902 10.9614 14.3465
1107 1 1.91125 12.6881 10.8801
3120 2 1.96201 12.7503 14.2174
625 3 14.4192 14.5737 14.6504
624 3 7.47897 14.5835 14.6423
2607 2 3.79113 10.9499 11.0141
3106 3 5.54458 12.7119 11.1312
3607 2 5.50258 11.0342 12.7571
44 2 3.70083 12.8738 12.7199
1610 2 5.51257 14.3098 12.7002
610 2 3.90437 14.4859 10.9169
1607 3 9.2561 10.6457 12.5482
2108 3 7.55276 12.7627 12.8147
1108 1 9.33687 12.5841 11.1789
3121 2 9.16486 12.5831 14.5342
3108 2 12.7368 13.1698 10.867
46 3 10.9519 12.7074 12.8984
1611 2 12.5646 14.2993 12.9413
622 1 10.83 10.7041 14.7568
2613 3 14.5219 14.5989 11.0849
3122 1 16.0001 12.6673 14.5208
2109 3 14.4117 12.7248 12.8351
3613 2 16.1212 14.5061 12.8709
60 3 14.472 12.6494 16.4037
2044 1 17.9209 12.7303 12.5459
2622 2 7.47403 10.915 14.3446
1613 1 2.17125 0.237439 16.157
2032 1 18.1807 1.89774 9.10551
2624 1 3.81203 14.3867 14.446
3610 3 1.91607 14.5541 12.5941
606 2 0.289065 10.8947 10.882
1111 1 5.61877 16.0534 10.7644
2111 3 3.65781 16.207 12.7685
49 1 7.58466 16.5397 12.933
1122 3 5.60399 12.5945 14.4949
290 2 17.947 9.06829 12.7042
680 2 14.3696 18.0779 14.4913
2612 3 7.49512 14.5302 10.9494
3111 1 9.13631 16.0757 10.7851
3612 3 9.23462 14.4453 12.8546
612 1 10.9165 14.4133 10.7893
1113 2 12.6657 15.9811 11.0648
2112 3 11.0126 16.1962 12.6788
50 1 14.1363 16.3102 12.7791
2625 1 10.9887 14.3754 14.6414
1126 1 16.2981 16.1012 14.4992
3112 2 16.1936 16.3616 10.9517
1625 1 16.0872 14.3926 16.3975
1114 2 1.97683 2.0642 14.4456
1622 2 12.5321 10.9086 16.5023
1621 2 5.55616 10.8774 16.0151
1123 3 12.8151 12.3851 14.6113
2866 3 18.0102 3.64329 14.4789
2051 3 18.137 2.0386 16.0855
51 2 3.72992 2.24933 16.3115
2115 2 7.28351 1.96622 16.1153
3617 2 9.11318 3.58569 16.2756
568 1 0.266627 3.86507 3.90981
2610 3 0.195696 14.6689 11.0181
776 2 18.0608 0.0675783 7.42842
52 3 10.8641 2.08115 16.1226
3114 1 12.417 2.07297 14.3137
2116 3 14.2934 1.9603 16.295
1617 3 12.691 3.98516 16.3308
2099 3 0.108688 5.53534 12.5986
1116 2 16.0349 2.00102 14.5047
2122 1 3.81013 12.4943 16.0263
3616 2 1.8811 3.88275 16.1952
2117 3 3.86031 5.45946 16.1277
1618 1 2.22308 7.303 16.0469
2120 1 7.33492 8.87381 16.2424
1616 1 5.54268 3.68306 16.0349
54 2 7.28247 5.42392 16.0688
3619 2 5.599 7.07054 16.2514
2121 2 14.5415 8.95783 16.4578
3622 2 9.12485 10.9295 16.3365
1619 2 9.20235 7.13177 16.2564
3116 3 9.16402 5.51875 14.4541
619 3 7.38451 7.24822 14.5085
2118 2 10.8197 5.54906 16.3053
3620 2 12.683 6.99188 16.4223
55 2 14.4851 5.55364 16.3921
1121 1 16.4319 8.92915 14.6826
1620 1 16.0475 7.04659 16.4475
3348 2 17.9414 5.58821 9.10496
3117 3 16.0747 5.31904 14.6619
3618 1 16.3842 3.52864 16.2959
3623 2 16.2352 10.7667 16.3057
1119 2 2.02129 9.05068 14.3503
621 2 3.89829 10.6624 14.5482
3621 2 2.07335 11.1306 16.0146
2860 1 17.7968 14.6579 11.1229
56 2 4.13324 8.91052 16.0197
522 1 3.93091 14.3761 17.9656
297 2 18.0525 16.1866 12.7753
663 1 11.0347 18.0537 11.0424
806 1 18.0238 7.33181 14.5374
781 1 18.0661 14.3325 7.51352
2634 2 10.6912 3.78687 18.027
593 3 0.313257 14.4155 7.42413
1130 3 12.5248 2.11353 17.9126
2069 1 0.0599136 9.01953 1.81466
2583 2 14.4605 10.9281 -0.0508798
811 1 18.1415 14.422 14.7852
1106 1 0.179648 12.9443 9.31518
587 2 14.2676 14.5686 0.100435
3 1 0.233414 5.733 1.86788
2521 3 17.8576 14.3793 18.2448
630 1 7.20696 18.3398 0.245679
3127 1 9.09571 1.90515 17.9509
3141 1 5.56431 12.5789 18.0254
512 2 3.60448 7.179 18.1194
575 1 7.45872 7.24494 0.0767592
520 3 14.511 10.8795 18.1428
1064 1 1.98042 1.87877 0.259892
2575 2 3.76322 7.36362 0.134523
3145 3 1.95808 16.2359 17.8595
1084 2 2.16374 16.4861 0.286391
3086 1 12.6734 16.6103 0.0989428
518 3 7.26353 10.7585 18.1634
2579 1 0.354953 10.9917 0.316329
3135 3 2.14454 9.14025 17.8688
2628 2 7.21834 0.00656827 17.9137
3076 3 12.7747 9.2455 0.0909969
3147 1 9.16783 15.9971 17.9639
1128 1 5.37251 2.17139 18.1109
1132 2 1.8989 5.57294 17.9365
577 3 14.257 7.39645 0.324023
1078 1 16.2984 9.15966 0.0708459
695 2 11.1503 18.1573 18.275
3149 3 16.1916 16.3348 18.2007
3068 1 1.7295 5.76578 0.179168
3074 1 5.75132 8.98352 0.234609
1148 3 5.66706 16.1684 17.9781
569 3 3.64574 4.07118 0.247403
1072 3 12.6239 5.68045 0.361864
3070 2 9.41842 5.73108 0.266075
1066 1 9.20116 2.29176 0.212773
3084 2 5.54113 16.5096 0.371334
1127 2 1.7155 1.96672 21.49
2638 2 7.31456 7.17447 18.0791
2759 3 14.3677 18.1812 17.9958
2642 1 3.98568 10.8172 17.8467
2127 3 4.05826 2.31243 19.8956
64 2 7.42497 1.91084 19.6639
3629 2 5.7617 3.96962 19.8531
507 3 3.80823 3.7929 21.6686
2128 1 10.7628 2.0649 19.8285
509 2 11.046 3.5525 21.6377
2633 2 7.31486 3.75594 21.7257
2646 1 0.267431 14.5388 17.7709
3788 3 16.2267 18.1054 26.9754
3128 1 12.4883 1.88447 21.8749
2805 3 14.2456 18.2041 32.3842
65 1 14.4435 1.75401 19.7491
1630 3 16.2541 3.63822 19.9474
3628 2 16.5217 0.202501 19.9655
3640 2 3.72808 0.0280089 25.4053
2677 3 7.53394 0.249337 32.4858
1628 1 2.01744 3.82933 19.9584
1627 3 12.746 0.235283 19.9076
1676 2 5.4866 0.195643 34.425
66 2 3.83399 5.40972 20.0371
1133 2 5.7153 5.56069 21.6099
2130 3 7.39082 5.54458 19.861
2637 3 3.7757 7.29215 21.3908
1629 3 9.07001 3.7705 19.8629
67 2 11.0273 5.21835 19.8601
3132 3 9.27462 5.46426 21.5812
2639 2 11.0944 7.17858 21.4708
3630 2 12.7494 3.72053 19.9404
1632 2 12.4946 7.39631 19.7862
1135 1 12.6794 5.46675 21.4571
2131 2 14.5197 5.65504 20.0523
3134 2 16.3059 5.34668 21.5576
503 1 7.37402 0.117876 21.6313
505 3 14.5196 0.2033 21.733
3631 1 2.09196 7.22709 19.9521
1633 1 2.36451 10.9013 19.6706
1137 3 2.36906 9.06182 21.6816
1631 2 5.46178 7.26958 19.8956
2132 1 3.80387 9.22701 19.7661
3634 2 5.56337 10.8199 19.9398
722 2 5.88719 18.2649 26.9452
69 1 7.58073 8.98427 19.9976
3632 2 9.21168 7.28622 19.9119
1634 1 9.06491 10.9077 19.9003
691 1 3.74571 18.1115 17.9957
2133 2 10.748 9.20187 19.9404
70 1 14.3403 9.11874 19.8313
515 3 14.5804 7.4115 21.4318
1140 3 12.8156 9.06503 17.8609
3633 3 16.2272 7.18278 19.8163
2129 3 -0.0108468 5.55338 19.727
1635 3 16.3597 10.618 19.9345
3187 2 15.9714 16.2768 32.1729
2627 3 3.75325 0.230448 21.4854
3636 1 2.10781 14.2821 19.4726
3688 3 16.381 14.337 34.0008
2647 1 3.9221 14.3604 21.4881
1687 2 12.555 14.6231 34.0356
71 3 3.99513 12.647 19.9053
1143 2 5.59238 12.864 21.7921
1636 3 5.67587 14.4322 19.8255
517 3 3.86138 10.9611 21.6237
2517 2 17.9756 11.1166 21.6039
2135 3 7.41251 12.6277 19.9064
72 3 10.7966 12.617 19.7809
3635 3 12.5895 10.8984 19.7037
2136 1 14.62 12.5353 20.1802
2645 3 14.6295 10.7633 21.7535
525 2 14.3777 14.6628 21.726
1144 2 9.16173 12.6111 17.9102
1068 1 16.1394 2.09383 35.7796
1088 2 16.2338 16.0263 35.8817
690 2 0.26872 17.7307 21.5475
534 3 7.30332 0.317098 29.0489
1147 1 2.14257 16.2932 21.6894
3627 3 9.19179 -0.0145436 19.6769
1518 3 10.8781 18.2314 25.1292
2137 2 3.71363 16.091 19.5807
74 3 7.19044 16.1941 19.8964
3637 3 9.24945 14.4649 19.8465
1513 1 1.96275 18.0093 23.4834
68 2 0.372284 9.3945 19.5625
1637 1 12.6068 14.5817 19.9963
2138 3 10.8479 16.2974 19.9059
3148 2 12.6957 16.1481 21.8164
3753 3 9.14024 18.0153 19.6829
3638 2 16.2744 14.429 19.977
75 3 14.4264 16.2731 19.8865
1151 1 16.1215 16.2295 21.8597
1638 2 1.9533 0.371882 23.2022
2352 1 18.1752 9.06647 27.0361
3139 1 16.2536 9.05889 18.0973
76 3 3.56695 2.00575 23.4139
3626 1 2.07608 0.374692 19.9255
3150 1 1.99747 2.17496 25.1952
3126 3 5.38862 1.92323 21.7075
2561 2 17.9339 14.3534 32.2083
2140 1 7.2006 2.12515 23.4886
1642 3 5.61923 3.83892 23.6534
3676 3 1.89584 0.100676 34.2998
1129 3 8.96508 1.9246 21.4964
3644 3 9.01113 3.6122 23.476
78 3 10.9125 2.05888 23.5745
1152 2 9.11322 1.92836 25.418
2635 3 14.4314 3.58123 21.4038
2577 1 11.0877 7.61985 36.1616
1644 2 12.6454 3.66279 23.3064
109 2 -0.0942094 16.0834 27.0018
1131 3 16.2437 1.77042 21.8263
2142 3 14.4844 1.94265 23.2376
3645 3 16.2494 3.44608 23.6517
1658 2 9.14049 0.293331 26.9814
715 3 7.62875 18.2632 25.1756
3130 3 1.82311 5.41989 21.6576
3642 3 1.7957 3.43017 23.1332
573 2 0.152254 7.4181 35.7347
2143 3 4.05176 5.56406 23.3995
81 3 7.25594 5.52355 23.3085
3647 2 5.62122 7.36644 23.5502
2144 3 9.21214 5.49685 25.1661
2145 1 11.1144 5.26207 23.4414
1647 2 9.30661 6.9597 23.2872
2653 3 10.8335 3.84234 25.2084
3648 3 12.8611 7.2176 23.3026
3152 2 12.7311 5.47598 25.149
82 2 14.5787 5.53933 23.2728
318 3 18.2118 8.9185 19.7551
1648 1 16.2672 7.19179 23.362
1645 3 1.95417 7.31039 23.5575
3650 3 2.14274 11.0746 23.5313
2658 3 3.88459 -0.0988196 28.8379
3136 3 5.45557 9.18135 21.6979
84 1 3.91122 8.8288 23.5851
2147 1 5.69163 9.08164 25.1952
2148 2 7.34989 8.73604 23.2484
513 3 7.39458 7.22043 21.5331
1139 2 9.40004 9.00373 21.8594
2643 2 7.27354 11.0636 21.7398
85 1 10.8906 8.9109 23.3269
3651 2 9.25143 11.0675 23.2376
3153 1 9.20223 9.04878 24.7534
3652 2 7.41051 10.7677 24.9369
3649 3 11.0447 7.24881 24.9647
3138 1 12.6456 9.2793 21.5524
1651 2 12.6101 10.5864 23.5691
86 1 12.7789 9.144 25.3436
530 1 10.7895 10.878 25.1808
2149 3 14.5565 8.95984 23.5623
1141 1 16.3162 8.96601 21.7903
2573 3 14.7754 3.82952 35.9262
2688 2 14.579 14.3729 32.4464
125 2 14.5244 16.2101 34.22
3140 3 2.03808 12.7519 21.6601
523 3 7.34083 14.4871 21.7003
2151 3 4.14659 12.8654 23.5324
1650 1 5.56232 10.9298 23.5127
3654 1 5.61272 14.6093 23.5859
519 3 10.8435 10.8613 21.6811
88 2 7.32428 12.5711 23.3173
3142 1 8.9571 12.6953 21.6976
531 3 7.28794 14.5557 25.0086
1145 1 12.6151 12.4697 21.3961
2152 1 11.0453 12.6745 23.5704
90 1 14.1616 12.8723 23.3038
3656 3 12.587 14.3872 23.4288
3653 2 16.3873 10.7945 23.5364
3144 1 16.0271 12.6209 21.5743
2153 1 16.1254 12.5247 25.257
558 3 0.128344 10.9939 32.2138
3755 3 16.2051 18.0591 19.6241
1074 3 2.25091 9.28094 36.0815
1653 2 2.14398 14.3875 23.3246
3146 1 5.30575 16.1306 21.4298
91 2 4.01435 16.258 23.3508
2754 3 3.94599 17.8858 21.6207
2649 3 10.861 14.6023 21.7063
2155 2 7.41933 16.3385 23.3635
1654 3 9.07219 14.642 23.4409
1149 1 9.24525 16.5303 21.6578
93 3 10.8347 16.2354 23.3908
1655 2 10.7257 14.3173 25.2077
2157 2 14.553 16.4025 23.4918
2156 3 12.5641 16.221 25.2087
1656 1 16.2762 14.5948 23.249
2660 2 10.7657 0.221162 28.701
3156 3 16.4538 16.1718 25.5019
2166 1 0.371643 8.97865 30.5399
527 1 3.76986 3.67289 25.2558
536 2 1.89126 3.57437 26.9817
1138 3 5.51773 8.89463 18.0135
3131 1 5.66384 5.62291 18.0253
1554 2 12.5681 18.2561 34.2734
77 1 5.47546 1.77158 24.9789
1159 1 3.84693 1.95803 26.9973
2159 1 7.25666 1.86245 27.1343
1661 2 5.5375 3.83611 26.9092
1643 1 7.36702 3.64031 25.479
3158 2 10.8531 1.92228 27.1785
1160 2 9.07961 2.07673 28.7105
3659 1 12.5007 0.104443 30.6178
2141 2 12.9504 1.88534 25.2421
97 1 14.5652 1.8598 27.0341
3159 3 12.8282 1.95217 28.8549
841 3 18.078 7.11385 25.3221
3151 2 16.3405 1.80335 25.2561
3646 1 14.2568 3.65502 24.9334
1161 1 16.2888 1.99059 28.7475
80 1 1.65598 5.07577 25.018
1664 2 2.08145 7.38619 27.0445
1646 1 3.81112 7.27073 25.2935
2162 3 3.68266 5.57814 26.7678
1153 1 5.78507 5.69533 25.2462
3161 3 7.33351 5.48344 27.1423
2654 3 7.39339 7.26177 25.2829
2662 3 9.29535 3.90129 27.1392
3666 1 9.45439 7.33298 26.5994
100 2 11.0945 5.36153 26.8246
3663 2 12.6629 3.6664 26.8583
542 1 12.8166 7.18473 26.6137
1164 1 12.4663 5.48289 28.884
539 1 16.2637 3.702 26.9223
1165 2 14.4273 5.39822 27.1144
83 3 16.3725 5.33103 25.381
1667 1 16.1021 7.33372 26.8251
2360 3 18.2543 16.3717 30.7642
1154 1 1.76743 9.17574 25.2598
2668 3 1.79554 10.9561 27.0911
2665 2 5.62154 7.22741 26.9826
3164 2 4.00984 8.95657 26.7962
3669 2 5.88973 10.8736 26.9505
2670 2 7.30889 10.9333 28.8176
103 1 7.30306 9.06648 26.8984
1168 1 10.8354 9.29676 26.6655
545 2 8.84565 10.8262 27.0215
529 2 14.5289 7.14222 25.0281
1652 3 14.5835 10.8801 25.1607
1670 3 12.6797 11.0283 27.0392
3166 3 12.6101 8.98347 28.517
543 2 14.4129 7.27937 28.6357
1155 3 16.5417 8.93079 25.1683
511 3 0.387785 7.5883 21.5106
2168 2 14.4629 9.0939 26.8514
2655 2 3.93607 10.7192 25.3176
2150 3 2.28077 12.7921 25.2966
3672 3 2.15155 14.5133 26.9998
3655 2 3.85243 14.5985 25.1212
106 1 4.12723 12.8916 27.0465
3154 3 5.57583 12.618 25.2132
549 2 7.46808 14.4584 28.7378
89 2 9.04717 12.5911 25.093
1171 1 7.17143 12.934 27.0445
2171 3 10.7255 12.549 26.8859
1673 3 9.33723 14.521 27.0124
1156 1 12.614 12.5715 25.1493
2675 1 10.7623 14.5296 28.6912
1172 2 12.6916 12.6681 28.8237
3170 1 14.53 12.7279 26.9151
2674 3 12.5725 14.4387 27.1024
550 2 14.5236 14.4707 28.8887
2672 2 14.3656 10.9405 28.8861
2671 3 16.1175 10.9856 27.0031
3675 2 16.4244 14.2554 27.0255
2345 1 18.0902 2.07297 30.4165
2188 3 10.8283 16.4607 34.0896
3155 3 1.95796 16.1807 25.1344
348 3 18.0502 5.39709 30.5196
3137 2 9.07772 8.92345 17.9042
1174 1 3.80132 16.4436 26.9032
92 3 5.46697 16.3224 25.12
548 1 5.72301 14.5718 26.749
2174 2 7.52871 16.1965 26.8334
2146 3 0.369805 9.05591 23.3484
1157 1 9.26422 16.0464 25.2517
3173 2 11.0269 16.3264 26.9793
3184 3 12.7781 12.6786 32.5021
829 2 17.9991 10.8549 17.9231
112 1 14.5622 16.0793 27.1152
3174 2 12.6074 16.2802 28.6811
2657 3 14.5443 14.319 25.4335
2187 1 3.961 16.2822 34.142
1176 3 16.1778 16.2657 28.9674
1502 1 5.18138 18.1954 19.8732
1158 3 1.98719 1.93421 28.6612
95 2 3.80284 1.89213 30.3774
3767 2 3.71089 18.0843 25.121
3157 2 5.53544 1.89263 29.007
2663 1 7.2936 3.59389 28.8479
1662 2 5.40714 3.81332 30.5773
3677 3 9.00793 0.477805 34.1908
2160 2 7.2102 1.8849 30.8593
3662 3 8.95963 3.74475 30.7956
554 1 7.36477 3.92901 32.3952
1186 2 16.1976 12.6563 32.3923
96 2 10.935 1.94124 30.566
2161 1 14.4324 1.87646 30.5318
1663 3 12.8187 3.68789 30.517
1187 1 5.54013 16.2547 32.1268
1162 1 0.217277 5.53493 27.1893
2664 3 14.5667 3.73416 28.6887
3664 2 16.2622 3.83588 30.526
3661 1 1.96829 3.76293 30.5796
2666 1 3.9748 7.4054 28.6603
3160 3 2.16095 5.49971 28.926
1665 1 2.16355 7.27382 30.4347
124 2 7.30103 16.1999 34.1374
537 2 3.8018 3.89249 29.012
1163 1 5.62087 5.58745 28.7764
2163 2 4.04489 5.62714 30.579
3665 1 5.62494 7.36535 30.6907
541 3 7.45286 7.443 28.7425
538 3 11.0862 3.57219 28.8889
3162 3 9.37709 5.35278 28.6867
99 3 7.42482 5.57917 30.5195
2164 1 11.0162 5.44744 30.5172
2667 1 10.8418 7.06242 28.7137
555 1 14.5326 3.81478 32.2655
2680 1 11.2324 3.76265 32.3779
101 3 14.3226 5.55678 30.3253
3163 1 16.3116 5.49636 28.6748
1181 3 16.3575 5.57129 32.2047
560 2 14.3996 10.907 32.2903
1166 3 2.31253 9.22958 28.6541
3668 1 2.18883 10.8717 30.4786
544 3 3.99476 10.9993 28.5897
2682 3 7.45449 7.49936 32.1374
102 1 3.98362 9.20272 30.4755
3165 3 5.60773 9.11915 28.671
1669 3 5.59579 10.8519 30.4806
2167 1 7.33971 9.34027 30.5873
1167 1 9.18928 9.07799 28.8178
1666 1 9.29429 7.50542 30.5171
3670 1 9.06153 10.8883 30.5694
2685 2 11.0687 10.8475 32.1745
546 1 10.792 10.664 28.6754
3667 2 12.928 7.30978 30.3237
104 1 10.9901 9.04697 30.5714
1671 2 12.572 11.0591 30.4527
1183 3 12.7078 8.99198 32.2009
2169 1 14.3877 9.09156 30.5814
1169 3 16.3168 9.18572 28.9121
1668 1 16.2404 7.18075 30.2307
3182 2 16.2522 9.00392 32.3729
2186 1 14.36 12.6844 34.243
3168 3 2.15587 12.5226 28.7851
2170 3 4.00266 12.6814 30.4061
1672 2 2.02582 14.6163 30.2623
1184 1 1.99542 12.8537 32.153
1170 1 5.65501 12.7509 28.7459
3673 2 5.73668 14.4354 30.552
107 1 7.31795 12.827 30.5283
3169 1 9.05842 12.4461 28.7802
1185 3 9.13238 12.6876 32.2322
562 2 10.9214 14.4668 32.0602
2172 3 10.8984 12.5764 30.4055
108 3 14.297 12.7538 30.3656
698 3 14.263 18.0187 21.5545
3171 3 16.2456 12.6501 28.7099
3671 3 16.0296 10.8254 30.5819
1532 1 2.20356 18.0266 30.4257
1173 2 2.21137 16.2807 28.6226
3185 2 2.20257 16.1721 32.2898
3751 2 2.06232 17.9942 19.8219
373 3 17.951 16.1089 33.8849
1519 1 16.5076 17.9776 23.201
73 3 0.42915 16.154 19.7084
2673 1 3.9209 14.5985 28.7685
3172 3 5.86702 16.2479 28.8293
561 3 3.87884 14.4831 32.1318
110 2 4.03042 16.4404 30.3583
2175 2 7.54635 16.61 30.3563
3801 1 1.94858 18.0412 33.9728
2629 2 10.7601 0.027536 21.6349
1175 1 8.92796 16.3872 28.6127
1674 3 9.00033 14.7747 30.5263
3186 2 9.21054 16.4994 32.4635
111 3 11.0026 16.3979 30.6016
3674 2 12.8962 14.7206 30.3954
1188 1 12.6521 16.3501 32.4054
2176 2 14.3475 16.4785 30.6167
3183 2 5.54356 12.7428 32.1877
552 3 10.999 0.310451 32.4901
526 2 7.48051 0.452504 25.2471
1675 1 16.1358 14.3825 30.4433
122 2 11.0569 12.6968 34.1553
1685 2 16.3325 10.9827 33.9453
3782 3 1.85977 18.0828 26.6463
120 3 14.5648 9.19984 34.0786
3175 2 1.94449 1.86597 32.4042
2679 1 3.76951 3.82181 32.2407
2177 2 3.67817 1.94546 34.4089
1678 3 2.11775 3.92024 34.258
1683 3 2.1575 11.1048 34.0717
2687 1 7.29471 14.3074 32.2646
1177 2 5.53672 2.11268 32.767
3176 3 9.25648 2.14539 32.4166
114 2 7.46964 2.26059 34.238
2178 1 11.0612 2.1163 33.964
1679 2 9.23317 3.90049 33.9517
1538 1 16.3728 18.008 30.9143
2183 2 11.155 9.17158 34.0051
1178 2 12.6709 2.06374 32.4385
115 1 14.482 2.03318 34.1362
524 2 11.0433 14.5146 18.1086
1150 2 12.692 16.4218 18.0814
3177 3 16.2682 1.98799 32.241
1680 3 16.428 3.62204 34.0176
579 1 4.0185 11.2748 35.7572
2185 2 7.29038 12.835 33.9643
3686 3 2.07875 14.8429 34.1074
1179 1 2.07984 5.44793 32.361
556 1 3.48389 7.5409 32.3218
3178 3 5.56733 5.45799 32.3987
116 1 3.62701 5.84066 34.2642
3679 3 5.5291 3.9665 34.2681
1681 2 5.70068 7.43727 34.1406
1180 3 9.40118 5.45644 32.2431
557 2 10.9189 7.33399 32.3485
2180 3 7.40676 5.70611 34.0057
117 1 10.8813 5.54869 34.1418
571 2 10.7655 3.86488 35.9101
551 2 3.81241 0.475975 32.5165
3680 2 12.6929 3.8191 34.1327
3179 1 12.6976 5.62905 32.3699
1682 1 12.642 7.49143 34.2684
2788 3 10.8909 18.2611 28.8301
2683 3 14.6812 7.18662 32.4568
2181 3 14.6887 5.3205 34.1801
3685 2 12.6476 10.9774 34.0425
3687 3 9.30643 14.6964 34.0362
3180 3 2.04983 9.39214 32.4173
3681 3 1.93164 7.58072 34.2389
559 3 7.30063 10.8192 32.4593
1182 2 5.58682 8.97663 32.4611
2182 3 3.81795 9.39142 34.2652
3684 2 5.66655 10.9175 34.2049
2684 1 4.06455 10.8851 32.571
3181 3 9.23662 9.29503 32.2983
3682 2 9.36324 7.25344 33.9942
1684 3 9.41528 10.9888 33.9452
119 3 7.49295 9.22941 34.1742
3683 1 16.3295 7.24781 34.0003
121 2 3.74302 12.7798 33.9674
1686 3 5.65554 14.5397 33.8092
3078 1 2.09082 12.9267 35.8773
2326 2 18.247 1.9756 23.3619
528 1 0.0916346 7.24236 25.1632
2681 1 0.428375 7.43233 32.3372
87 3 0.412822 12.7119 23.7782
853 2 17.8545 7.21684 28.494
2641 1 0.478674 10.925 21.6146
2321 3 17.7825 12.5132 19.7514
2158 2 0.262436 2.16591 30.8424
356 3 17.9621 12.4579 30.659
860 1 17.9563 14.6366 28.8939
329 3 18.056 5.31022 23.4798
118 1 0.099087 9.26135 34.0128
2556 1 18.0032 7.4225 31.8385
563 2 0.167087 0.234478 36.0975
2536 2 18.174 3.71928 28.8763
323 3 17.9169 16.2089 19.7824
2669 1 0.0231265 10.7352 28.7348
825 1 18.1352 7.06509 21.7946
1626 1 5.59395 0.397285 19.7825
1515 3 9.1962 18.0423 23.3782
1639 1 9.07549 0.421839 23.6106
2758 3 10.8283 18.0762 21.563
3787 1 12.5211 18.2048 30.4713
724 1 7.46606 18.2656 28.6165
3658 3 5.57564 0.215234 30.5219