ITEM: TIMESTEP
5000
ITEM: NUMBER OF ATOMS
4000
ITEM: BOX BOUNDS pp pp pp
8.1084520671300453e-02 3.5826345479329078e+01
8.1084520671300453e-02 3.5826345479329078e+01
8.1084520671300453e-02 3.5826345479329078e+01
ITEM: ATOMS id type x y z
3566 2 2.31588 3.55626 1.70412
2011 2 17.9063 15.9413 1.94177
3135 1 1.83471 8.76618 17.5737
1740 3 16.2027 17.7397 16.327
3722 1 8.85256 17.9214 12.6916
2061 1 17.9999 16.2446 16.2624
1 1 3.94863 2.17899 1.84334
1078 2 16.1202 9.00983 0.188676
3 1 0.197455 5.52146 1.84882
659 3 12.6705 17.8116 8.95642
2065 3 7.11545 1.98403 1.73043
3567 2 9.07129 3.84484 2.07429
1086 2 9.07058 16.0764 0.247066
2581 1 7.01936 10.9828 -0.112848
2 3 10.7495 1.95195 1.94569
1567 1 12.5445 3.82516 1.98095
615 2 14.4752 0.201884 14.4832
2066 3 14.4174 1.89793 1.8771
3568 1 16.0497 3.74358 1.92321
506 1 0.533023 4.06766 17.7972
3704 2 16.175 17.7027 5.41585
1563 3 1.91422 0.408244 1.84439
1625 3 16.2195 14.3747 16.3576
1568 3 1.81032 7.40985 1.93869
1150 1 12.5051 16.1052 18.0345
1069 3 1.84002 5.2774 3.4445
3068 2 2.00736 5.61174 0.436739
2067 2 3.63356 5.61714 2.12391
1566 1 5.55526 3.92423 2.02214
4 1 7.31395 5.2799 1.63904
3569 1 5.3422 7.14091 1.82196
3069 3 5.50031 5.39356 3.82876
766 2 17.892 11.0152 3.70823
2068 3 10.9619 5.50745 2.14985
2723 1 14.2322 17.8916 10.8226
5 3 14.2979 5.52811 2.23542
3703 3 10.8227 17.9043 7.20827
593 3 0.264143 14.5246 7.28898
1073 2 16.1135 5.39936 3.90269
1570 2 16.1268 7.26991 1.94996
1564 1 9.05341 0.394354 1.77978
3571 1 1.68549 10.6706 1.8664
6 2 3.63149 8.89255 1.81443
658 3 3.57471 17.8847 10.9758
3564 3 5.6528 0.220794 1.70851
2070 1 7.28264 8.93539 1.62048
1571 1 5.41252 10.6868 2.02654
2080 2 0.180255 5.38029 5.20357
580 1 7.4643 10.654 3.77518
1088 1 16.3736 16.1334 -0.0234971
1569 1 9.17174 7.14489 2.10747
7 3 10.9103 8.94409 1.83554
3615 3 12.3657 0.12019 15.9544
3570 2 12.5735 7.28382 1.98719
2071 2 14.3699 9.03893 1.79348
3077 1 16.2725 8.93086 3.8938
781 3 17.8417 14.3008 7.3518
1074 2 1.9812 9.11528 0.00700816
1573 3 1.75314 14.2254 1.82974
2072 1 3.68473 12.44 2.0479
9 1 7.26264 12.5491 1.88999
564 2 3.57469 0.0595587 3.60568
3572 1 8.94746 10.7722 1.8232
2073 1 10.6057 12.5122 1.7656
1574 2 9.00649 14.3738 2.13988
1081 3 8.97524 12.4487 3.76282
586 2 10.744 14.3695 3.63742
1572 1 12.6148 10.7913 1.6534
582 1 14.3076 10.6632 3.75379
3575 2 12.6007 14.1825 1.83467
3573 3 16.086 10.6402 2.09825
10 3 14.6509 12.4869 1.91516
1083 3 16.254 12.6761 3.44902
1575 1 16.1509 14.3736 1.57974
253 3 17.9022 5.35388 1.81886
11 3 3.52124 15.8826 1.89176
3083 3 1.67224 16.1157 3.56469
1768 1 17.7999 3.76841 7.36608
2642 1 3.74561 10.5943 17.9421
2591 2 0.0245313 7.20435 7.03961
3574 3 5.6468 14.2953 1.92691
2075 1 6.99586 15.8231 1.39808
3576 2 1.84749 0.0401208 5.32827
786 1 17.962 3.69294 10.9737
1106 3 0.137703 12.817 9.23681
2693 2 14.3684 17.7422 3.805
12 3 10.7891 16.0398 1.95418
2630 2 14.5865 0.149467 17.9102
1070 3 5.52544 5.28083 0.12806
2064 1 0.533791 2.16929 1.76587
2691 3 7.28355 17.9008 3.71175
1066 1 8.91735 2.06138 0.123119
2076 1 14.4534 16.3323 1.87961
3595 2 1.89923 0.158554 12.7288
651 1 0.147196 17.7633 7.31842
3063 2 1.81534 2.05941 3.64392
595 1 3.55772 0.0360903 10.8808
1689 3 8.79509 17.8096 1.78217
1719 1 2.03078 17.6509 9.20946
2570 3 3.71873 3.59322 3.70888
2077 2 3.6295 1.99795 5.48726
1579 2 1.76248 3.84529 5.69692
1065 3 5.55422 1.95426 3.96761
2078 1 5.46307 1.95612 7.51298
756 2 17.8451 3.80511 4.00942
3065 3 8.87672 1.85524 3.79299
263 3 17.8482 2.091 5.53022
14 1 7.1747 2.0126 5.69746
2079 1 10.8779 1.9153 5.6284
1067 3 12.5976 1.77815 3.73025
16 1 14.4869 2.05421 5.49018
1578 3 12.7242 0.426949 5.60409
625 1 14.3183 14.4907 14.4467
3067 3 16.2227 1.88085 3.87333
3721 1 8.94146 17.8239 8.95339
17 3 3.65842 5.38033 5.41569
574 3 3.63942 7.22485 3.81669
570 2 7.15253 3.50249 3.7797
3580 1 5.44853 3.70896 5.73356
2082 1 7.35167 5.84556 5.45321
1584 1 5.40242 7.44552 5.56808
1071 1 8.89622 5.5245 3.82631
1581 2 9.03028 3.71088 5.67647
3071 3 12.6515 5.50293 3.90158
572 2 14.2639 3.5225 3.67851
19 2 10.6769 5.52266 5.56167
2572 1 10.8611 3.58779 3.65985
3582 2 12.4401 3.58179 5.52354
2083 1 14.2648 5.22642 5.65419
1582 1 16.0613 3.84711 5.5751
3586 1 15.947 7.18368 5.44702
1583 3 14.7391 3.59407 7.57212
3073 3 1.92932 8.91711 3.80326
3583 1 1.71367 6.99093 5.34938
2580 1 3.58187 10.6312 3.6668
2085 3 3.89153 9.16196 5.55154
2576 3 7.28363 7.40933 3.5587
1075 2 5.24135 8.85509 3.59906
22 1 7.16694 9.27244 5.58446
3588 1 5.40688 10.791 5.45641
576 3 10.9447 7.1385 3.79733
3075 3 9.32456 9.0271 3.60831
3585 1 9.12031 7.61115 5.50091
2578 1 14.4109 7.32481 3.41193
1077 2 12.7213 8.95461 3.64603
2582 3 11.0318 10.7969 3.46301
2086 3 11.0227 9.13755 5.40931
1585 3 12.4348 7.39136 5.67544
3589 2 12.6613 10.5928 5.26039
660 1 10.8955 17.9119 10.7832
23 2 14.2067 9.04297 5.64696
1590 3 16.3444 10.9737 5.52458
3625 2 12.5209 14.557 16.2396
62 3 10.649 16.2607 16.1757
1079 2 1.88452 12.5567 3.45407
584 1 3.59393 14.1237 3.46331
1587 3 1.65538 10.9777 5.48223
3591 3 1.87912 14.3375 5.36516
3079 2 5.52404 12.403 3.74318
25 3 3.44496 12.3808 5.27245
2586 1 7.13481 14.4289 3.75095
2089 1 7.26661 12.7593 5.5041
1588 1 8.97685 10.5843 5.64292
3592 1 9.0061 14.3047 5.29833
2090 2 9.10549 12.3798 7.25343
1589 3 6.847 11.0308 7.15071
3593 3 10.8043 14.4216 7.34762
3081 1 12.5241 12.4137 3.44272
26 3 10.51 12.594 5.42919
3092 1 12.5809 12.4007 7.27862
1593 3 12.6572 14.1971 5.54363
2588 3 14.4636 14.2051 3.52206
2091 3 14.2229 12.5588 5.38614
2092 3 3.51244 16.1365 5.43907
776 1 17.8923 0.110557 7.21535
2568 3 14.3609 0.240776 3.69742
1085 3 5.16244 15.9557 3.91383
1591 1 5.44692 14.3734 5.7347
2853 3 18.0112 7.33875 10.7586
29 1 7.20204 16.1809 5.32719
3085 2 8.97634 16.2232 3.66879
2094 1 10.892 16.0307 5.56661
40 2 0.237228 8.87593 12.3693
1087 3 12.7565 16.0853 3.58066
618 3 0.0686325 7.3832 14.3342
3587 2 0.16553 10.8566 7.27331
31 2 14.5051 15.8798 5.33458
30 2 12.589 16.0408 7.24657
1613 3 1.82733 0.157334 16.2382
2126 1 14.5156 16.0949 16.0501
575 2 7.31302 7.16535 0.156166
3087 1 16.2611 16.0432 3.67013
3594 3 16.3056 14.0928 5.45268
1701 1 5.31885 17.9102 5.1732
1089 1 1.6312 1.71054 7.26699
2600 2 3.63354 4.01026 10.9023
3095 2 3.86152 1.87306 9.10695
1125 1 9.10761 16.2083 14.2381
2714 1 7.00641 17.8451 7.13119
33 1 7.42247 1.81107 8.90218
1096 2 5.48842 1.89684 10.6878
3599 1 5.52909 3.7204 9.04892
2575 2 3.69637 7.16475 0.139193
3070 3 9.00754 5.44743 0.0734234
3088 3 9.07957 1.80488 7.30645
3096 3 9.06681 1.77403 10.8928
15 1 12.5345 2.10514 7.20703
1097 1 10.9877 1.68595 8.88149
1600 3 12.6436 3.53843 9.1093
2098 3 14.5111 1.72653 9.16332
1090 3 16.2992 1.83149 7.37177
2602 2 16.3972 3.43276 9.31981
3097 3 16.2894 1.73416 10.875
3348 2 17.8395 5.55141 9.02956
2081 1 1.873 5.53395 7.08833
2599 2 1.84149 3.96654 9.06241
36 2 3.76168 5.49007 9.09719
3602 1 1.76645 7.26962 8.92431
3584 1 3.90017 7.20989 7.23118
1099 3 1.66548 5.49045 10.739
2590 3 3.6901 3.66466 7.17088
3089 3 5.65761 5.54797 7.08685
3581 2 7.25047 3.87674 7.48991
1100 2 7.41767 5.50948 9.1655
602 1 5.38312 7.20771 9.06977
590 1 10.9496 3.76898 7.21576
18 1 8.90015 5.42454 7.36957
599 3 9.22497 3.65201 9.14558
2101 3 11.0375 5.39022 8.99959
2601 3 11.1915 3.46386 10.6578
1091 3 12.7058 5.44502 7.25579
2605 1 12.7206 7.39591 9.02321
2084 2 15.9814 5.58436 7.39134
3101 1 14.2051 5.45451 8.95251
1102 1 16.2706 5.59633 10.8784
3605 2 16.106 7.171 9.16377
2625 3 10.8394 14.5765 14.5878
3090 2 1.63779 8.97922 7.14439
3102 2 1.86236 8.90787 10.6755
1103 3 3.65752 8.92534 8.89111
21 3 5.50884 9.08415 7.45836
1104 3 5.35791 9.22391 10.8637
591 1 7.26202 7.2698 7.31884
2104 1 7.37816 9.24481 9.01305
1092 2 9.09046 9.09766 7.43205
1603 2 8.99436 7.42577 9.21123
2593 1 10.946 10.806 7.49178
2604 2 7.24357 7.31972 10.8941
3103 2 9.08975 9.12866 11.0838
3104 3 10.9916 9.09921 9.08859
1586 3 10.9721 7.27399 7.46189
2087 2 12.6234 9.31058 7.49143
42 2 14.498 9.04098 9.01583
3608 2 12.677 10.8304 9.16851
2592 3 14.2731 7.41655 7.20627
3091 2 16.2042 8.87541 7.14444
2606 1 14.477 7.01718 11.2964
3105 3 16.3151 9.07382 10.8242
605 3 1.71344 10.8736 9.04324
24 1 1.93704 12.6391 7.13445
2107 2 3.5198 12.5722 8.97081
1609 3 1.83491 14.5739 9.12711
2125 1 7.12972 16.1059 16.1874
592 3 3.64632 10.6233 7.13972
1093 2 5.16249 12.7588 7.24413
1606 2 5.42203 10.8234 9.00565
3107 2 7.18852 12.3988 9.19292
2608 2 9.14666 10.7471 9.15375
45 2 10.5757 12.6768 9.04217
27 2 16.1647 12.6434 7.32283
3590 3 14.6548 10.7786 7.30043
608 2 16.1574 10.9511 9.10793
1109 1 14.5582 12.4455 9.23877
1110 2 16.2522 12.629 10.8375
2596 3 5.41694 0.0843173 9.20536
1094 1 1.79092 16.335 7.05157
1624 1 9.02926 14.3327 16.3899
1592 2 3.38855 14.5407 7.26337
1595 2 5.70218 0.160766 12.8031
3110 1 3.59459 16.2477 9.21463
2611 1 5.42303 14.3589 8.97845
2093 3 5.42128 16.2822 7.08606
2114 2 0.157473 1.8046 16.2798
2594 1 7.23792 14.4661 7.36504
3093 2 8.92508 16.2748 6.87253
48 3 6.93621 16.3123 8.9487
3611 2 9.00123 14.5904 9.13361
1112 2 10.7867 16.1786 8.9873
594 3 14.3723 14.3833 7.2755
611 2 12.6202 14.193 8.9903
629 1 10.5711 17.7162 3.66105
1095 1 16.3356 15.9193 7.32063
1612 2 16.0985 14.555 9.10841
2113 2 14.2348 15.929 9.058
3112 1 16.0933 15.9581 10.9253
614 3 7.48442 0.291364 14.5611
3094 3 1.58013 2.13294 10.5851
1598 2 1.66784 3.78369 12.4493
2096 2 3.45838 2.20802 12.516
1114 2 1.72548 2.05269 14.2389
3837 3 17.8102 10.7348 7.4172
2036 2 17.9323 5.49946 12.6461
34 3 7.32334 2.02109 12.5167
2617 3 7.26621 3.79672 14.2601
1144 2 8.97246 12.4809 17.8379
1115 3 9.06263 2.10878 14.2499
1599 2 9.04259 3.74387 12.5347
2097 1 10.9375 1.78231 12.5759
1098 3 12.6473 1.571 10.7219
3114 2 12.9681 1.93866 14.134
3601 3 12.6407 3.56043 12.4691
2618 2 14.4505 3.69167 14.5041
35 2 14.6699 1.95045 12.7058
1116 3 16.0981 1.95823 14.5074
1601 2 16.2357 3.66948 12.6531
37 1 3.7286 5.63847 12.5267
3603 1 1.901 7.26335 12.3317
2619 2 3.81681 7.26789 14.4842
600 1 7.11454 3.62584 10.6622
3099 3 5.65658 5.58838 10.8353
3600 2 5.50364 3.91709 12.4975
2100 2 7.16784 5.46455 12.4781
1101 1 9.01286 5.54613 10.8642
3116 3 9.27133 5.43029 14.4381
604 1 10.9446 7.28035 10.7342
38 1 11.0192 5.33436 12.428
2620 3 10.9543 7.30969 14.0607
3100 2 12.8045 5.52906 11.0238
1118 3 12.6331 5.4526 14.0952
601 3 14.4231 3.83148 10.8286
2102 3 14.6262 5.36373 12.7256
3117 1 16.451 5.4983 14.4752
1119 1 1.82713 9.11307 14.5191
2103 3 3.6686 8.89093 12.7107
1602 1 5.41397 7.15752 12.5774
603 1 3.65817 7.27916 10.7173
3607 2 5.47672 10.7669 12.7148
41 2 7.23574 9.07129 12.6129
3604 1 8.83848 7.12003 12.5096
1607 1 9.1131 10.8855 12.4878
2105 3 11.0133 9.17103 12.483
607 1 7.37673 10.7641 10.8018
1105 1 12.5858 8.75244 10.8778
1604 1 12.7888 7.26598 12.6271
43 3 14.692 9.02699 12.5934
3123 1 5.38521 15.9691 14.5419
609 3 14.3257 10.7164 10.771
3606 3 16.3988 7.3805 12.6945
1608 2 16.1732 10.8999 12.5049
2623 3 14.5222 10.8585 14.2811
1107 2 1.91729 12.6733 10.8082
1605 3 1.90071 10.7583 12.5327
3610 2 1.90381 14.3671 12.6939
3120 3 1.70037 12.5157 14.25
2607 2 3.34756 10.8811 10.7391
44 3 3.58645 12.5212 12.6492
3106 2 5.17171 12.1684 10.9171
1610 1 5.38031 14.046 12.5845
2108 2 7.4102 12.4956 12.4688
2609 1 11.071 10.8661 10.6106
1108 2 9.07034 12.686 10.869
612 2 10.9176 14.3791 10.7502
46 1 10.9976 12.6386 12.7336
3121 2 9.09661 12.58 14.3301
3609 3 12.9693 10.8974 12.6028
3108 3 12.7302 12.7285 10.9564
2834 1 17.8706 14.5406 3.6176
3074 3 5.29741 8.97716 0.138849
2109 1 14.5896 12.5335 12.5931
2644 2 10.7431 10.8412 17.7598
32 2 0.00213509 1.92416 12.3633
610 2 3.69272 14.4051 10.7448
3109 1 1.89465 16.1481 10.8781
1124 1 2.03122 16.0751 14.1914
678 2 14.2943 17.9573 14.4693
1111 2 5.52852 16.2579 10.9762
2111 2 3.73921 15.8244 12.442
49 3 6.91807 16.0054 12.6796
2612 3 7.08928 14.4529 10.8233
60 3 14.4753 12.5207 16.055
3111 1 8.90319 16.284 10.9269
3612 3 8.8907 14.2852 12.6681
3124 1 12.5173 16.2052 14.3453
1113 2 12.5534 16.2454 10.8438
1611 3 12.6839 14.4227 12.5578
2112 2 10.7044 16.3034 12.3441
2613 2 14.4357 14.4038 11.0834
50 1 14.5388 16.1719 12.5265
2689 1 0.144765 17.9015 3.93437
1126 2 16.3802 15.7858 14.3352
3122 3 16.5351 12.4606 14.4522
3084 3 5.07537 16.0607 -0.0414096
3613 3 16.1737 14.2781 12.6992
2123 3 10.9325 12.7694 16.3333
616 2 3.69676 3.71545 14.0894
3616 2 1.81237 3.72723 16.0031
1123 2 12.4879 12.6817 14.4793
3113 1 5.40711 2.00679 14.3154
51 2 3.52305 2.04898 16.0639
1616 2 5.32741 3.66648 16.2001
2115 3 7.24107 2.15949 16.0786
2824 3 17.856 7.11502 3.65936
1622 2 12.4554 10.7283 16.2051
3622 1 9.12887 10.8467 15.963
2646 1 0.163007 13.8611 17.7809
622 1 10.9282 10.8518 14.3927
3617 3 9.14491 3.63524 16.2261
627 2 3.59491 17.769 3.72014
1720 2 5.45357 17.8454 12.774
52 3 10.9689 1.84787 16.0323
1617 1 12.7517 3.77694 15.9082
2116 2 14.3322 1.82762 16.1349
624 3 7.3226 14.4628 14.4844
3621 1 2.02462 10.7059 15.7695
3618 3 16.255 3.65128 16.0665
2122 3 3.67788 12.3569 16.2097
61 3 3.59511 16.1823 16.1655
3115 2 2.0026 5.57556 14.4765
1117 3 5.4753 5.55047 14.2634
2117 1 3.68674 5.32958 15.9275
54 2 7.19778 5.39818 16.141
3619 2 5.59083 7.65004 16.2498
59 1 7.18057 12.5198 16.295
2624 3 3.68065 14.2467 14.3848
617 3 11.0267 3.88794 14.2103
1619 2 8.90102 7.16841 16.1641
2118 3 10.825 5.64862 16.0761
3620 3 12.7149 7.2485 16.0005
620 2 14.653 7.27924 14.149
55 2 14.4792 5.5776 16.044
1293 1 17.8006 12.5381 9.0852
621 3 3.61578 10.7654 14.1589
1618 2 1.85972 7.3413 15.9464
56 3 3.82875 9.14433 16.0889
3118 1 5.53315 9.27506 14.3936
1621 2 5.57377 10.5814 16.2154
619 3 7.20681 7.42738 14.3467
2622 3 7.52249 10.8823 14.1963
57 2 10.7926 8.96043 16.3008
1120 2 9.12203 8.91733 14.3183
2120 1 7.25757 9.17604 15.8187
1122 1 5.51944 12.3338 14.2733
3127 2 9.1297 1.69951 17.6879
2121 2 14.43 8.87915 16.0716
3119 2 12.6191 9.02606 14.3366
1623 1 1.92373 14.3334 16.2384
1121 1 16.4654 9.04836 14.4984
3624 2 5.52759 14.1578 15.9486
1620 3 16.4474 7.30032 16.036
3623 1 16.369 10.9707 16.1902
20 1 0.0479586 9.25325 5.51904
1721 3 12.6863 17.8045 12.649
606 3 -0.00742759 10.7979 10.6349
3614 3 5.36139 0.180592 15.9594
1688 3 1.90293 17.7501 1.6803
571 2 10.8374 3.86472 0.155294
2616 2 0.153801 3.88455 14.2004
39 1 0.229455 8.91816 8.93021
1722 3 16.1604 17.824 9.092
1703 2 12.4566 17.8232 5.38962
3701 2 1.89226 17.7559 5.54471
508 3 7.29866 3.65745 17.8066
2032 2 17.8835 1.78561 8.85396
2614 3 3.52906 0.18176 14.2459
2564 2 0.188566 0.321673 3.74872
3565 3 12.6013 0.139085 1.9055
1594 2 1.8202 0.104559 9.11749
2632 3 3.74543 3.91701 17.7829
2739 2 3.8474 17.9269 14.6093
1136 3 16.3451 5.59755 17.8902
2621 2 0.260461 10.6556 14.2302
282 2 17.7506 1.67846 12.7156
3723 3 16.2694 17.7762 12.7568
2755 3 14.4723 17.6245 17.8858
677 1 6.99189 17.756 14.2541
1576 3 5.4197 0.163316 5.49196
2740 1 10.7713 17.8787 14.1293
652 2 14.3922 17.8768 7.10069
3086 2 12.5651 16.2714 0.167314
1082 2 12.641 12.7762 0.103604
628 1 7.0524 17.9199 0.0682326
573 1 0.239615 7.31821 0.24013
3139 3 16.0627 9.12888 17.761
2583 2 14.6378 10.8674 0.106478
2638 2 7.06813 7.27547 17.8242
2573 1 14.3907 3.78728 0.258001
1130 3 12.7204 2.19114 17.928
522 1 3.80781 14.2903 17.8143
587 1 14.4482 14.3636 0.199941
3137 1 8.97359 8.93124 18.0102
3133 2 12.8593 5.31619 17.7468
510 2 14.5873 3.81131 17.9341
579 1 3.58351 10.6553 0.228454
2692 2 10.7113 17.8124 0.268613
3147 1 8.88599 16.1379 17.9828
2587 1 10.6115 14.232 0.193443
3131 3 5.46003 5.54753 17.7552
1128 1 5.46647 2.06223 17.883
3129 3 16.2814 2.01893 17.8038
514 1 10.8319 7.21781 17.853
3078 3 2.05748 12.5534 0.233635
520 3 14.4045 10.7237 17.8279
502 3 3.63964 0.181806 17.913
3072 2 16.1555 5.49516 0.338296
2569 2 0.554325 3.62866 0.0370732
524 1 10.6636 14.3881 17.8934
577 1 14.275 7.31796 0.314335
2640 1 14.3351 7.29155 17.7004
1140 2 12.4691 9.14915 17.8907
1148 2 5.41277 16.0901 17.7175
581 2 10.7803 10.9609 0.126105
1134 3 9.0254 5.4023 17.8479
1132 1 1.80689 5.95011 17.8204
3145 2 1.73772 15.9416 17.8947
2634 1 10.8562 3.72137 17.9261
1127 2 2.02979 1.86491 21.6373
2127 1 3.58101 1.94393 19.9126
714 1 7.39606 17.9248 25.0396
1626 2 5.24051 0.0608767 19.6201
3629 3 5.35698 3.82824 19.7324
64 3 7.06652 1.618 19.5699
1641 1 15.9998 0.0147819 23.2721
2641 2 0.445174 10.7163 21.5651
723 1 14.5045 17.7574 28.7979
1129 3 8.89424 1.82752 21.4104
3764 3 5.48098 17.815 23.2083
63 3 0.0390313 2.05809 19.8154
2128 2 10.6675 1.91775 19.6485
3630 1 12.4733 3.61224 19.4977
509 3 10.8369 3.73149 21.3682
2635 3 14.2826 3.45777 21.5253
2129 1 0.276394 5.51158 19.7036
65 2 14.5961 1.88104 19.5639
1131 3 16.0698 1.9682 21.7149
2179 3 0.317879 5.82597 34.1878
1628 1 2.36073 3.87389 19.6878
66 1 3.71798 5.63491 19.5546
533 2 5.51476 0.0242831 26.9294
3631 3 1.72351 7.14874 19.7904
3130 3 2.11115 5.48229 21.6684
1631 3 5.51204 7.11225 19.7692
2130 3 7.32131 5.60513 19.6251
853 2 17.6927 7.14125 28.6548
1629 2 8.8548 3.56348 19.3908
3632 2 9.14168 7.30659 19.5811
2627 2 3.68858 0.281634 21.6731
67 1 10.9718 5.51264 19.6475
1632 1 12.6606 6.86224 19.674
1135 3 12.78 5.3386 21.5983
2639 3 10.9274 7.27386 21.6285
540 2 0.239683 7.2136 28.6774
740 3 10.8119 17.6451 32.0524
2131 2 14.4196 5.34886 19.5857
1630 1 16.4055 3.67193 19.5845
3633 3 16.1196 7.31046 19.7317
845 3 17.9736 0.184369 28.7238
1633 3 2.04287 10.6748 19.7909
2656 1 0.0499615 14.2014 24.8907
1552 2 12.6383 17.8173 34.2424
3628 2 16.3562 0.290296 19.557
2132 1 3.544 8.79566 19.6478
3634 1 5.49027 10.6758 19.9587
69 2 7.29531 9.05266 19.6564
1139 3 8.91774 9.13364 21.434
1634 2 9.32338 10.8272 19.4898
2133 1 10.9893 8.81586 19.5572
70 3 14.3322 8.95149 19.5427
3138 3 12.5575 9.12007 21.5179
1141 3 16.2908 8.79709 21.4715
98 1 0.200946 5.28207 30.6549
71 2 3.68967 12.5178 19.6781
1532 3 1.63795 17.9042 30.3814
2752 1 3.58133 17.9557 21.264
1143 1 5.61739 12.5654 21.4374
1636 2 5.54411 14.3932 19.8585
2135 1 7.3769 12.496 19.9481
2345 1 17.875 1.76191 30.6133
72 3 10.6794 12.6541 19.7062
3637 2 9.06385 14.2718 19.616
3802 3 9.24256 17.8863 34.0447
2146 3 0.174879 9.04189 23.2811
3635 3 12.6913 10.6901 19.5323
1637 2 12.6123 14.3104 19.7008
2136 2 14.4586 12.4411 19.8305
2649 1 10.7485 14.3192 21.5686
2333 3 18.0459 8.57578 23.3233
1635 2 16.1685 10.5513 19.8745
525 1 14.2716 14.1356 21.343
3638 2 16.2163 14.0592 20.0378
1638 1 1.69602 0.55361 23.1958
2629 1 10.7042 0.256667 21.5806
3636 1 2.09941 14.3236 19.5447
3640 3 3.57779 0.314855 24.8986
125 2 14.4978 16.0505 34.135
866 3 18.0807 3.59345 32.4334
2137 1 3.82244 15.894 19.682
1533 3 9.07618 17.8343 27.0203
74 3 7.20823 16.3338 19.623
1676 2 5.4622 0.24377 33.9797
2321 3 17.9198 12.4676 19.6677
2138 2 10.651 16.1509 19.5638
2650 2 14.3653 14.3765 17.9095
75 3 14.4826 16.1524 19.7129
2631 3 0.370937 3.91594 21.3721
3751 2 1.77117 17.8243 19.5993
3150 3 1.82456 1.95423 25.3087
76 2 3.94882 1.88276 23.1476
3642 1 2.02214 3.59805 23.3722
87 3 0.327537 12.4826 23.2022
507 2 3.82048 3.55629 21.457
3126 3 5.67355 2.1248 21.4364
2140 2 7.20484 1.99817 23.3953
1501 1 5.42907 17.8091 19.6405
2633 3 7.49252 3.50817 21.33
3644 1 9.30033 3.38578 23.2346
1152 2 8.98571 1.80426 25.0071
3076 3 12.5237 9.06904 35.8354
78 2 10.7525 1.72915 23.2965
3128 2 12.5642 1.83338 21.3546
2142 1 14.4159 1.93433 23.2744
3688 2 16.2506 14.3918 34.1222
1535 2 16.3474 17.9271 30.6173
3645 3 16.284 3.49049 23.3996
363 2 17.8162 1.83654 34.1343
1645 3 2.19437 7.17602 23.3022
3785 2 16.2122 17.9668 26.8801
1133 3 5.53029 5.358 21.4665
1642 1 5.77204 3.65327 23.1791
2143 3 3.80987 5.43935 23.3542
2637 1 3.75314 7.21552 21.5656
81 2 7.3202 5.27165 23.2835
3647 2 5.48428 7.09939 23.4376
3132 3 8.81205 5.34331 21.4618
1647 2 8.88993 7.31214 23.4284
2144 2 8.95584 5.47861 24.9252
2653 3 10.7279 3.66699 25.1437
1644 3 12.2376 3.41539 23.3386
2145 1 10.9473 5.45169 23.4041
3648 2 13.061 7.1843 23.205
529 1 14.3096 7.18233 25.1431
3152 3 12.6244 5.34134 25.1239
3646 1 14.3842 3.68959 25.0618
82 3 14.357 5.11091 23.3025
3134 1 16.1725 5.31525 21.1238
515 3 14.5014 7.32633 21.5163
1137 3 1.97449 8.95975 21.535
503 3 7.19173 0.253293 21.5945
517 2 3.64765 10.8511 21.7761
84 2 3.81346 8.89395 23.3888
3136 2 5.38666 8.95523 21.3586
2147 2 5.53711 8.82616 25.0059
1650 3 5.66271 10.8337 23.228
2148 3 7.33993 9.03838 23.521
2643 2 7.25133 10.8669 21.5706
513 1 7.19521 7.30182 21.6232
3153 1 9.12433 9.0926 25.0228
3651 1 8.98584 10.9728 23.2725
2645 2 14.2776 10.6644 21.2984
85 2 10.6735 9.25397 23.2739
2149 3 14.3446 9.0373 23.4338
1648 3 16.0748 7.02656 23.4812
3753 1 16.2928 17.96 19.6259
1188 3 12.8474 16.074 32.2703
3650 2 1.91647 10.7428 23.4401
3140 1 2.0513 12.4785 21.3112
1653 3 1.92114 14.4335 23.1671
2151 1 3.82489 12.6644 23.3622
3654 2 5.3801 14.1741 23.4126
523 1 7.63549 14.2858 21.4237
3142 2 9.01817 12.6358 21.6213
88 2 7.31023 12.5761 23.4652
89 2 8.88017 12.8052 25.2236
1654 2 9.0125 14.733 23.2826
519 3 10.9356 10.7434 21.2623
1651 2 12.6706 10.7416 23.1673
1145 1 12.6283 12.4475 21.501
2152 1 10.8053 12.7091 23.468
3653 3 16.0598 10.7029 23.4732
90 3 14.2298 12.6473 23.3795
3144 1 16.0992 12.2025 21.4871
2153 2 16.3889 12.6728 25.1206
1656 2 15.6579 14.272 23.1136
3186 1 8.83782 16.3396 32.4445
1147 2 1.78306 15.9469 21.3023
3155 3 1.84592 16.1891 25.0234
2784 3 12.6385 17.7693 26.8963
2669 2 0.247223 10.5989 28.2841
3146 3 5.30721 15.791 21.632
2647 2 3.52376 14.3512 21.4886
91 1 3.74811 16.1939 23.3412
113 2 0.0695464 1.84549 34.262
531 1 7.29289 14.5448 25.0077
2155 3 7.21784 16.1861 23.2099
1149 1 8.7697 16.187 21.3288
93 1 10.8908 16.3102 23.1962
3148 3 12.6311 15.9073 21.3437
3656 3 12.5769 14.0824 23.2342
2156 3 12.8002 16.2663 24.9404
693 2 14.4135 17.968 21.3585
1151 3 16.1607 16.1619 21.4665
2157 3 14.3357 16.1704 22.9773
3156 2 16.2371 15.986 24.8072
505 3 14.4227 0.31961 21.2902
124 3 7.03692 16.3814 33.98
1159 1 3.74899 1.77163 26.9384
536 2 1.87744 3.90037 26.8369
690 2 3.38888 17.8592 18.0414
77 3 5.62004 1.69284 25.2409
527 3 3.70859 3.51875 24.9249
3157 3 5.47144 1.7412 28.8456
558 2 0.221622 10.726 32.3524
2139 2 0.0510383 1.92068 23.1426
2159 1 7.25496 1.8292 27.0157
3158 3 10.6894 1.93366 26.8692
1643 2 7.40071 3.61084 25.2388
1160 2 9.05289 1.58333 28.5332
1649 1 0.269055 10.9204 25.2042
2141 3 12.6768 1.66677 25.2189
97 3 14.4519 1.87246 26.7736
538 1 10.7171 3.61725 28.7401
2165 1 0.479604 8.74951 26.8707
3159 2 12.8245 1.74529 28.7055
3151 1 16.2641 1.79921 25.0242
3687 3 8.96779 14.6145 33.8353
2188 3 10.892 16.1402 34.0535
2754 1 10.8079 17.9902 21.3023
80 3 1.80698 5.52605 25.1069
1664 1 1.97104 6.90899 27.17
722 3 7.3687 17.9175 28.7065
1153 2 5.50359 5.34312 25.214
1661 3 5.70361 3.81919 27.0725
2162 1 3.62828 5.12069 26.5877
1646 1 3.7302 7.21106 25.1931
2665 2 5.51023 7.36456 26.7344
2662 3 9.10656 3.58656 27.1017
3161 2 7.19603 5.62034 26.9019
2663 3 7.48959 3.36364 28.785
3162 3 8.90182 5.57965 28.765
3663 2 12.4728 3.82718 26.8321
100 1 10.7584 5.34435 26.9234
542 1 12.5114 7.21581 26.9769
1165 2 14.519 5.56917 26.9923
1164 1 12.4571 5.59063 28.5621
83 2 16.0652 5.3213 25.2472
539 3 16.3138 3.41838 27.1098
1154 2 1.99363 8.87798 24.9686
1187 3 5.14726 16.1537 32.1772
2668 3 2.02813 10.6757 26.8171
3677 1 9.10961 0.11669 34.2041
2654 2 7.1919 7.05604 25.1023
3164 3 3.83763 8.93674 26.8922
3649 3 10.9474 7.008 24.8875
3666 3 9.10575 7.28215 26.6946
3652 3 7.44797 10.8565 25.5017
103 2 7.21842 9.06731 26.9321
545 3 9.20375 10.9926 27.1334
86 3 12.3741 8.9331 25.03
1168 1 10.9007 8.98955 27.1089
2168 2 14.6497 9.17128 26.9376
2672 2 14.399 10.8551 28.8491
546 2 11.047 10.791 28.5113
2187 2 3.36164 16.0346 33.7743
1667 3 16.409 7.22888 26.8668
1155 3 16.407 8.94881 25.1714
543 2 14.4796 7.43969 28.8264
2150 2 2.06677 12.5814 24.9136
3672 3 1.75269 14.3496 26.8032
106 2 3.64612 12.3566 26.868
2673 2 3.59701 14.1929 28.4909
1686 3 5.50857 14.3035 33.7995
3154 1 5.37171 12.3989 25.158
3655 3 3.58768 14.3522 25.0136
2655 3 3.76035 10.5906 24.8714
3669 1 5.43068 10.8547 26.9184
1171 2 7.22399 12.6476 27.0697
548 1 5.30564 14.2155 26.9049
1170 1 5.35391 12.3876 28.537
530 3 10.8825 10.8727 25.0839
2171 2 10.8896 12.61 26.8613
1673 3 8.91543 14.5416 26.864
1156 3 12.646 12.5643 25.0539
1670 1 12.6636 10.857 26.7587
2674 1 12.5579 14.4964 26.7429
3660 1 15.9411 0.0245538 27.0527
1652 1 14.2205 10.7876 25.1812
3170 1 14.285 12.6404 26.9731
2671 2 16.2616 10.8098 26.7999
1174 1 3.51283 16.1083 26.7683
1173 2 1.82735 15.946 28.3843
630 3 14.5239 17.9326 35.8881
92 3 5.49591 15.889 25.1918
2174 2 7.21079 16.2503 27.0394
3172 1 5.34713 16.2934 28.5777
1157 2 8.92931 16.1504 25.1902
1175 1 8.93846 15.8266 28.6071
1655 3 10.8643 14.5127 25.0829
3173 3 10.5533 16.0466 26.8916
112 2 14.5183 16.32 26.9892
3686 1 1.6466 14.4656 34.107
2657 1 14.2869 14.4245 25.3074
3675 3 16.1673 14.5528 27.0509
1176 2 16.1803 16.0632 28.725
814 3 17.9514 0.27315 21.7408
1158 3 1.99657 1.99089 28.7106
3175 2 1.96323 1.93583 32.3726
1142 3 2.09116 12.3267 17.788
95 2 3.65676 1.67605 30.7156
2160 2 7.30661 1.63433 30.4467
1662 1 5.53063 3.80139 30.2217
554 2 7.3725 3.51634 32.067
3167 3 0.315672 12.5789 26.7124
3783 1 5.3328 17.748 30.2485
3662 1 9.23608 3.57728 30.5954
96 3 11.055 1.79086 30.2993
3176 1 9.19482 1.75686 32.3553
3643 1 0.269656 3.82787 24.5575
1663 3 12.5234 3.62149 30.6219
555 2 14.2224 3.67062 32.212
2658 2 3.59175 0.172591 29.0124
2661 1 0.186347 3.64339 28.8233
2161 1 14.2061 2.00159 30.6677
1161 3 16.2814 1.84598 28.6812
3177 3 16.1005 1.81679 32.3886
1660 1 15.8868 0.210061 30.3044
537 3 3.41509 3.61799 28.8242
3661 1 1.74854 3.61365 30.6632
3160 3 1.83253 5.22319 28.7887
2163 2 3.64737 5.24453 30.5973
1163 2 5.47334 5.59312 28.5542
3178 2 5.40735 5.38318 32.6351
2666 1 3.62138 7.16881 28.4748
99 2 6.8038 5.71331 30.4785
1180 3 9.21706 5.3558 32.0884
2664 2 14.2527 3.8632 28.6875
2164 3 10.8599 5.53994 30.2639
3179 1 12.3765 5.44596 32.1485
2166 1 0.45304 8.87263 30.3777
3664 3 16.4468 3.72334 30.4084
521 1 0.218464 14.097 21.322
101 3 14.295 5.64448 30.4313
3163 1 15.9937 5.48951 28.7102
1181 1 16.293 5.34106 32.1042
1166 2 1.94665 8.9725 28.6256
1665 3 2.05546 7.19873 30.3649
3668 2 1.8501 11.0501 30.1978
102 2 3.49 8.96447 30.6198
3080 3 9.01008 12.5549 35.7675
541 1 7.37871 7.49944 28.8756
3165 3 5.64985 9.05072 28.7483
544 2 3.8179 10.585 28.7891
3665 2 5.18578 7.27368 30.3986
1669 1 5.48927 10.8343 30.4222
1167 2 9.06285 8.92624 28.8053
1666 1 9.07335 7.21134 30.5668
2167 3 7.32248 9.23214 30.431
3181 3 9.11074 9.34084 32.0336
2667 2 10.6943 7.26055 28.641
3166 2 12.7451 9.07601 28.6468
3667 1 12.5297 7.47189 30.4243
104 2 10.6837 8.97527 30.3395
1671 1 12.5242 10.8314 30.298
1183 3 12.6042 9.03384 32.2726
2366 3 17.9168 5.4902 34.0965
1627 3 12.6527 0.24449 19.7818
2169 1 14.4713 8.96894 30.622
1169 1 16.1871 8.79525 28.7071
1668 2 16.3224 7.13628 30.5671
2803 1 14.5304 17.9025 32.3661
3168 2 1.7092 12.4216 28.5316
2170 2 3.84181 12.6857 30.5193
3673 1 5.43088 14.7551 30.3145
107 3 7.32397 12.6845 30.3589
3169 2 9.16273 12.6554 28.7042
2670 1 7.20524 10.8529 28.578
3670 3 9.2518 11.2249 30.2526
1674 3 9.11131 14.707 30.5072
1172 2 12.5054 12.6393 28.6265
2172 1 10.9272 12.6008 30.4056
3184 3 12.5262 12.7002 32.289
1080 1 5.13276 12.6481 35.5278
3171 1 16.2172 12.4833 28.7104
560 2 14.4576 10.707 32.1893
108 3 14.3176 12.4533 30.3115
3671 3 16.4209 10.7039 30.3319
1685 2 16.0817 10.8091 33.9061
3185 2 1.68343 16.0919 32.034
3803 3 16.357 17.8871 34.006
1672 3 1.69942 14.1823 30.1709
110 2 3.47427 15.8082 30.3202
3801 1 1.84518 17.8535 33.8939
2686 2 0.0427424 14.5279 32.1357
561 2 3.3091 14.4193 32.2082
2175 3 7.24333 16.2462 30.4778
2360 3 17.8377 16.2801 30.3989
549 1 7.17932 14.2733 28.5687
111 3 10.9136 16.042 30.3632
2184 2 0.115675 12.5771 34.1154
1534 1 8.94316 17.8545 30.5812
68 3 0.131625 9.19831 19.793
2675 2 10.9244 14.4426 28.5985
1687 2 12.6848 14.4927 34.2078
3174 1 12.6103 16.0691 28.7828
3674 2 12.4931 14.2016 30.4181
3187 1 16.3234 16.1476 32.3864
3683 3 15.9802 6.94397 34.3258
2688 1 14.5333 14.1667 32.0256
550 2 14.176 14.4763 28.6005
2963 2 17.7317 17.8474 25.1024
2176 3 14.6475 16.1761 30.5677
1675 2 16.4153 14.0874 30.436
3182 3 16.3521 8.82901 32.1464
2679 3 3.60621 3.5673 32.129
1678 1 1.78394 3.65885 33.8488
79 1 0.00689828 5.69769 23.2351
2177 3 3.76656 1.74006 33.8955
1177 2 5.54152 1.87835 32.0047
114 2 7.17013 1.85492 33.9529
2680 2 10.9932 3.43913 32.2354
2178 2 10.8214 1.8142 34.1485
1514 2 8.92551 17.8309 23.1252
344 1 17.9228 1.75648 27.1568
824 2 17.8749 7.09035 21.4934
1837 3 17.9152 11.0146 24.9791
1178 1 12.5758 1.88025 32.3702
1551 2 5.37192 18.0093 34.0206
1184 3 1.67772 12.6905 32.151
1186 3 16.291 12.6377 32.1948
115 3 14.3631 1.80114 34.0579
359 2 17.8232 16.1807 26.7698
1683 1 2.2066 10.8272 34.1858
3782 1 1.78794 17.9868 27.0137
1179 3 1.75824 5.3297 32.3934
2186 3 14.3273 12.5222 33.9815
116 2 3.50217 5.40564 34.2624
2687 3 7.05744 14.4494 32.136
2682 2 7.02053 7.28573 32.2828
3679 2 5.29528 3.49653 34.0261
2180 1 7.21986 5.431 33.9173
1681 3 5.58571 7.40483 34.2086
1679 3 9.04786 3.67586 33.8752
121 2 3.36931 12.5408 33.8706
3680 3 12.7103 3.64896 34.1385
117 3 10.8313 5.49538 34.1059
2185 3 7.37536 12.7847 34.0895
3684 1 5.25964 10.8984 33.8966
1680 1 15.9056 3.64618 34.1453
2181 1 14.2959 5.47701 34.2532
562 3 10.7589 14.4756 32.0775
1185 1 8.8338 12.7549 32.1832
3180 1 1.8602 8.9232 32.2661
3681 3 2.09542 7.21821 34.0954
2684 2 3.46341 10.8633 32.0663
3183 1 5.65337 12.4987 32.2486
556 2 3.61798 7.1306 32.3424
1182 1 5.42765 9.32384 32.1002
2182 2 3.71385 9.05219 33.9207
119 1 7.28923 8.97236 33.7213
122 3 10.8354 12.7133 34.1054
1684 1 9.11651 10.6726 34.0071
3682 1 8.9782 7.28702 34.161
559 2 7.32534 11.0548 32.2693
2683 3 14.3845 7.24289 32.5236
557 3 10.8561 7.47707 32.145
1682 3 12.494 7.305 33.9486
120 1 14.6181 8.96443 34.2229
2183 2 10.9377 9.25668 34.0008
2685 2 10.8661 10.7969 31.9925
3685 1 12.5705 10.7507 33.9241
585 1 7.13814 14.3033 35.7497
1515 3 10.9701 17.8546 24.8326
3064 3 5.50945 1.96103 35.7535
1068 3 16.0898 1.86806 35.8008
2819 1 17.9063 3.80238 35.8677
1072 2 12.5968 5.65548 35.7369
2571 2 7.46149 3.70399 35.5734
504 1 10.9599 0.316353 18.0041
3143 1 12.7663 12.62 17.8966