ITEM: TIMESTEP
5000
ITEM: NUMBER OF ATOMS
4000
ITEM: BOX BOUNDS pp pp pp
1.2266940698915718e-01 3.5611390593010825e+01
1.2266940698915718e-01 3.5611390593010825e+01
1.2266940698915718e-01 3.5611390593010825e+01
ITEM: ATOMS id type x y z
1 2 0.0942129 1.99292 1.86075
1563 2 0.0819819 0.129011 0.213771
2064 1 1.97472 1.75493 0.00420183
3561 2 1.71145 0.106223 2.03464
564 1 3.67678 1.62631 1.83722
565 1 7.17542 2.00655 1.8636
1565 2 7.22644 0.261769 0.309932
2065 2 3.51599 0.0706001 0.0994717
3061 2 5.52182 1.95365 0.132721
3562 2 5.36223 0.200473 1.92794
566 1 10.7385 1.91489 1.99233
1070 1 10.6816 0.144571 0.133878
3063 1 9.13573 0.199582 1.88507
3062 3 8.91655 1.91843 0.158762
567 1 14.3875 1.79438 1.8626
2566 1 14.524 0.177963 0.00872921
3064 2 12.559 1.69379 0.206689
3563 1 12.5503 0.148603 2.05018
2 1 17.7881 0.120726 0.132878
3 3 16.1278 0.119063 2.02146
3066 1 18.0175 1.98751 1.88275
3065 3 16.1591 2.0148 0.157772
4 2 1.98561 5.47145 0.109707
5 3 2.06348 3.7115 2.04267
6 3 1.96531 7.24111 1.91478
1071 3 0.219988 5.425 1.97201
3067 1 0.31487 3.71311 0.195769
3565 2 0.177584 7.30581 0.0534672
7 2 5.27018 5.461 0.113837
8 3 3.64693 7.38264 0.081669
1072 1 7.17812 5.44772 1.78328
1075 3 5.43405 7.18729 1.79301
1074 2 3.78596 5.57215 1.99754
1567 1 7.23464 7.32809 0.227022
2570 2 7.25629 3.65911 0.213519
2569 3 3.80164 3.53631 0.166108
3569 2 5.28925 3.61934 2.09105
9 1 9.10286 5.43846 0.131139
10 3 9.0053 3.72447 1.83659
1077 2 10.7859 7.16546 0.0974667
1076 3 10.7132 5.34586 1.87052
1568 1 9.09452 7.24619 1.80558
3068 2 10.9 3.52743 0.186994
11 3 12.5524 5.42606 0.136477
12 2 14.2637 3.58163 0.195399
570 2 12.4106 3.47749 1.84863
1571 1 14.2864 7.2264 0.141534
1570 3 14.3928 5.45903 1.94328
1569 2 12.3865 7.23239 1.83769
572 2 16.1283 3.69357 1.92499
1081 2 16.1029 7.32776 1.94857
1079 1 17.8047 5.32113 1.75595
1078 2 16.0188 5.51765 0.0405333
1573 2 17.8828 3.67593 0.0806132
2070 1 17.9234 7.18471 -0.0747317
575 2 1.83584 10.7704 1.92488
1082 2 1.90758 9.11224 0.204027
1574 2 0.0794588 8.95594 1.92462
3070 1 0.0397122 10.7341 0.0569365
576 3 3.63563 10.6788 0.0579532
1085 3 5.44091 9.03819 0.0776702
1083 2 5.61204 10.7258 1.83249
1577 1 7.39246 10.6814 0.106006
1576 2 7.30325 8.89805 1.88078
1575 2 3.80036 9.0287 1.88147
14 2 10.8603 10.8705 0.0499043
1087 1 9.00631 10.8387 1.92367
1086 2 9.09491 8.92946 0.095883
2071 3 10.831 9.17822 1.87905
580 1 12.5238 10.8604 1.96739
1088 3 14.2269 10.7712 0.145407
2073 2 12.4494 9.19277 -0.0129064
2074 3 14.1296 9.13326 1.84011
15 2 17.8688 8.94368 1.6582
1581 3 16.0015 10.7741 1.83665
2076 1 17.7311 10.7507 0.123471
2075 2 15.9707 9.09702 -0.00990736
2079 3 1.83916 12.5815 0.236655
2078 2 1.86843 14.1725 1.78662
2077 1 0.0394375 12.4884 2.23501
2572 2 0.0419688 14.3194 0.0835749
2082 1 5.45019 14.3139 2.02143
2081 2 3.86746 12.2975 1.92811
2080 1 5.46425 12.6769 0.158663
2576 3 7.25707 14.291 0.120074
2575 2 7.26209 12.6673 1.85491
3071 2 3.82141 14.2731 0.444851
1583 2 9.13878 14.5089 1.87257
2084 1 10.7432 14.3543 0.0977591
2579 2 10.7991 12.6876 1.9634
3073 3 9.08959 12.7155 0.0488415
2085 1 12.6673 14.2817 1.91119
2580 1 14.3393 12.6448 1.71886
3074 3 12.4696 12.6572 0.222816
3574 1 14.3713 14.4795 0.063429
581 2 17.9014 12.7149 1.88072
1089 2 17.9907 14.4091 0.0637837
2583 1 16.1495 14.342 1.82241
3075 3 16.1816 12.6367 0.11559
16 2 -0.00174463 18.0494 0.232088
2086 2 1.85076 17.9173 2.0483
2584 2 0.0909163 16.1626 1.99701
3076 1 1.69913 16.0848 0.183026
17 1 5.47716 16.0471 0.180834
1090 2 3.61758 17.8239 0.340547
2585 2 7.24794 17.8291 0.131594
3079 1 5.5212 17.7322 2.10375
3078 3 7.22181 16.0772 1.84472
3077 1 3.44496 16.235 1.95611
18 3 9.00148 16.0311 0.202737
1585 3 10.8969 17.8697 0.0113774
3080 2 11.0057 16.0555 1.90791
3578 2 8.92059 17.9689 1.9256
19 3 12.4939 16.0302 0.047494
2088 1 14.338 18.0686 0.137846
3081 1 14.3005 16.0823 1.76534
3581 2 12.6289 17.8509 1.80072
20 1 16.2373 16.1163 -0.133046
1586 3 17.8805 16.1763 1.81334
3083 3 16.2023 17.8734 1.69868
3082 3 17.822 17.8735 -0.0762611
584 1 1.80564 1.92588 7.24878
1564 2 0.170244 0.18185 3.65995
2588 2 1.82621 0.119981 5.51183
2563 2 1.85565 1.78279 3.68388
3084 2 -0.00435156 0.0225368 7.18409
3583 1 0.0528217 1.80101 5.47646
22 1 5.46764 1.75926 7.18824
1069 1 3.37492 0.191224 3.80617
1566 2 7.2171 0.00346174 3.71411
2089 1 5.28709 0.165559 5.32384
2590 2 3.68499 0.224344 7.07699
2564 1 5.59097 1.77439 3.65006
3085 3 7.18313 -0.0417789 7.2776
3585 1 3.50476 1.8632 5.50553
3584 1 7.31312 1.80481 5.41247
586 3 9.11931 1.93689 7.26107
2066 2 10.8379 0.136221 3.55304
2593 1 8.88798 0.14662 5.40062
2565 2 8.94167 1.70183 3.67756
3086 3 10.7246 0.135162 7.1875
3586 3 10.7165 1.95712 5.31996
23 2 12.4613 1.91797 7.1546
24 3 14.3296 0.225344 7.07161
25 3 14.2845 1.81839 5.46582
2568 3 14.2976 0.105902 3.79908
2567 2 12.5378 1.91045 3.60124
3087 2 12.5143 -0.0585873 5.55276
568 1 17.9073 -0.0789382 3.63974
588 2 16.1873 2.00534 7.29983
1587 3 17.8662 0.20594 7.17596
3088 3 16.0791 0.149178 5.43552
3588 1 17.9857 1.90753 5.4527
3564 1 16.1813 1.87224 3.77649
27 3 1.89705 5.29536 7.24272
28 3 1.85052 7.10936 5.68806
589 3 0.0467451 5.41231 5.37908
2067 3 0.0452839 3.7778 3.57275
3090 3 1.67452 3.62848 5.56745
3590 3 -0.0346562 7.06898 7.35977
3589 2 -0.102365 3.53139 7.08696
3567 2 0.158376 7.31212 3.75699
3566 3 2.03512 5.50805 3.77434
29 1 3.72984 3.66534 7.20689
593 3 3.77631 7.18531 7.25668
592 3 7.21318 5.45161 5.36834
591 2 7.247 7.19596 7.1121
590 3 3.97847 5.51055 5.51472
1095 1 5.49732 5.28795 7.32039
1094 1 5.53163 7.41796 5.48773
1073 3 3.73872 7.2366 3.79916
2068 1 7.24946 7.27941 3.53215
2069 1 3.69571 3.65052 3.86249
3593 1 5.68194 3.44333 5.53024
3592 1 7.36641 3.63703 7.41864
3570 1 5.54999 5.53802 3.55064
3568 2 7.20873 3.72092 3.67841
31 3 8.98336 3.73018 5.33009
569 2 10.7749 7.24528 3.63108
594 1 10.9366 5.45494 5.49226
1097 2 9.18443 5.39371 7.16638
1590 3 9.05154 7.11232 5.45557
1589 2 10.7895 7.24963 7.21941
3594 2 10.8451 3.64753 7.10608
3572 2 10.72 3.702 3.64336
3571 3 9.03788 5.48429 3.70954
33 3 12.7206 3.59459 5.29116
35 2 14.2162 3.72148 7.1897
571 2 12.5615 5.21086 3.51186
595 1 14.2483 7.1408 7.04063
1100 3 14.2583 5.41569 5.34539
1099 3 12.5944 5.39354 7.15039
1592 3 12.4717 7.20636 5.32979
1572 3 14.359 7.23767 3.51267
3069 1 14.348 3.56594 3.62646
573 1 16.1012 5.46762 3.66493
1080 3 17.9366 3.70251 3.78201
1595 1 16.0976 7.10861 5.30471
1594 2 16.0381 5.47876 7.17761
2094 1 17.8424 7.29931 7.15036
2092 2 17.9284 3.71782 7.39847
2571 3 17.7594 7.20917 3.62664
3092 3 18.0049 5.46127 5.60736
3595 3 16.0607 3.75073 5.64152
13 3 0.328812 10.5738 3.74247
597 2 0.199557 10.7974 7.149
596 3 1.89554 10.7457 5.50942
574 1 1.93843 8.87795 3.6135
1102 2 2.08552 9.23987 7.37298
1101 3 0.0856794 8.87706 5.54992
38 2 3.69777 10.8949 7.11941
578 3 3.62025 10.6392 3.73228
577 3 5.42029 8.93829 3.7812
1106 1 7.14588 10.8026 7.19372
1104 1 5.43983 10.9343 5.35254
1103 2 3.64509 8.90621 5.50383
1084 1 7.31042 10.6272 3.63486
1597 1 7.24156 9.11945 5.5
1596 2 5.29858 8.96389 7.30581
39 2 10.781 10.5517 7.28899
599 1 9.03491 10.9066 5.45505
579 3 10.7795 10.8241 3.70181
1107 1 8.99298 8.74602 7.32482
1578 1 9.02455 9.17183 3.71259
2097 3 10.6973 9.02657 5.41901
1108 2 12.5491 10.7086 5.64359
1598 3 12.6473 8.86747 7.17134
1579 2 12.5349 9.02157 3.72124
2072 1 14.2213 10.7741 3.61273
2099 3 14.2807 10.8166 7.03151
2098 1 14.3673 8.88068 5.31329
1599 3 15.913 8.98728 7.05281
1580 1 15.9579 8.91492 3.56353
2100 2 16.1529 10.7271 5.39482
3093 1 17.8252 10.7804 6.90965
3597 1 17.8191 9.0261 5.23978
3573 3 17.7762 10.6892 3.56446
1110 1 0.0442427 14.2385 7.2089
1582 3 1.96582 12.5404 3.54028
2103 3 1.81346 12.576 7.16228
2102 2 1.84484 14.3271 5.30542
2101 3 0.0880697 12.3944 5.38797
2573 2 0.119108 14.1764 3.69834
1112 1 7.23802 14.2741 7.25426
1600 1 5.43631 12.579 7.41298
2104 3 5.33432 14.161 5.36034
2083 1 3.64915 14.3187 3.61586
2601 3 7.13066 12.5224 5.48045
2600 1 3.50347 12.5112 5.43222
2599 1 3.70807 14.1321 7.19139
2577 2 7.31598 14.2637 3.54271
2574 3 5.463 12.5719 3.54982
2604 2 8.90029 14.2118 5.40135
2603 3 10.6867 14.2766 7.29261
2602 3 10.7097 12.5988 5.49015
2578 1 9.04382 12.6529 3.58394
3097 1 9.13187 12.4281 7.26398
3072 2 10.781 14.1353 3.77638
602 1 14.0812 14.3186 7.14978
1603 3 12.4667 12.5978 7.30187
2605 3 14.2674 12.6945 5.47644
2581 2 12.6622 12.6687 3.56866
3098 1 12.4884 14.4342 5.35954
3575 3 14.4119 14.466 3.62218
1114 1 18.0433 12.5133 5.56418
1584 1 17.8711 14.358 3.7618
2582 1 16.1912 12.7256 3.59787
3100 3 16.2134 14.2601 5.47206
3099 3 16.0353 12.5967 7.19244
3599 2 17.8212 14.3013 7.19251
582 2 0.0550965 17.9957 3.83928
1605 1 1.85798 17.9242 5.61694
1604 1 1.8078 16.1083 7.19827
3104 2 0.0600807 15.9877 5.39253
3103 3 -0.0327197 17.9367 7.2139
3576 3 1.83848 16.0641 3.66237
2087 2 3.76956 17.8892 3.82961
2607 2 5.56683 17.8231 5.43918
2586 2 7.27401 17.8939 3.62495
3107 1 7.11997 17.834 7.36676
3106 2 5.38771 15.7765 7.25442
3105 3 3.67224 17.9149 7.13074
3602 2 3.47526 15.9835 5.47888
3601 3 7.246 16.0359 5.47015
3577 1 5.54969 16.2336 3.75598
1091 3 10.7136 17.7657 3.43222
2107 2 9.04333 16.0859 7.17698
2608 1 8.86985 17.8081 5.51659
3109 1 10.6379 17.9596 7.32271
3603 1 10.6243 16.0411 5.41479
3579 1 8.99207 16.006 3.71231
41 3 14.3316 16.2754 5.3305
2610 1 12.3481 18.0168 5.46029
2609 1 14.3821 17.9468 7.24458
2587 2 14.3841 18.015 3.54977
3604 1 12.5683 16.3375 7.11558
3580 2 12.5082 16.1715 3.73699
583 3 16.0131 16.182 3.56899
1606 3 17.8754 17.8635 7.32675
2109 3 16.0122 16.1211 7.0208
3112 2 16.1605 17.9913 5.34808
3110 1 17.837 16.2662 5.5327
3582 3 17.7228 17.8185 3.692
21 1 0.0241437 1.91432 8.98842
604 3 -0.0150205 0.0901472 10.8939
2110 1 1.85819 1.85102 10.7167
2589 1 1.70787 0.0506179 8.87798
585 1 7.39411 1.88304 8.85474
1092 3 5.35346 0.0363576 8.95521
1608 3 7.34513 -0.0105324 10.588
1607 2 3.76689 0.140034 10.6359
2111 1 5.417 1.76546 10.7086
2591 2 3.76099 1.81938 8.81476
1116 3 10.8681 0.0664834 10.9396
2612 3 8.99672 1.84067 10.73
2592 3 10.8237 1.84765 9.05319
3587 3 9.03083 0.0912645 8.98067
587 2 14.3139 1.87253 8.811
1609 3 14.3682 0.0159923 10.9187
2090 2 12.6317 0.193175 8.93145
2613 3 12.5156 1.88735 10.805
26 3 16.072 0.0771965 9.06687
2594 1 17.8727 1.81712 8.97364
3116 3 16.0361 1.86938 10.8578
3115 1 17.9516 0.0725343 10.862
1093 2 1.98438 7.23328 8.90991
2091 2 1.92254 3.52594 9.0141
2615 3 -0.0721861 3.72762 10.7252
3118 1 0.213056 7.32176 10.6326
3117 2 1.76947 5.33497 10.6492
3089 2 0.0419016 5.17612 8.82003
30 1 5.39991 3.61004 9.05423
45 3 7.39586 7.03892 10.7334
1096 1 3.60492 5.55021 9.00967
2112 3 7.25513 3.62081 10.7523
2616 1 3.72302 3.75567 10.6008
3091 1 7.32013 5.48177 8.88974
3608 2 3.57744 7.36004 10.8728
3607 2 5.47449 5.38402 10.6629
3591 1 5.62496 7.07493 8.99837
46 1 10.8761 7.00021 10.8845
1098 2 10.8736 5.44663 9.01675
1591 2 9.14874 3.8019 8.97316
1588 1 9.26284 7.00798 9.04447
2113 2 10.7995 3.792 10.7672
3609 1 9.09016 5.41559 10.7605
32 2 12.4718 7.22249 8.94886
34 2 12.575 3.61072 8.91116
36 3 14.376 5.44106 8.94035
609 1 14.1743 7.06372 10.6391
3119 1 14.359 3.68983 10.8238
3611 1 12.5535 5.27562 10.6719
1120 1 17.7688 3.67851 10.7462
1615 1 17.8536 7.37697 10.8137
1593 1 17.7873 5.60587 8.89124
2093 3 16.0586 7.38003 8.95284
2595 1 15.992 3.678 8.8994
3612 1 16.1304 5.56318 10.5967
48 1 1.94662 9.01672 10.5493
2095 3 0.0585205 9.03593 8.95474
2596 3 1.91499 10.8596 9.18594
3120 1 -0.0245406 10.7364 10.9282
37 3 3.83359 9.05789 9.04626
49 1 5.52164 9.13743 10.7108
612 1 7.4073 10.7049 10.7187
1105 3 5.57457 10.8033 8.96259
2096 2 7.23217 9.0335 8.92413
3121 2 3.74088 10.6381 10.8609
613 2 8.95932 8.86044 10.7329
598 1 10.752 8.86285 9.12917
3613 2 10.6777 10.6587 10.7315
3596 2 9.04218 10.7529 8.99778
50 3 14.2362 10.8272 10.7266
614 2 12.3975 8.9123 10.6815
2598 3 12.5358 10.7383 8.94348
2597 2 14.2935 8.95949 9.08188
51 1 17.8489 10.7948 10.8368
600 3 17.6664 9.14996 8.93149
1122 1 16.0789 8.81498 10.873
1109 1 15.9879 10.8791 8.98672
616 2 0.0862552 14.3598 10.8115
601 2 0.163736 12.4611 8.99421
1123 3 1.80242 12.7227 10.7473
3094 2 1.8168 14.2917 8.84576
1124 3 5.40805 12.5884 10.7809
1111 3 5.39028 14.437 9.17667
1619 1 7.18124 14.5091 10.7956
1618 1 3.68749 14.4624 10.7288
1601 3 7.31249 12.5769 9.06555
3095 1 3.50453 12.5584 8.96678
617 3 10.78 14.3402 10.8437
1125 2 9.08116 12.529 10.8072
3096 1 8.97361 14.4704 8.97353
3598 3 10.8167 12.6111 9.13663
1126 3 14.4461 14.376 10.769
1113 1 12.5454 14.3141 9.0868
1620 1 12.5316 12.616 11.0109
1602 1 14.3461 12.6633 9.08895
1621 3 16.0716 12.591 10.7774
3126 2 17.9771 14.3298 10.6621
3102 3 16.0803 14.4603 8.87977
3101 1 17.9023 12.5117 8.73703
1623 1 -0.0528128 17.8583 10.7695
2119 3 1.87471 16.1132 10.538
2606 1 1.72125 17.9705 8.9447
3600 3 0.025303 16.1669 8.9463
40 3 7.10106 16.0048 8.93391
619 2 3.60465 17.9918 10.6433
1127 1 7.17187 17.7805 10.6956
2120 2 5.30216 16.2853 10.7035
2106 1 3.68597 16.0713 8.87948
2105 2 5.29265 17.996 8.9035
1624 3 10.8763 17.7713 10.7495
2108 3 10.8806 16.0523 8.99989
2625 1 9.07358 15.9955 10.7706
3108 2 9.08214 17.645 8.94705
603 3 14.2565 16.1676 8.83585
1115 2 12.5271 17.8541 9.00391
2626 2 12.6934 16.081 10.709
3620 2 14.364 17.8968 10.8472
2628 3 16.1146 16.0797 10.7598
2611 1 17.829 16.2065 8.98292
3127 2 17.8037 17.8384 10.7121
3111 3 15.9125 17.9627 9.02379
42 1 0.0243055 1.91668 12.5685
2121 1 0.204058 0.0187582 14.5388
2629 3 1.93207 1.79987 14.2855
3113 1 1.80302 0.159607 12.4785
43 3 3.82276 1.91704 12.4655
605 3 7.26255 1.77387 12.4881
1625 3 7.19806 0.202323 14.2788
2123 2 3.75383 0.164272 14.3727
3128 1 5.48183 1.92975 14.2103
3605 3 5.55859 0.0489439 12.3132
606 2 10.7063 1.89209 12.4874
1627 3 10.6974 0.152759 14.2202
3129 1 8.95715 1.89312 14.1546
3606 1 9.02911 0.00504553 12.3689
1117 1 14.315 1.8443 12.4244
2632 3 14.3428 0.0661591 14.4821
3131 2 12.4994 1.87776 14.3406
3114 2 12.6327 0.33508 12.5464
44 2 16.0191 0.0776625 12.6523
501 2 17.8351 0.161124 14.2815
2614 1 17.7517 1.78388 12.5118
3132 3 15.89 1.87506 14.3389
607 1 1.75657 3.57062 12.4114
1119 2 1.93569 7.25345 12.5347
1118 1 0.210296 5.61228 12.716
2634 2 0.0369735 7.131 14.3992
2633 3 0.192529 3.62297 14.3151
3624 2 1.81367 5.42891 14.3313
60 3 7.24246 7.19801 14.2899
608 3 5.35598 3.68866 12.4817
1612 3 7.14002 5.40999 12.3432
1611 2 5.48957 7.34509 12.3822
1610 2 3.49271 5.44823 12.361
2128 1 7.15424 3.58289 14.182
2126 1 3.71836 3.59053 14.3413
3136 3 3.67075 7.14416 14.1426
3626 1 5.53437 5.40457 14.14
1613 3 10.8087 5.30218 12.7182
2114 3 9.00639 7.17932 12.5114
3137 2 10.7591 3.52443 14.4084
3629 1 8.75189 5.33854 14.2365
3628 2 10.8784 7.30084 14.4089
3610 2 9.05045 3.70752 12.4303
610 3 12.4538 3.62279 12.5205
1614 1 14.3704 5.36459 12.6072
2617 2 12.6393 7.1009 12.5159
3138 1 14.3344 3.58752 14.3915
3631 2 14.3338 7.06079 14.2127
3630 3 12.583 5.30558 14.3221
47 1 17.8044 5.62731 12.6787
65 1 15.9854 5.45491 14.3879
1138 1 17.8388 3.70986 14.4052
1121 1 16.1416 3.74569 12.5196
2618 2 15.9861 7.13032 12.5997
3140 1 17.7445 7.3679 14.2295
67 3 1.9054 9.00221 14.3523
611 1 1.72519 11.0132 12.5482
2115 1 0.137936 8.98129 12.6398
2636 2 0.0966191 10.8314 14.4351
69 1 7.21397 10.7825 14.243
70 3 5.42641 8.94046 14.3123
1616 2 5.43939 10.8813 12.4532
2116 1 3.62744 8.97986 12.548
2619 1 7.17219 9.04879 12.4742
3633 3 3.73443 10.8291 14.2726
71 3 8.96484 9.03248 14.2576
2117 2 9.05044 10.7911 12.6263
2620 1 10.7765 8.92133 12.464
3141 2 10.7447 10.7742 14.2308
510 2 12.5931 9.09013 14.2969
1617 2 12.3707 10.7063 12.5127
3122 3 14.3726 8.95876 12.3906
3635 1 14.2975 10.812 14.141
511 3 15.9471 8.86221 14.4419
615 1 17.8212 9.03628 12.4817
1639 2 17.8599 10.6248 14.3707
2118 1 16.1065 10.6686 12.5809
513 2 -0.0684788 14.4318 14.271
514 1 1.83216 12.6713 14.3801
2621 1 -0.0322286 12.6746 12.7213
3123 1 1.94772 14.2837 12.5718
72 1 7.31833 14.2323 14.3382
515 3 5.36873 12.6337 14.3552
516 1 3.7007 14.3441 14.2028
3125 3 7.26901 12.6069 12.4359
3124 2 3.60988 12.5688 12.4716
3614 1 5.42081 14.3291 12.5026
73 2 10.7904 14.3622 14.3646
1145 3 8.994 12.4427 14.3461
3616 3 10.7074 12.6226 12.6141
3615 2 8.94709 14.3234 12.5436
1147 1 12.5366 12.5502 14.2205
1146 2 14.4936 14.3707 14.3537
2622 1 12.4537 14.4362 12.6523
3617 1 14.166 12.4582 12.4839
1149 3 16.0048 12.591 14.2129
1622 2 17.872 12.4074 12.546
3146 2 17.9356 14.4015 14.1706
3618 3 16.1419 14.3027 12.5252
52 2 0.00184328 16.0062 12.4754
518 2 0.0182593 17.8048 14.3399
1150 2 1.75282 16.0036 14.1898
2623 2 1.71036 17.6889 12.48
53 3 3.65618 16.2495 12.4967
618 1 7.12012 16.1035 12.4713
1151 1 3.45463 17.8586 14.3284
1642 3 5.39458 16.3272 14.3101
2142 3 7.22953 17.99 14.2537
2624 2 5.21732 17.9998 12.517
54 2 10.7706 16.1321 12.3725
1643 2 9.15681 15.935 14.2123
2649 1 10.8092 17.6833 14.237
3619 2 8.94899 17.7329 12.4889
55 1 12.5884 17.7864 12.3709
620 1 14.3781 16.0566 12.5522
1646 3 12.5829 16.0715 14.4001
1644 3 14.306 17.8728 14.3222
56 3 16.15 17.7917 12.469
1647 2 16.1216 16.1528 14.2963
2627 1 17.7537 16.1975 12.6003
3644 1 17.9358 17.9496 14.3502
57 2 1.93417 0.154229 16.2874
621 1 0.241526 1.86039 16.0522
1128 1 0.194404 0.294117 18.0463
2122 1 1.97539 1.98373 17.8202
58 1 5.49284 0.169019 16.1755
1132 3 7.14472 0.107374 18.0799
1131 2 7.15869 2.08781 16.0693
1130 2 3.82333 0.181965 17.7409
1129 2 3.65639 1.81143 15.9875
2630 3 5.49138 1.90991 17.7187
1133 3 10.7019 1.84261 16.1641
1626 2 10.726 0.120177 17.9109
2631 1 8.94399 1.84838 18.0071
3621 3 8.8473 0.152802 16.2836
59 3 12.6156 0.187715 16.2639
1134 3 14.1431 1.87127 16.296
2124 1 14.315 0.268365 17.9196
3130 1 12.3431 1.98875 18.0723
502 2 16.0012 0.123832 16.3414
3133 1 16.1631 1.85186 17.9105
3623 2 17.9543 0.239388 18.0091
3622 2 17.7011 2.06936 16.0637
503 2 1.97971 3.56661 16.1244
504 1 2.04166 7.21635 16.0955
1628 1 0.157777 5.53121 16.0555
2125 2 0.106107 3.60599 17.7528
3134 1 0.116931 7.1816 17.8202
3625 2 1.96701 5.65379 17.8599
61 3 5.38961 3.6518 16.0668
505 2 3.94696 7.36238 17.8002
1135 1 7.29672 7.07361 17.8252
1631 1 5.58109 7.20592 15.8179
1630 3 3.59653 5.28495 16.1481
1629 1 7.15089 5.12109 16.1567
2127 2 3.62237 3.80894 17.8963
3135 2 7.17494 3.65891 17.8357
3627 2 5.44284 5.45184 17.7804
62 1 8.90003 5.25952 17.8619
63 1 10.527 7.35845 17.6706
506 1 8.91676 3.6136 16.1084
1632 3 10.6727 5.33778 15.9537
2129 1 8.84851 7.00383 16.0094
2635 1 10.7396 3.69337 17.9668
64 2 12.5284 5.47349 17.9725
1137 3 14.1933 7.31344 18.0484
1136 2 12.3389 3.54182 16.2328
2131 3 14.1097 5.38091 16.0337
2130 2 12.613 7.25163 16.1746
3139 3 14.3787 3.77016 17.8663
66 1 17.8073 5.68496 15.9759
507 1 16.1141 5.63938 17.778
1140 2 17.8103 3.87949 17.7751
1139 2 15.9343 3.85509 16.1061
1634 3 17.8391 7.31023 17.9583
1633 1 15.8699 7.25469 16.1495
508 3 1.93148 8.97026 17.8025
1141 3 1.83209 10.6126 16.121
2132 3 -0.0315944 8.89712 16.1644
3632 2 0.239199 10.8082 17.9522
68 1 3.70934 10.7498 17.7017
509 3 7.16177 10.8839 17.8212
1142 3 5.57878 9.13396 17.8303
1635 2 5.58585 10.792 15.8085
2134 2 7.25072 9.06327 15.9947
2133 3 3.72784 9.04271 16.0193
1143 2 8.89023 9.15482 17.6987
1636 3 9.03255 10.8696 16.1023
2637 1 10.8241 9.13916 16.0273
3634 1 10.8049 10.8423 17.9325
1144 3 12.4662 11.0306 16.0036
1638 2 12.4381 9.02441 17.9606
1637 3 14.1972 10.7263 17.9656
2638 3 14.2758 9.15236 16.1743
512 1 17.973 8.92045 15.9929
1640 3 16.0515 8.87901 18.0812
2135 1 16.1484 10.714 16.0162
2639 3 17.8555 10.7761 17.7925
2137 1 0.164549 14.1602 17.9035
2136 2 2.00063 12.6366 17.8401
2641 2 1.9695 14.3451 16.1123
2640 2 0.00733192 12.7243 16.1445
2140 1 7.44638 14.5013 17.8311
2139 2 3.72232 14.2598 17.9463
2138 3 5.3848 12.5634 17.7036
2643 3 5.5225 14.4926 15.9016
2642 2 3.74267 12.6405 16.0627
3142 1 7.21409 12.5008 16.1301
2141 2 8.97859 14.3315 16.0839
2645 3 9.01371 12.6492 17.7916
2644 2 10.6846 14.2752 17.9024
3143 1 10.6611 12.7914 16.0313
2647 1 12.6606 14.3049 16.0894
2646 3 12.4804 12.5017 17.77
3145 1 14.4902 14.1035 17.9829
3144 3 14.3882 12.5084 15.9586
517 1 17.7254 14.2033 17.9588
1148 2 17.6033 12.6181 15.9668
3148 2 16.0288 14.2628 16.0096
3147 2 16.0195 12.503 17.8268
2648 3 1.72511 17.9497 15.8399
3150 1 1.80898 16.2196 17.9264
3149 3 0.0786188 16.1851 16.2532
3636 3 -0.019113 17.9664 18.0643
1641 3 3.69511 17.7786 17.9531
2143 1 7.26567 17.9282 17.8546
3640 1 5.4143 17.8341 16.0392
3639 3 7.28095 16.2395 15.9207
3638 1 5.42075 16.1907 17.6263
3637 2 3.5654 16.0067 16.1941
74 1 9.04346 17.8366 16.0153
519 2 10.8488 18.0075 17.8437
3642 1 9.00986 16.125 18.0044
3641 1 10.603 15.9892 16.1214
75 3 12.5911 15.9389 17.7928
76 2 12.4572 17.8864 16.0742
1645 3 14.3812 17.9347 17.9337
3643 3 14.3942 16.1548 16.2104
77 3 16.0123 16.0754 18.0109
2144 3 17.7368 16.0254 16.1441
2650 1 17.7709 17.8015 17.7899
3645 1 16.1849 17.7847 16.2533
520 3 0.0776696 0.155769 21.3612
78 1 0.294431 1.85336 19.655
2145 2 2.03657 1.85518 21.3333
3151 3 1.83798 -0.159744 19.6499
521 2 3.75022 0.163627 21.5262
80 1 3.79703 1.87291 19.747
79 1 7.24304 1.89288 19.7246
2147 1 5.4806 1.66791 21.4014
2146 2 7.26019 0.234213 21.3885
2651 2 5.48884 -0.0153426 19.6965
81 2 10.6441 1.92042 19.7871
1648 2 10.6882 0.245754 21.5103
2652 1 8.85762 1.95716 21.5087
3152 3 9.12091 0.119066 19.6855
522 3 14.2667 1.99769 19.6719
1649 2 14.245 0.0773029 21.3384
2653 2 12.4561 1.8228 21.6881
3646 3 12.512 0.143007 19.7657
82 2 17.7567 0.0406884 21.501
2654 1 17.9357 2.00833 19.8368
3153 3 16.101 1.87808 21.5269
3647 1 16.0704 0.00320104 19.613
523 2 0.0501714 5.50052 19.584
84 2 1.9393 7.3536 19.5612
83 1 -0.0187656 7.13289 21.0546
1650 3 0.33399 3.75744 21.4411
3155 1 1.96959 5.57157 21.2903
3154 3 1.87064 3.72057 19.5392
524 2 3.68954 5.45292 19.5866
525 2 7.16823 5.47846 19.6738
526 2 3.88062 7.2342 21.4197
1153 3 7.26939 7.13106 21.4339
1152 2 5.46479 7.09669 19.501
2655 1 3.56825 3.70124 21.3278
3156 2 7.21943 3.671 21.5712
3649 3 5.48181 3.63964 19.795
3648 2 5.439 5.39687 21.6457
86 2 10.741 7.20123 21.3791
85 3 8.8981 3.63958 19.6798
1155 1 10.8669 5.49247 19.7089
1154 2 8.96636 7.3002 19.697
2656 2 10.7387 3.7056 21.4313
3650 1 9.02043 5.38532 21.4397
527 1 12.4582 7.22066 19.6029
88 2 12.4518 5.5186 21.5108
87 2 12.4089 3.76996 19.8175
1156 1 14.1846 5.4286 19.6312
2148 1 14.483 7.30952 21.4539
2657 2 14.2685 3.72226 21.614
528 3 17.7937 3.73266 21.5041
89 3 16.1684 5.38532 21.5656
1157 2 16.0816 7.12396 19.6861
3158 1 17.8178 5.24031 19.6541
3157 3 17.8636 7.17977 21.3294
3651 3 16.0946 3.67766 19.7506
529 1 2.02842 8.86859 21.2463
530 2 2.03537 10.7816 19.7149
1158 1 0.163933 9.02486 19.6959
3652 1 0.111704 10.6925 21.5073
531 3 5.4736 9.05756 21.2578
532 2 5.46545 10.8324 19.5351
533 2 7.26754 10.7664 21.4146
1159 2 3.82998 8.80591 19.5706
1651 3 7.24164 9.0924 19.5664
3653 3 3.67677 10.9267 21.3376
90 1 8.95888 10.8464 19.5298
1161 2 9.0317 8.97916 21.4208
1160 2 10.6629 10.7739 21.4669
1652 1 10.6664 9.09413 19.596
534 1 12.5111 10.8102 19.9003
1162 1 12.3491 8.97069 21.397
1654 1 14.3285 10.8039 21.5813
1653 1 14.2237 9.01399 19.8381
1656 2 16.027 10.744 19.611
1655 2 16.0421 9.06489 21.4251
3159 2 17.7621 10.7917 21.4709
3654 3 17.9654 9.06252 19.7655
1660 2 0.219681 14.2915 21.4513
1659 2 1.89252 14.3477 19.6357
1658 1 1.91741 12.5195 21.3592
1657 3 0.276897 12.541 19.6979
1163 3 5.39998 14.2405 19.6625
1661 2 3.73742 14.2894 21.2679
2151 3 7.26343 12.7268 19.5235
2150 3 5.58861 12.3693 21.2137
2149 2 3.74142 12.561 19.5688
3160 1 7.25869 14.4009 21.5383
1662 2 9.18205 14.3115 19.8363
2153 3 8.99974 12.6652 21.5324
2152 1 10.7506 12.6997 19.7844
2658 1 10.9123 14.3711 21.5254
2155 3 14.3323 12.5045 19.6938
2154 3 12.6707 14.2425 19.6597
2660 2 14.3276 14.2632 21.5134
2659 2 12.4999 12.646 21.5811
535 2 17.8753 12.429 19.6174
1164 3 17.8321 14.3619 21.4352
2156 2 16.1784 14.446 19.6303
2661 2 16.1118 12.5283 21.3319
1165 3 0.123473 17.7906 21.4611
2157 2 1.69371 17.8908 19.7241
2662 1 0.311515 15.8806 19.6428
3161 1 1.95582 16.1271 21.4195
1664 1 7.21246 17.9181 21.3405
1663 3 3.68251 17.9637 21.4659
2664 1 3.52075 16.0941 19.6101
2663 3 7.12626 16.0407 19.6929
3163 1 5.29423 16.1011 21.3134
3162 3 5.44266 17.7341 19.6193
536 1 10.8694 17.7649 21.5157
2665 3 11.1135 16.0211 19.6865
3164 3 9.09518 17.8948 19.6974
3655 3 9.09973 16.1144 21.4436
2666 1 12.5548 17.9714 19.7811
3166 1 14.3592 16.3488 19.8844
3165 1 14.3009 18.0667 21.5495
3656 2 12.6208 16.1375 21.4638
92 3 16.0864 16.1743 21.3148
91 1 17.7634 17.9936 21.4925
1166 2 17.8998 16.0665 19.6957
3167 1 16.1669 17.9846 19.6355
93 3 1.97599 1.85794 24.8916
1665 2 1.99153 0.0543192 23.1635
2667 3 0.32963 0.133592 24.9303
3168 1 0.316329 1.88921 23.1017
2158 1 5.57352 0.073725 23.1303
2670 1 3.73389 0.168693 24.8897
3170 1 7.1584 1.81509 23.3444
3169 3 3.60026 1.96121 23.0744
3659 1 7.15634 -0.0777366 24.9823
3658 1 5.32584 2.01693 24.8264
537 1 8.90254 1.8994 25.0342
2671 1 8.96561 0.222817 23.2849
3171 2 10.7969 0.147908 25.0808
3660 1 10.6861 1.89665 23.2855
2673 1 12.5402 0.0959453 23.3716
3663 3 14.3083 1.76294 23.3083
3662 2 14.2521 0.00612725 24.9115
3661 3 12.6115 1.98425 24.9366
539 2 16.0727 1.8025 25.0307
1167 3 17.8894 0.148853 24.9989
1668 3 17.8835 1.80202 23.2205
2160 1 16.277 0.102548 23.2939
99 2 1.94535 5.63766 24.9205
98 2 1.9869 7.44152 23.078
97 3 0.175168 7.41239 25.0553
96 3 0.197815 5.72458 23.2093
3173 2 1.80993 3.82847 23.22
3172 3 0.303583 3.58074 25.023
540 1 3.85425 7.50661 24.9756
541 1 5.59559 7.37157 23.2877
542 1 7.2559 5.35558 23.2966
543 2 5.41391 5.52702 24.9511
101 3 7.33449 7.32628 25.041
100 1 3.66257 5.59491 23.2352
2675 1 7.12992 3.60778 25.1171
3175 2 3.64882 3.81907 24.9745
3665 2 5.4289 3.56209 23.0775
546 3 8.88836 7.17794 23.0838
547 3 9.001 5.36929 25.0785
102 2 10.8801 5.43569 23.259
1170 1 10.7025 7.10606 24.8625
3177 3 10.7997 3.67733 25.0937
3666 1 9.06969 3.65353 23.3132
548 1 14.3157 5.4756 23.187
549 3 12.5334 5.50131 25.0016
105 3 14.3182 3.73489 24.9309
1670 3 12.5185 7.19933 23.3063
3179 1 12.3815 3.85689 23.2367
3667 3 14.3656 7.07684 24.994
1172 1 16.104 5.39267 24.9289
1672 3 17.8142 3.50769 25.116
1671 1 16.1755 7.25191 23.2179
2678 1 17.8171 7.05358 24.9944
2677 3 17.9861 5.4822 23.299
3668 2 16.0298 3.69124 23.2619
550 1 0.138984 9.16279 23.2048
106 1 1.89317 10.799 23.2924
1175 1 2.04237 9.19605 24.9098
3669 3 0.144043 10.977 24.9957
108 1 5.561 10.8796 23.1499
1180 2 7.35535 10.8215 24.911
1178 1 7.39465 9.0443 23.2722
1177 1 3.93991 9.09927 23.1202
1176 3 5.75913 9.1101 24.9436
3670 2 3.95881 10.7392 24.9468
551 1 10.9048 10.8154 25.019
552 1 9.10417 10.748 23.2819
1181 3 9.12728 8.88662 25.043
1674 2 10.8845 9.09458 23.1791
1182 1 12.4409 10.8076 23.0073
1676 3 12.4222 9.00053 25.0036
1675 1 14.3224 8.86087 23.154
2163 1 14.1711 10.7719 24.931
1183 3 16.1042 8.99101 24.9327
1677 2 16.0472 10.7609 23.295
2165 3 17.7522 10.8005 25.0042
3671 3 17.9507 9.0827 23.1877
555 1 0.0832242 14.3878 25.0014
1184 1 1.93916 14.2884 22.9917
1678 3 2.03892 12.5795 25.076
2166 1 0.125179 12.5476 23.3103
113 1 7.33601 14.552 24.8805
1185 1 5.58298 12.4995 24.947
2170 1 5.41547 14.0518 23.1005
2169 3 3.63216 12.5857 23.1814
2168 1 3.75778 14.3553 25.1224
2167 3 7.41271 12.4316 23.2802
1680 2 10.8243 14.4659 25.0749
2171 1 10.7633 12.76 23.1963
2682 1 9.027 14.4034 23.202
2681 2 9.27585 12.4886 25.0255
114 1 14.347 14.4766 25.1191
1681 2 12.6204 12.6922 25.0798
2684 3 14.3703 12.4309 23.416
2683 2 12.7992 14.3848 23.3047
557 2 17.7579 12.582 23.2196
2173 2 16.1052 14.4475 23.192
2685 3 16.0094 12.5183 25.1111
3183 2 17.8013 14.304 24.9251
1684 3 1.98581 16.0137 24.9207
1683 3 2.08024 17.9091 23.1884
2688 3 0.219489 16.0556 23.183
2687 2 0.287482 17.8503 24.9882
2175 1 7.39784 17.9911 25.0834
2174 2 5.43112 17.9041 23.1995
2689 3 3.86108 17.9352 24.9692
3187 1 5.29794 16.0707 24.8932
3186 1 7.07265 16.2826 23.1683
3185 2 3.67401 15.9222 23.1503
1687 2 8.96855 18.1168 23.1599
1686 1 9.09037 16.1372 24.9328
2177 2 10.7725 17.9689 24.9683
3675 2 10.8509 16.0501 23.2455
2178 3 14.3751 17.9623 25.1796
2690 1 12.5975 17.9576 23.2953
3188 2 12.5169 16.1852 25.0162
3676 1 14.4498 16.2464 23.2357
1187 1 17.9187 16.044 23.2224
1186 1 17.9369 18.0075 25.0792
1689 2 15.9911 16.0331 25.1204
3189 1 16.1364 17.8546 23.25
1188 1 0.128058 -0.043042 28.5315
2180 2 2.03897 1.95465 28.4821
2668 1 1.72123 0.0431735 26.7481
3657 1 0.241161 2.15421 26.8418
559 3 7.23874 -0.0501083 28.4627
94 1 7.08103 1.79185 26.7277
1189 1 3.60382 0.0690459 28.354
1666 2 5.3424 0.191069 26.6414
2181 3 5.48903 1.77076 28.5637
2669 1 3.61753 1.8701 26.6869
560 3 10.8665 0.0683151 28.6026
95 2 8.84178 -0.00315613 26.6123
2182 1 8.84597 1.85604 28.5642
2672 1 10.8392 1.91462 26.7707
538 3 14.2553 1.92077 26.6262
1667 1 12.4143 0.0687956 26.7787
2184 2 12.5712 1.7938 28.5061
2183 3 14.2816 0.0879049 28.6606
2159 2 17.8205 1.79511 26.7264
3193 1 16.0419 1.86826 28.5862
3679 3 17.6693 -0.0165865 28.4669
3664 1 16.0082 -0.0197862 26.6345
1168 2 2.1035 3.77874 26.7509
1669 1 1.98772 7.24967 26.7551
2186 3 0.291907 7.2398 28.4855
2185 3 0.18866 3.71508 28.5028
2674 2 0.068875 5.48195 26.6177
3194 1 1.98074 5.44425 28.6165
544 1 3.66526 5.51221 26.6864
563 2 7.2786 7.25683 28.6143
1691 1 7.04188 3.57072 28.406
1690 2 3.75106 3.71585 28.5663
2676 2 7.12941 5.44237 26.7887
3196 1 3.55135 7.37191 28.64
3195 3 5.37455 5.54487 28.7147
3176 1 5.31282 3.69133 26.8431
3174 2 5.4503 7.4458 26.7539
545 3 10.7931 5.42103 26.7684
1171 1 8.87715 3.6386 26.6272
1169 2 9.11811 7.25029 26.8379
2694 3 10.6325 3.65846 28.4693
3197 3 8.98231 5.47656 28.6262
3681 1 10.8076 7.18662 28.6079
104 2 12.5247 3.66386 26.8214
103 1 14.2989 5.47015 26.7796
2695 3 14.4021 3.64991 28.564
3178 3 12.6052 7.09053 26.8609
3684 3 14.3222 7.17923 28.6947
3683 1 12.4818 5.3449 28.3857
622 1 17.8522 3.51638 28.6507
1004 1 17.9585 7.06131 28.5581
1174 3 16.1217 7.24901 26.7238
1173 3 17.7286 5.38531 26.7445
3180 2 16.0921 3.58619 26.8439
3685 1 15.9985 5.32997 28.501
1673 3 0.0435752 9.04008 26.8317
2161 1 1.85543 10.4936 26.7502
2696 3 0.188873 10.8248 28.667
3687 3 1.96803 9.14726 28.5904
122 3 7.20338 10.7127 28.5907