ITEM: TIMESTEP
5000
ITEM: NUMBER OF ATOMS
4000
ITEM: BOX BOUNDS pp pp pp
5.9114014298060624e-02 3.5674945985701441e+01
5.9114014298060624e-02 3.5674945985701441e+01
5.9114014298060624e-02 3.5674945985701441e+01
ITEM: ATOMS id type x y z
1 1 0.107505 2.05045 2.00632
1563 2 0.0193423 0.241652 -0.105583
2064 1 1.8961 1.86279 0.160027
3561 3 1.71124 0.121785 1.76738
564 1 3.56645 1.81386 1.87781
565 3 7.23809 1.82758 2.0235
1565 1 7.07622 0.0579223 0.299587
2065 2 3.6918 0.132959 -0.0983426
3061 3 5.39505 1.94508 0.0665903
3562 2 5.42272 0.126858 1.92806
566 2 10.8919 1.90199 1.86959
1070 3 10.8303 0.168644 0.1049
3063 1 9.10702 0.0290919 1.75921
3062 3 8.99363 1.77962 0.0856811
567 3 14.2704 2.12929 1.93113
2566 3 14.1695 0.00893727 -0.0317099
3064 3 12.5722 1.8072 -0.0263216
3563 3 12.4925 -0.124056 1.71639
2 2 17.9639 0.0678799 0.175395
3 1 15.878 0.171345 1.77326
3066 1 17.7534 1.76069 1.8452
3065 1 15.8803 1.86416 0.166982
4 1 1.95916 5.51712 0.0754518
5 2 1.86033 3.66988 1.81055
6 3 2.02131 7.3467 1.98134
1071 1 -0.0199902 5.58636 2.00105
3067 3 0.0548814 3.58572 -0.0938908
3565 3 -0.0481823 7.19008 0.0117066
7 1 5.22167 5.39866 0.149838
8 3 3.58004 7.23423 0.273345
1072 3 7.09586 5.35291 1.74691
1075 2 5.45668 6.95825 2.08095
1074 1 3.70701 5.35905 1.89429
1567 2 7.24526 7.16226 0.221809
2570 3 7.15382 3.71976 0.140647
2569 3 3.63768 3.65182 0.0566271
3569 2 5.41959 3.5749 1.77657
9 2 8.89169 5.60495 0.134762
10 1 9.08459 3.52503 2.05777
1077 3 10.5213 7.18197 0.181099
1076 3 10.6824 5.48819 1.85247
1568 1 8.74932 7.07129 1.9365
3068 1 10.6497 3.53505 0.0945108
11 1 12.4918 5.59512 0.0550433
12 3 14.1789 3.73204 0.0432983
570 2 12.4781 3.87519 1.77676
1571 1 14.2953 7.56028 0.136546
1570 2 14.2784 5.59007 1.91441
1569 3 12.6057 7.23634 1.8733
572 2 15.986 3.65604 1.74813
1081 1 15.939 7.22432 2.06639
1079 1 17.8483 5.44712 1.97017
1078 3 15.9549 5.59581 0.226168
1573 2 17.807 3.56426 0.122765
2070 3 18.2358 7.39177 0.114109
575 3 2.1215 10.7843 1.83472
1082 3 2.04656 8.96483 0.0439619
1574 1 0.10198 8.99434 1.67073
3070 2 0.237293 10.5914 0.0526659
576 2 3.79122 10.7526 0.0856782
1085 2 5.25506 8.98474 0.0553047
1083 1 5.38058 10.7747 1.71504
1577 2 7.23116 10.8095 0.115962
1576 2 7.17771 8.7918 2.04497
1575 2 4.02639 9.05958 1.92331
14 1 10.7519 10.7484 0.15428
1087 1 8.97835 10.7242 1.85289
1086 1 9.09594 9.29894 0.130355
2071 2 10.6837 8.80791 2.07764
580 3 12.6049 10.6978 1.99333
1088 2 14.2687 10.7598 -0.00857593
2073 2 12.2171 9.0139 0.181049
2074 2 14.3869 9.0275 1.86851
15 2 17.7898 8.93923 1.90222
1581 3 16.1617 10.8283 1.90572
2076 2 17.6344 10.8236 0.196817
2075 1 16.0829 8.99716 -0.107915
2079 2 1.98955 12.3978 0.151857
2078 2 2.07786 14.2382 1.69192
2077 2 0.111459 12.4721 1.85151
2572 1 0.362462 14.1405 -0.0328379
2082 3 5.66774 14.169 1.92062
2081 2 3.7972 12.5541 1.85957
2080 2 5.42923 12.5678 0.157876
2576 2 7.2008 14.2592 0.0254754
2575 1 7.25967 12.6145 1.99004
3071 1 3.77311 14.5834 0.0298603
1583 3 8.84775 14.3832 1.77833
2084 2 10.738 14.1055 0.0933395
2579 1 10.7488 12.7148 1.85432
3073 3 9.01515 12.5044 0.0631949
2085 1 12.6621 14.1348 1.86198
2580 1 14.1821 12.2343 2.0259
3074 1 12.5262 12.5238 0.271908
3574 3 14.4183 14.2808 0.132648
581 2 17.8438 12.5965 1.76863
1089 2 17.8305 14.4443 0.0543419
2583 2 15.8984 14.3655 2.01267
3075 1 15.9682 12.6079 0.174176
16 1 -0.0630596 17.969 0.089018
2086 1 1.83952 18.0121 1.97348
2584 1 0.194874 16.043 1.63903
3076 3 2.00751 15.9473 0.0776208
17 2 5.32149 16.0509 -0.038426
1090 1 3.78561 17.7442 0.1443
2585 2 7.08763 17.8867 0.0253967
3079 1 5.58368 17.7502 1.81027
3078 2 7.23599 16.1947 1.97789
3077 1 3.78086 16.0755 1.87248
18 2 8.83504 16.1126 0.106243
1585 2 10.6453 17.8139 -0.0726563
3080 1 10.8629 16.0271 1.73678
3578 1 9.03233 17.7823 1.708
19 2 12.5649 16.0998 0.0521824
2088 3 14.4314 17.722 -0.0432002
3081 3 14.3136 16.0471 1.88116
3581 3 12.5462 17.8502 1.70325
20 3 16.1676 16.1464 0.0815227
1586 3 17.8074 16.0458 1.80446
3083 1 16.1762 17.9483 2.0401
3082 1 18.1552 17.7964 0.100877
584 3 1.85304 2.00014 7.21829
1564 3 0.0613974 0.115495 3.79633
2588 1 1.89554 0.339184 5.33864
2563 2 1.72614 1.7549 3.41776
3084 2 0.071983 -0.00524103 7.10467
3583 2 0.0147563 1.93312 5.2617
22 3 5.33416 2.01119 7.17169
1069 2 3.5954 -0.132691 3.52782
1566 1 7.16918 -0.00174532 3.66902
2089 3 5.4059 0.100163 5.49583
2590 2 3.56918 0.113643 7.15672
2564 3 5.4324 1.84272 3.75535
3085 1 7.27274 0.302318 7.15576
3585 2 3.53889 1.78397 5.40669
3584 2 7.19876 2.00471 5.43266
586 2 8.88326 1.95395 7.29027
2066 2 10.7079 0.065886 3.66177
2593 1 9.01046 0.264125 5.536
2565 1 9.0057 1.90697 3.68933
3086 3 10.5061 0.263868 7.26779
3586 1 10.6132 1.80191 5.39091
23 2 12.6307 1.71854 7.09389
24 2 14.5693 0.0882285 7.16656
25 1 14.4614 1.87766 5.41675
2568 1 14.3083 -0.0175884 3.62901
2567 3 12.3887 1.74365 3.64132
3087 1 12.5983 0.0262371 5.51125
568 1 17.6943 -0.149937 3.66657
588 1 16.2681 1.75996 7.29553
1587 1 17.8402 0.139896 7.47503
3088 3 16.1371 0.0231919 5.45006
3588 2 17.7942 1.58367 5.51546
3564 3 16.0411 1.76477 3.71489
27 3 1.79206 5.39003 7.19955
28 2 1.89657 7.44209 5.45689
589 3 0.0929116 5.48859 5.26305
2067 1 0.120758 3.83374 3.44696
3090 2 1.8317 3.61123 5.38585
3590 2 0.0105818 7.14479 7.31002
3589 2 0.146765 3.56298 7.2068
3567 2 0.165548 7.2073 3.49024
3566 2 1.91234 5.59889 3.55304
29 1 3.44279 3.6277 7.15286
593 1 3.58876 7.44264 7.15017
592 1 7.1523 5.40561 5.56262
591 2 7.04487 7.28243 7.28249
590 3 3.49962 5.36242 5.4691
1095 2 5.29764 5.6121 7.12404
1094 3 5.21142 7.23687 5.47729
1073 1 3.75734 7.2176 3.69836
2068 2 7.28702 6.89051 3.59711
2069 2 3.55062 3.61191 3.76539
3593 2 5.31748 3.70357 5.50577
3592 1 7.287 3.58446 7.20458
3570 3 5.21651 5.44786 3.82611
3568 1 7.04618 3.7474 3.78736
31 3 8.89851 3.60175 5.47853
569 3 10.7771 6.9865 3.81214
594 2 10.6052 5.38078 5.54414
1097 1 9.04529 5.41642 7.19813
1590 3 8.85603 7.09102 5.4569
1589 3 10.6817 7.13016 7.17813
3594 3 10.7471 3.55631 7.14192
3572 3 10.8786 3.4364 3.78571
3571 2 9.03506 5.27378 3.72461
33 1 12.5717 3.53851 5.53351
35 1 14.3634 3.69377 7.42997
571 3 12.4333 5.28166 3.77289
595 3 14.2603 7.21023 7.13978
1100 2 14.2304 5.36471 5.66206
1099 3 12.5275 5.3786 7.38605
1592 1 12.3906 7.16862 5.58975
1572 3 14.2207 7.07987 3.81348
3069 1 14.2985 3.64787 3.54468
573 3 16.0387 5.36632 3.71023
1080 3 17.8533 3.51258 3.59821
1595 2 16.1504 7.0586 5.48926
1594 1 16.0907 5.35678 7.33634
2094 2 18.038 7.3696 7.1647
2092 2 17.7326 3.54621 7.07219
2571 2 17.8677 7.19362 3.8235
3092 1 17.8338 5.2128 5.38155
3595 2 15.83 3.73396 5.48654
13 3 0.0749843 10.8548 3.56854
597 3 0.199869 10.829 7.4602
596 2 1.99394 10.7621 5.28299
574 3 1.93915 9.01526 3.51636
1102 1 1.94416 8.96178 6.99904
1101 3 0.0276066 9.15357 5.35455
38 1 3.62557 10.6293 7.05495
578 2 3.71697 10.6097 3.56648
577 1 5.57058 9.12682 3.74008
1106 3 7.25585 10.6786 7.18746
1104 1 5.48951 10.7142 5.40181
1103 2 3.64635 8.94246 5.45718
1084 2 7.41013 10.4636 3.73185
1597 3 7.27258 8.71897 5.56961
1596 1 5.39334 9.02439 7.19818
39 2 10.6676 10.784 7.20064
599 1 8.99072 10.6603 5.44323
579 1 10.9094 10.7643 3.71852
1107 2 9.02289 8.94846 7.36627
1578 1 9.01796 8.88986 3.59736
2097 3 10.7519 8.82584 5.39835
1108 2 12.3383 10.8154 5.55238
1598 2 12.5675 8.99862 7.12817
1579 1 12.4397 8.98899 3.68576
2072 3 14.4443 10.7503 3.68509
2099 2 14.195 10.851 7.30645
2098 3 14.1274 8.88175 5.46343
1599 1 16.0548 9.00853 7.13825
1580 1 15.8522 8.83261 3.73943
2100 3 16.0355 10.6896 5.49968
3093 3 17.7037 10.7701 7.31348
3597 1 17.7474 9.04703 5.59859
3573 3 17.9319 10.8192 3.59356
1110 2 0.187387 14.4015 6.94241
1582 3 1.94996 12.5234 3.52691
2103 2 2.03736 12.4372 7.01226
2102 1 1.95113 14.4317 5.51681
2101 3 0.394561 12.4498 5.36812
2573 1 0.315055 14.212 3.47278
1112 3 7.12875 14.1402 7.18385
1600 3 5.42008 12.3005 7.21932
2104 3 5.57982 14.4131 5.26373
2083 2 3.75753 14.4633 3.5797
2601 2 7.38744 12.6141 5.10628
2600 3 3.85317 12.4868 5.44774
2599 2 3.82358 14.2396 7.22932
2577 2 7.32417 14.4437 3.72688
2574 3 5.61647 12.3122 3.63165
2604 2 9.19926 14.485 5.37394
2603 1 10.5734 14.4774 7.26146
2602 1 10.5051 12.4304 5.4652
2578 1 8.93012 12.6666 3.52776
3097 1 8.89014 12.7044 7.23014
3072 2 10.9142 14.2506 3.64547
602 2 14.0666 14.4588 7.2018
1603 1 12.5637 12.6059 7.2367
2605 1 14.1373 12.6722 5.44813
2581 2 12.5082 12.6356 3.85658
3098 2 12.2964 14.2189 5.59691
3575 1 14.3183 14.5357 3.75895
1114 1 17.6502 12.4391 5.45845
1584 3 17.828 14.1357 3.68132
2582 1 16.0963 12.498 3.79587
3100 1 16.0174 14.3004 5.58537
3099 2 15.8639 12.505 7.2592
3599 2 17.9505 14.2678 7.10616
582 2 0.0592533 17.7617 3.60878
1605 1 1.84469 17.9774 5.13927
1604 2 1.96928 16.1185 7.19609
3104 2 0.242628 16.1343 5.41498
3103 1 0.119065 17.7692 7.14707
3576 3 1.93347 16.0727 3.46605
2087 2 3.64793 17.8099 3.23581
2607 1 5.4499 18.1969 5.18545
2586 1 7.3839 17.8912 3.59431
3107 3 7.09633 17.8006 7.13701
3106 3 5.40596 16.07 7.09419
3105 2 3.72577 17.9449 7.04828
3602 3 3.66718 16.0157 5.44662
3601 1 7.26978 16.1905 5.35544
3577 1 5.54656 16.0929 3.58353
1091 1 10.7985 17.8461 3.55922
2107 2 8.96057 16.2415 7.37538
2608 3 8.92696 17.8802 5.41374
3109 1 10.8191 17.942 7.01836
3603 2 10.6671 16.0038 5.38186
3579 3 9.15119 16.0668 3.54907
41 1 14.2027 16.2563 5.376
2610 2 12.5022 17.8379 5.44637
2609 1 14.2574 17.9977 7.25257
2587 2 14.1583 17.7689 3.43806
3604 3 12.5219 16.088 7.24536
3580 3 12.6313 16.0265 3.55661
583 2 16.1807 16.1464 3.65305
1606 3 17.7086 17.8875 7.13921
2109 3 16.0135 16.1603 7.27486
3112 1 16 17.7818 5.47001
3110 1 17.8052 16.0219 5.30128
3582 3 17.7321 17.7484 3.82316
21 3 0.146809 1.7959 9.02831
604 3 -0.0021846 0.286884 10.8342
2110 2 1.83036 1.85935 10.7977
2589 2 2.0487 0.190227 8.97533
585 2 7.15022 1.69708 9.11962
1092 3 5.33053 0.201136 9.24174
1608 3 7.21557 0.177791 10.7989
1607 2 3.47166 -0.0332661 10.7896
2111 3 5.44742 1.86529 10.8805
2591 1 3.66783 1.95837 9.09966
1116 3 11.036 0.0594683 10.8119
2612 3 9.03417 1.86338 10.8418
2592 3 10.7327 1.84235 8.87602
3587 1 9.00689 0.291785 8.98737
587 2 14.3996 1.87211 9.13013
1609 1 14.0597 -0.125193 10.9746
2090 3 12.6183 0.0789966 8.91991
2613 1 12.5606 1.80717 10.5833
26 3 16.0392 0.0515284 9.06729
2594 1 17.9307 1.80414 9.05237
3116 3 15.8591 1.86138 10.8424
3115 3 17.7561 -0.206953 10.7513
1093 1 1.8552 7.27219 8.96521
2091 2 1.81735 3.70893 8.97072
2615 1 -0.0732945 3.53031 10.7071
3118 2 0.385072 7.20238 10.7848
3117 2 1.82193 5.33547 10.8754
3089 1 0.00929489 5.49496 8.98571
30 3 5.51478 3.52776 9.06334
45 1 6.99212 7.18167 10.6553
1096 1 3.56825 5.36293 8.94548
2112 3 7.2503 3.48664 10.7479
2616 1 3.56354 3.55991 10.7071
3091 2 7.12095 5.46044 8.73797
3608 3 3.63791 6.91194 10.9132
3607 1 5.51407 5.14867 10.7305
3591 2 5.3371 7.06655 9.10965
46 3 10.7695 7.20009 10.7988
1098 1 10.8504 5.34123 9.27281
1591 2 8.90086 3.71922 8.97588
1588 3 8.99415 7.20462 9.06592
2113 3 10.693 3.71855 10.7764
3609 2 8.81927 5.24962 10.721
32 3 12.4443 7.08789 9.12223
34 2 12.4066 3.66531 8.94219
36 1 14.156 5.37174 9.02434
609 1 14.2826 7.11841 10.716
3119 3 14.2301 3.65588 10.6216
3611 2 12.5964 5.33312 10.7954
1120 3 17.8969 3.39895 10.7873
1615 1 17.982 7.01401 10.7804
1593 2 17.9129 5.25628 8.92896
2093 3 16.0621 7.20971 8.89986
2595 2 16.0523 3.67016 9.14753
3612 2 16.0408 5.39962 10.7164
48 1 1.97884 9.07741 10.7646
2095 2 0.273291 8.90991 9.16199
2596 3 1.99371 10.8228 9.0219
3120 1 0.0720441 10.7873 10.7154
37 1 3.58315 8.86237 9.15202
49 2 5.46762 9.03893 10.9455
612 1 7.16323 10.8608 10.6136
1105 3 5.23949 10.6643 8.94009
2096 2 6.89528 9.18876 8.93319
3121 2 3.586 10.7897 10.9157
613 1 8.87465 8.83194 10.8535
598 3 10.899 8.9417 9.01804
3613 2 10.9052 10.7144 10.8241
3596 3 9.14512 10.7317 9.20452
50 2 14.1052 10.9358 10.8621
614 1 12.711 9.15584 10.8214
2598 1 12.4103 10.7563 8.92385
2597 1 14.1507 8.99527 9.01893
51 2 17.897 10.675 10.7726
600 1 17.697 8.99427 8.75568
1122 2 15.9263 8.92856 10.6454
1109 2 16.0176 10.7839 9.02223
616 3 0.0921358 14.3145 10.6955
601 1 0.252607 12.6969 9.05853
1123 2 1.95839 12.5956 10.8477
3094 1 1.87512 14.3068 8.82851
1124 1 5.27889 12.5797 10.5753
1111 1 5.26099 14.3705 8.88339
1619 3 7.22561 14.3688 10.6422
1618 2 3.55733 14.3279 10.7295
1601 1 7.21619 12.4997 9.01292
3095 3 3.6112 12.5594 8.84386
617 3 10.6822 14.3723 10.7856
1125 1 8.93977 12.555 10.6837
3096 2 8.80389 14.4483 8.94192
3598 3 10.575 12.6323 9.1055
1126 1 14.2624 14.5993 10.7856
1113 2 12.4973 14.3863 9.05198
1620 3 12.3831 12.5896 10.5393
1602 1 14.2719 12.4623 9.01726
1621 1 16.1665 12.6982 10.8148
3126 1 17.9872 14.5001 10.6457
3102 3 15.971 14.4036 8.94353
3101 2 17.9498 12.5525 8.92552
1623 3 0.13185 17.7727 10.6198
2119 3 1.86561 16.1203 10.8288
2606 2 1.7915 17.8826 8.93152
3600 2 0.300095 16.0657 8.90248
40 1 7.12139 16.2529 9.17067
619 3 3.69589 18.0642 10.7918
1127 2 7.16589 17.9745 10.7122
2120 1 5.42059 16.1328 10.5656
2106 2 3.57866 16.256 9.00316
2105 3 5.35092 18.0156 8.91142
1624 3 10.6355 18.0377 10.7241
2108 2 10.6682 16.0852 8.94642
2625 2 8.90013 16.0686 10.6262
3108 1 8.89574 18.1692 9.03987
603 2 14.3537 16.2536 9.17934
1115 2 12.525 17.8137 8.98625
2626 2 12.4164 16.0685 10.8122
3620 2 14.3099 17.776 10.8598
2628 1 16.0428 16.2243 10.6959
2611 1 17.9564 16.0409 8.93628
3127 3 17.8839 17.8205 10.6759
3111 1 16.0732 18.163 8.88136
42 1 0.182746 2.01887 12.4853
2121 2 0.115311 -0.0721475 14.2562
2629 2 1.84258 1.94164 14.2994
3113 2 1.70488 0.0568036 12.525
43 1 3.65716 1.88989 12.5164
605 1 7.49381 1.867 12.6549
1625 3 7.3033 0.0947279 14.2692
2123 3 3.44662 0.115763 14.439
3128 1 5.42385 1.62264 14.2616
3605 3 5.35211 -0.0170741 12.5055
606 3 10.7453 1.98714 12.613
1627 3 10.7772 0.179443 14.3282
3129 2 9.06578 1.72033 14.422
3606 2 9.03712 0.0739789 12.6001
1117 1 14.209 1.7695 12.6197
2632 1 14.3311 -0.0228435 14.2432
3131 1 12.643 1.7361 14.3086
3114 2 12.4391 0.0329189 12.5684
44 3 16.0777 0.0221419 12.2549
501 1 17.8766 -0.0201642 14.3084
2614 2 17.9433 1.76115 12.6324
3132 1 16.2096 1.9701 14.4233
607 1 1.86161 3.74509 12.5757
1119 2 1.90292 7.11651 12.7766
1118 2 0.198156 5.38717 12.551
2634 3 0.0517816 7.14202 14.4414
2633 2 0.0181274 3.65483 14.1893
3624 1 1.74361 5.43903 14.251
60 1 7.03281 7.30736 14.2963
608 1 5.51025 3.45672 12.6227
1612 2 7.12342 5.47835 12.6447
1611 2 5.44384 7.22349 12.5046
1610 2 3.7074 5.10187 12.5547
2128 3 7.29524 3.60616 14.3902
2126 3 3.75951 3.65287 14.47
3136 1 3.73784 7.22917 14.4593
3626 2 5.25047 5.4175 14.4371
1613 3 10.8597 5.51196 12.6873
2114 1 8.75384 7.20254 12.436
3137 3 10.9127 3.72339 14.3906
3629 2 8.86495 5.57047 14.2145
3628 1 10.7672 7.10771 14.3546
3610 3 8.98064 3.68562 12.7166
610 2 12.4281 3.61615 12.5067
1614 3 14.3683 5.46822 12.5879
2617 1 12.885 7.35737 12.5089
3138 3 14.2174 3.65186 14.2568
3631 3 14.2963 7.12221 14.2989
3630 2 12.6263 5.51654 14.3901
47 1 17.7514 5.3542 12.6328
65 1 16.1779 5.31143 14.2476
1138 2 18.0418 3.49378 14.3679
1121 3 16.2137 3.67617 12.4906
2618 3 15.9553 7.1998 12.5825
3140 3 18.0172 7.25801 14.1492
67 1 1.84068 8.80783 14.3358
611 1 1.91285 10.6041 12.8216
2115 3 0.162919 8.86445 12.4801
2636 1 0.009424 10.7566 14.2176
69 3 7.19354 10.8758 14.4009
70 2 5.34456 9.11722 14.4042
1616 1 5.48379 10.9502 12.4338
2116 2 3.78658 8.86763 12.6016
2619 1 7.24183 9.07341 12.3924
3633 3 3.6967 10.8914 14.4135
71 3 8.93571 8.83808 14.2974
2117 3 8.83901 10.8753 12.7053
2620 3 10.7528 8.93461 12.5785
3141 3 10.841 10.828 14.3766
510 2 12.4883 9.18681 14.5104
1617 3 12.4649 10.9749 12.6353
3122 2 14.2413 9.34595 12.5847
3635 2 14.3265 10.8296 14.2732
511 3 16.0351 8.94134 14.3324
615 3 17.8596 8.92985 12.5124
1639 1 17.7801 10.7693 14.3119
2118 1 15.9893 10.6818 12.2194
513 3 0.0262619 14.3748 14.5192
514 1 1.90575 12.638 14.301
2621 2 0.213286 12.54 12.6533
3123 3 1.79576 14.3057 12.6244
72 3 7.12139 14.4929 14.2947
515 1 5.60898 12.634 14.4745
516 3 3.86356 14.2286 14.2618
3125 3 7.16785 12.636 12.5272
3124 1 3.61173 12.6421 12.6661
3614 3 5.45395 14.4805 12.477
73 2 10.882 14.2876 14.2995
1145 1 8.78473 12.5687 14.6083
3616 2 10.6909 12.5138 12.7083
3615 3 8.95672 14.2594 12.6478
1147 2 12.6006 12.5892 14.3777
1146 1 14.3448 14.2871 14.3202
2622 3 12.6617 14.2853 12.5375
3617 2 14.3773 12.7391 12.3152
1149 3 15.8703 12.4931 14.2609
1622 3 17.9391 12.456 12.3411
3146 2 17.666 14.4298 14.3012
3618 2 16.0312 14.4722 12.5215
52 1 -0.0482347 16.0036 12.6799
518 3 -0.0774219 18.1205 14.1497
1150 1 1.76064 16.2236 14.3384
2623 3 1.73783 17.9363 12.5954
53 3 3.63084 16.1731 12.469
618 2 7.37967 16.3306 12.4645
1151 2 3.55555 18.1236 14.2887
1642 1 5.35851 16.3375 14.2794
2142 2 7.16394 18.0846 14.5273
2624 3 5.40739 18.1729 12.5448
54 3 10.7355 16.0576 12.5979
1643 3 8.97563 16.1052 14.3336
2649 2 10.8128 18.0303 14.2183
3619 2 9.11862 18.1263 12.7074
55 2 12.5722 18.0597 12.6194
620 2 14.1452 16.2177 12.4671
1646 1 12.544 16.1341 14.2676
1644 3 14.2286 18.0141 14.2567
56 1 16.1507 17.9013 12.5149
1647 1 15.8979 16.0143 14.3046
2627 3 17.7919 16.0754 12.4499
3644 2 17.8488 17.881 14.3205
57 3 1.88871 0.0436226 16.3195
621 3 0.108847 1.80658 16.1295
1128 3 -0.0196251 -0.0161875 18.1472
2122 3 1.97538 1.87289 17.9265
58 2 5.3641 -0.0311629 16.029
1132 3 7.27409 0.041206 17.6783
1131 1 7.11369 1.94472 16.0214
1130 2 3.56475 -0.0289634 18.0485
1129 1 3.45094 1.85653 16.1205
2630 1 5.29451 1.7303 17.9039
1133 3 10.9816 1.71226 16.1547
1626 3 10.7228 -0.0811526 17.9889
2631 3 9.0437 1.9346 17.8747
3621 3 9.24765 -0.0014955 15.9724
59 3 12.4715 -0.0121177 16.2208
1134 2 14.1768 1.83372 15.8089
2124 2 14.2823 0.0402163 17.7313
3130 2 12.6402 1.77219 18.0114
502 3 16.0322 0.0419421 15.9878
3133 3 16.0682 1.87165 17.9435
3623 2 17.9918 -0.167599 17.7151
3622 2 17.9795 1.77595 15.9694
503 2 1.80788 3.49237 16.2316
504 2 1.90056 7.09272 16.0537
1628 3 0.160749 5.42821 16.0997
2125 3 0.124648 3.57896 17.8918
3134 2 0.261515 7.21292 17.7943
3625 1 1.97389 5.24946 17.922
61 1 5.60468 3.69187 16.0473
505 1 3.7864 7.11118 17.7081
1135 1 7.53162 7.38713 17.8997
1631 1 5.49863 7.24129 16.1986
1630 3 3.57076 5.25048 16.2151
1629 2 7.35727 5.50234 15.9771
2127 1 3.85491 3.5474 17.9612
3135 1 7.36027 3.62489 17.9326
3627 3 5.59974 5.41002 17.8002
62 2 9.09271 5.26172 17.8108
63 1 10.668 7.32056 17.8052
506 3 9.1159 3.55709 16.064
1632 2 10.7095 5.4802 16.0069
2129 3 8.99294 7.15847 16.0755
2635 3 10.8505 3.47759 18.0368
64 2 12.7363 5.31241 17.6333
1137 2 14.3851 7.22571 17.9064
1136 2 12.4961 3.45117 16.1469
2131 3 14.4393 5.43811 16.0549
2130 2 12.5332 7.33798 16.1801
3139 1 14.169 3.47283 17.8445
66 3 17.8786 5.44088 16.0237
507 2 16.06 5.26296 17.7858
1140 3 17.8955 3.43908 17.8275
1139 1 16.1341 3.71109 16.032
1634 2 17.9725 7.14814 17.8449
1633 2 16.2838 7.19976 16.0853
508 1 1.7303 8.97077 17.7727
1141 1 1.96844 10.8631 16.1982
2132 2 0.00406098 9.03338 15.9105
3632 3 0.0345005 10.6962 17.7528
68 1 3.68568 10.7853 18.0255
509 2 7.26652 10.9268 17.9833
1142 3 5.43563 8.9717 17.7238
1635 3 5.45908 10.8789 16.2507
2134 3 7.3153 8.98506 16.0801
2133 3 3.63212 9.05148 15.9348
1143 2 8.95894 9.05607 18.0149
1636 2 8.941 10.8171 15.9891
2637 1 10.7855 9.078 16.2474
3634 1 11.0254 10.6617 17.84
1144 2 12.7068 10.6118 16.1148
1638 1 12.7579 8.91529 17.9422
1637 1 14.5654 10.7709 17.7861
2638 3 14.3366 8.96078 16.0258
512 1 17.936 8.96772 16.0681
1640 3 16.2549 9.08176 17.6877
2135 1 16.12 10.8392 15.9755
2639 1 17.7765 11.11 17.94
2137 1 -0.014882 14.419 17.8432
2136 2 1.92562 12.5005 17.9347
2641 3 1.84357 14.5414 16.0298
2640 1 0.296147 12.4625 16.1909
2140 1 7.23779 14.4468 17.9437
2139 1 3.67502 14.2953 17.9609
2138 3 5.52561 12.6061 18.1704
2643 1 5.55181 14.529 16.248
2642 3 3.82208 12.7302 16.0231
3142 2 7.14032 12.625 16.2133
2141 2 8.87318 14.3953 16.1428
2645 3 9.22723 12.476 17.9775
2644 1 10.8491 14.2581 17.7989
3143 3 10.7167 12.5321 15.9454
2647 2 12.6613 14.3298 16.1213
2646 3 12.594 12.5149 17.8826
3145 3 14.3478 14.4717 17.7652
3144 2 14.2902 12.6016 16.212
517 3 17.9081 14.3602 17.8203
1148 2 17.6151 12.6107 16.0693
3148 1 16.1202 14.2679 16.1022
3147 2 16.1345 12.6163 17.8727
2648 2 1.75558 17.983 15.9117
3150 3 1.83478 16.1592 17.7081
3149 3 0.0458415 16.4713 16.1389
3636 3 0.0602744 17.9752 17.8723
1641 3 3.66835 18.0019 17.8799
2143 1 7.37156 17.9235 18.0275
3640 1 5.48604 18.0967 16.1588
3639 1 7.36695 16.0902 16.1021
3638 1 5.3692 16.1174 17.9949
3637 1 3.71338 16.2866 15.7947
74 1 8.86204 18.1679 16.2161
519 2 10.9379 17.8398 17.9142
3642 2 9.11746 16.3189 17.7694
3641 3 10.7516 15.9507 15.9387
75 3 12.5351 16.106 17.9602
76 1 12.4805 17.861 16.1087
1645 1 14.3028 17.8568 17.9711
3643 2 14.1851 16.1192 16.0183
77 2 16.0414 15.9679 17.734
2144 1 17.6166 16.2444 16.0196
2650 2 17.5027 17.7616 17.7506
3645 2 15.8933 17.7402 16.0237
520 3 -0.146263 0.130002 21.4364
78 2 -0.210652 1.8342 19.6351
2145 2 1.71034 1.85262 21.3647
3151 3 1.80464 0.00602171 19.6899
521 1 3.8433 0.117897 21.2925
80 1 3.50825 1.83693 19.5571
79 3 7.29107 1.76546 19.5769
2147 2 5.73161 1.96132 21.4766
2146 1 7.21243 -0.0943943 21.3708
2651 1 5.42638 0.0757486 19.6958
81 1 10.7924 1.68885 19.7801
1648 2 10.9037 -0.0930271 21.4937
2652 2 9.01458 1.7631 21.3443
3152 2 9.06488 -0.00822371 19.4365
522 2 14.2796 1.80439 19.6321
1649 1 13.8417 0.0812938 21.6328
2653 2 12.5407 1.85532 21.4007
3646 3 12.5957 -0.18857 19.6944
82 3 17.8059 -0.029444 21.6124
2654 1 17.8545 1.69828 19.6693
3153 1 16.0236 1.75769 21.3796
3647 1 16.1212 0.168901 19.7335
523 3 0.0672849 5.43405 19.3454
84 3 1.83899 7.13855 19.4218
83 3 0.00783281 7.14618 21.1957
1650 3 -0.261651 3.601 21.3317
3155 2 1.99527 5.31045 21.3934
3154 3 1.67407 3.65438 19.7462
524 1 3.55013 5.29227 19.6156
525 2 7.31021 5.57336 19.7883
526 2 3.61116 7.12906 21.4468
1153 2 7.25585 7.23938 21.4889
1152 2 5.51351 7.17439 19.4793
2655 3 3.77062 3.57414 21.3328
3156 1 7.40129 3.79735 21.3514
3649 1 5.76981 3.75928 19.58
3648 3 5.43844 5.43718 21.198
86 3 10.8317 7.22761 21.3056
85 1 9.03865 3.60681 19.635
1155 3 10.8334 5.37085 19.4984
1154 2 8.92084 7.23431 19.5185
2656 1 10.4993 3.59964 21.4359
3650 3 8.9911 5.53859 21.2846
527 3 12.5451 7.03745 19.5634
88 3 12.4734 5.31639 21.3143
87 2 12.4887 3.42293 19.6729
1156 3 14.3735 5.34911 19.7184
2148 1 14.6176 6.91169 21.3263
2657 3 14.2262 3.58794 21.4668
528 2 17.8014 3.43443 21.245
89 1 16.2013 5.26652 21.441
1157 2 16.3314 7.57683 19.6475
3158 3 17.8232 5.33759 19.5899
3157 1 17.9125 7.2484 21.4656
3651 1 16.068 3.46848 19.5666
529 2 1.82926 8.99926 21.4463
530 1 1.91317 10.6152 19.3334
1158 2 0.107083 9.0292 19.4747
3652 2 -0.00776108 10.6321 21.2949
531 3 5.38343 9.01623 21.2996
532 2 5.33845 10.6981 19.5116
533 2 7.29048 10.7349 21.4601
1159 3 3.61034 8.83848 19.6364
1651 1 7.14735 8.99168 19.7237
3653 1 3.59295 10.7699 21.2869
90 3 9.02797 10.8509 19.7678
1161 1 9.05122 8.8615 21.4497
1160 2 10.7015 10.5418 21.497
1652 3 10.7181 8.95089 19.5786
534 3 12.6588 10.9324 19.5476
1162 1 12.5887 8.95246 21.2797
1654 3 14.3717 10.7474 21.3324
1653 2 14.318 8.87906 19.7452
1656 3 16.2618 10.6799 19.7582
1655 2 16.2072 9.06324 21.5329
3159 3 18.0936 10.5139 21.5283
3654 1 18.0362 9.18726 19.5145
1660 2 -0.0587718 14.4747 21.0741
1659 1 1.96874 14.2434 19.7098
1658 1 1.68701 12.4868 21.1971
1657 1 -0.0813373 12.5587 19.6067
1163 1 5.15344 14.4269 19.8277
1661 2 3.48039 14.0615 21.5322
2151 1 7.35114 12.4487 19.8128
2150 3 5.52517 12.4621 21.6028
2149 2 3.71126 12.4474 19.8279
3160 2 7.17195 14.3209 21.5665
1662 3 9.00739 14.3462 19.6053
2153 1 9.10681 12.6062 21.5451
2152 1 10.7567 12.3999 19.8012
2658 1 10.8581 14.3496 21.2313
2155 3 14.3583 12.5722 19.591
2154 2 12.5565 14.2025 19.6373
2660 1 14.2518 14.0698 21.4927
2659 3 12.4683 12.5313 21.464
535 2 18.0905 12.3471 19.759
1164 3 17.8264 14.4534 21.4353
2156 1 16.1494 14.1666 19.591
2661 1 16.3496 12.2426 21.2803
1165 2 -0.0838254 17.8262 21.4622
2157 1 1.90045 17.8875 19.6909
2662 3 0.209659 16.2262 19.6391
3161 2 1.77904 16.0491 21.4957
1664 2 6.97299 17.718 21.4676
1663 1 3.69492 17.6806 21.5306
2664 2 3.34064 16.1686 19.6173
2663 3 7.26723 16.0439 19.6272
3163 1 5.3749 16.1775 21.4935
3162 1 5.29808 17.7379 19.6914
536 3 10.9518 18.0524 21.6133
2665 3 10.9097 16.1038 19.6224
3164 3 9.05924 17.6883 19.9143
3655 2 8.98162 16.2858 21.6615
2666 2 12.5164 17.9407 19.5636
3166 3 14.4341 16.0722 19.7071
3165 2 14.3038 17.8389 21.5497
3656 3 12.619 15.9816 21.5369
92 3 15.9649 16.1336 21.4648
91 1 17.9591 17.9169 21.4266
1166 1 17.9618 16.0374 19.6213
3167 1 16.1053 17.8578 19.5894
93 2 1.75421 1.90272 25.002
1665 3 1.93928 0.24734 23.1483
2667 1 -0.0298927 0.0845769 24.8775
3168 1 0.00777482 1.94415 23.078
2158 1 5.64486 0.0268016 23.2239
2670 1 3.87311 0.0944772 25.0132
3170 1 7.27823 1.72083 23.1942
3169 3 3.59715 1.88244 23.145
3659 1 7.23876 0.0466504 25.0682
3658 2 5.41969 1.93246 24.9432
537 3 8.9317 1.68819 25.0109
2671 1 9.09108 0.0419027 23.0537
3171 3 10.7472 0.00478185 25.2133
3660 2 10.7079 1.8899 23.2576
2673 3 12.4131 0.111166 23.4575
3663 1 14.3327 1.83231 23.2213
3662 1 14.2706 0.0417218 24.9058
3661 2 12.4499 1.77766 25.0765
539 1 15.7589 1.94673 25.1337
1167 2 17.7771 0.0209083 25.1375
1668 3 17.8133 1.76194 23.5702
2160 1 16.1215 0.000134248 23.3992
99 3 1.90535 5.28707 24.6624
98 2 1.75344 7.14624 22.9478
97 2 0.129757 7.03269 24.715
96 1 -0.169616 5.45223 23.0295
3173 1 1.70271 3.52508 23.0023
3172 2 0.0263418 3.72876 24.9069
540 2 3.67414 7.31318 24.8806
541 3 5.54092 7.30631 23.2403
542 2 7.11787 5.60305 23.3222
543 1 5.40103 5.61975 24.933
101 2 7.28741 7.11872 25.0547
100 2 3.6472 5.30821 23.0308
2675 3 7.20466 3.68032 24.9913
3175 2 3.60242 3.71062 24.88
3665 2 5.53479 3.5473 23.2493
546 2 9.13189 7.04943 22.9905
547 1 8.90794 5.47476 24.8579
102 2 10.9301 5.4183 23.0515
1170 2 10.8389 7.19669 24.8824
3177 3 10.6508 3.51213 25.068
3666 2 8.84022 3.67433 23.33
548 1 14.1344 5.31293 23.4272
549 2 12.3777 5.32452 25.138
105 2 14.1876 3.57274 25.1727
1670 1 12.5659 7.02504 23.1181
3179 2 12.5069 3.63766 23.182
3667 1 14.464 7.0551 25.2153
1172 1 16.0873 5.2581 24.9251
1672 3 17.9419 3.55659 25.1028
1671 3 16.1445 7.03144 23.4057
2678 3 17.8548 7.04436 25.189
2677 2 17.9184 5.13164 23.1461
3668 2 16.028 3.53979 23.2967
550 1 0.151434 9.00542 23.231
106 3 1.87004 10.795 23.2003
1175 2 1.7086 9.00158 24.9177
3669 1 0.133774 10.6549 25.0646
108 1 5.41569 10.6234 23.2002
1180 3 7.12206 10.7313 25.0385
1178 3 7.35375 8.84805 23.2171
1177 1 3.46699 8.93796 23.306
1176 3 5.21184 8.84364 25.2114
3670 2 3.59601 10.7323 24.9122
551 2 10.9485 10.7507 24.8184
552 1 8.8748 10.8303 23.1484
1181 1 9.05942 8.89077 24.9569
1674 2 10.7977 8.92383 23.1777
1182 3 12.4399 10.6291 23.0462
1676 2 12.5233 8.85764 25.0807
1675 3 14.2752 8.86755 23.1466
2163 3 14.0738 10.7083 25.0102
1183 1 15.9441 8.83685 25.0645
1677 2 16.0989 10.527 23.4431
2165 1 17.8501 10.762 25.0928
3671 1 17.8413 8.8725 23.2315
555 2 0.00160068 14.0497 24.8796
1184 1 1.70056 14.1712 23.2318
1678 2 1.48233 12.3771 24.9455
2166 2 0.0373189 12.5657 22.9416
113 1 7.07798 14.3155 25.2043
1185 3 5.39658 12.3203 25.0716
2170 1 5.56382 14.1587 23.2012
2169 3 3.52498 12.2297 23.2759
2168 3 3.43477 14.2241 24.9756
2167 1 7.39869 12.3472 23.2729
1680 3 10.7011 14.4025 24.8725
2171 1 10.7814 12.5394 22.9719
2682 3 9.10275 14.4267 23.3222
2681 3 9.02224 12.7835 24.9227
114 3 14.1471 14.2457 24.7992
1681 1 12.4274 12.5126 25.1349
2684 2 14.375 12.3472 23.2007
2683 2 12.4513 14.336 23.2442
557 2 17.9833 12.5018 23.1697
2173 3 16.1661 14.1269 23.1275
2685 2 15.9194 12.5626 25.0505
3183 2 17.8712 14.1919 25.0265
1684 1 1.90292 16.0914 24.6315
1683 1 1.91542 17.9057 23.1285
2688 2 0.0900648 15.8922 23.1659
2687 2 0.205265 17.9421 24.7582
2175 1 7.22873 17.9861 24.9681
2174 2 5.33379 18.036 23.2733
2689 3 3.60507 17.9785 24.878
3187 1 5.48827 16.2109 24.8724
3186 3 7.15431 16.0407 23.2743
3185 3 3.72663 15.9066 23.2473
1687 2 8.98125 17.9524 23.4196
1686 1 8.96094 16.2561 25.1303
2177 3 10.7122 18.057 24.9181
3675 3 10.9736 16.2222 23.19
2178 2 14.2775 18.02 25.1081
2690 3 12.5462 18.0995 23.3419
3188 1 12.4986 16.0685 24.8618
3676 2 14.3327 16.1047 23.2472
1187 2 17.7869 16.1504 23.0048
1186 2 17.6553 17.6595 25.0493
1689 2 16.0852 15.9477 24.763
3189 2 16.1225 17.9067 23.0867
1188 3 -0.00773849 0.0568467 28.5726
2180 3 1.79141 1.75154 28.5599
2668 1 1.58738 -0.0110477 26.7817
3657 2 -0.0106376 1.87573 26.533
559 2 7.19591 0.128492 28.5423
94 3 7.14122 1.83008 26.7544
1189 1 3.5958 -0.00656445 28.3596
1666 2 5.39502 0.233214 26.7749
2181 1 5.41789 1.94749 28.6243
2669 3 3.50167 1.83185 26.6708
560 1 10.4717 0.0845493 28.5407
95 3 8.90508 -0.0500089 26.8743
2182 3 8.86957 1.87055 28.606
2672 2 10.7565 1.82793 26.9863
538 2 14.2432 1.77761 26.7871
1667 3 12.5173 0.194849 26.8092
2184 1 12.705 1.87441 28.7632
2183 3 14.3981 0.158265 28.6582
2159 3 17.6205 1.92932 26.8691
3193 2 16.0276 1.80438 28.6345
3679 2 17.8451 0.0488746 28.4873
3664 1 16.0782 0.223311 26.7859
1168 1 1.62265 3.52541 26.6821
1669 1 1.63758 7.25164 26.6005
2186 1 0.0856887 7.16487 28.5527
2185 2 0.0476843 3.39221 28.5432
2674 1 0.161208 5.53995 26.8044
3194 2 1.84497 5.21169 28.2747
544 1 3.50696 5.39323 26.5479
563 2 7.1297 7.12594 28.4936
1691 3 7.10444 3.73127 28.5387
1690 3 3.6734 3.52406 28.4157
2676 2 7.03562 5.47825 26.9248
3196 2 3.34389 7.34117 28.4313
3195 1 5.08799 5.42098 28.4215
3176 3 5.2907 3.76279 26.6226
3174 2 5.25054 7.17811 26.5641
545 2 10.6459 5.27943 26.9007
1171 2 9.03382 3.43802 26.8118
1169 2 9.06231 7.2492 26.7423
2694 2 10.7831 3.6143 28.7188
3197 2 8.91673 5.39 28.6799
3681 1 10.7658 7.02481 28.4329
104 2 12.3763 3.55595 26.8044
103 2 14.1441 5.35411 26.725
2695 1 14.1096 3.61719 28.7214
3178 2 12.5633 7.29092 26.8614
3684 2 14.4438 7.17854 28.6796
3683 2 12.6189 5.33414 28.4383
622 1 17.8909 3.6362 28.7523
1004 3 17.8414 7.18948 28.6895
1174 3 15.9822 7.06729 26.8114
1173 2 18.0132 5.46289 26.8808
3180 1 15.7692 3.58964 27.0578
3685 1 16.0386 5.19473 28.7556
1673 3 -0.0438885 8.98165 26.8462
2161 3 1.81745 10.6893 26.6846