ITEM: TIMESTEP
5000
ITEM: NUMBER OF ATOMS
4000
ITEM: BOX BOUNDS pp pp pp
1.0584471269521600e-01 3.5628215287304513e+01
1.0584471269521600e-01 3.5628215287304513e+01
1.0584471269521600e-01 3.5628215287304513e+01
ITEM: ATOMS id type x y z
563 3 0.218556 0.197736 0.0212737
1064 3 2.01439 1.62376 -0.01853
1563 1 1.92172 -0.02959 1.79794
2064 3 0.264014 1.89113 1.62619
1 1 3.69277 1.72267 1.78613
565 3 7.14843 -0.065885 0.193671
2065 2 7.04237 1.89138 1.91047
2565 3 3.87663 0.0595078 0.0421994
3064 3 5.53076 1.70514 0.106845
3564 2 5.4656 -0.00112112 1.86666
2 2 10.7873 1.77032 1.90892
1066 2 8.84508 1.87339 0.12699
1564 2 8.93885 -0.030247 1.96036
2566 3 10.7611 -0.0392576 0.0969032
567 2 14.1937 0.0259383 -0.0235463
2066 1 14.1874 1.79952 1.65981
3066 2 12.4549 1.80196 -0.117023
3565 3 12.4226 -0.0908736 1.8536
751 1 18.0833 0.380288 0.0549138
1068 2 15.8923 1.88192 -0.151592
1565 3 15.9557 0.232749 1.52134
2001 3 17.9072 1.86569 2.04202
3 3 0.221019 5.30727 1.73652
573 3 0.0856786 7.30243 0.129057
1568 3 1.94737 7.35682 1.72188
2569 2 -0.0628513 3.74262 0.175433
3068 1 2.12325 5.42035 -0.162786
3566 1 1.98356 3.74755 1.74245
4 1 7.25555 5.21697 1.84923
569 3 3.75297 3.41959 -0.0450394
577 2 7.24315 7.17831 0.114705
1070 1 5.28485 5.42813 -0.0629526
1566 1 5.28077 3.78533 1.92541
2067 2 3.62636 5.38302 1.94048
2576 3 3.61153 7.33865 0.213813
2571 2 6.98789 3.61002 0.146716
3570 3 5.35581 7.15966 1.93236
570 2 10.619 3.60711 0.173509
1570 3 8.90937 7.10069 1.87399
2068 1 10.6507 5.24478 1.91847
2578 2 10.7262 7.27309 0.168377
3070 2 9.0463 5.22013 0.107559
3567 2 8.97211 3.51701 1.75484
5 2 14.1934 5.48814 1.74719
581 3 14.2248 7.03698 0.0323865
1072 1 12.4145 5.48558 -0.0524177
1567 2 12.4139 3.54358 1.65226
2573 2 14.1753 3.52843 -0.0652381
3572 3 12.5436 7.27507 1.91378
253 1 17.7839 5.30544 1.75182
761 2 17.8852 7.09985 0.0295457
1572 3 16.1339 7.20354 1.93073
2819 1 17.9163 3.61065 0.00254267
3072 3 16.1455 5.38775 -0.0518982
3568 3 15.927 3.54335 1.76081
1074 2 1.87018 9.10948 0.0729507
2069 1 0.171514 8.9177 2.02488
2574 1 0.148535 10.6359 0.0949385
3569 2 1.75036 10.6957 1.91549
6 1 3.56588 9.12006 1.74488
575 3 3.63228 10.6351 0.0313318
1569 3 5.31712 10.7879 1.84517
2070 1 7.39566 9.15425 1.79491
2579 2 7.23292 10.8351 0.111966
3074 3 5.48878 8.94951 0.128353
7 1 10.6358 8.86953 1.88651
578 3 10.7241 10.8028 0.164583
1076 2 8.99564 9.07738 0.096258
3571 2 8.94548 10.8298 1.78992
1571 2 12.5229 10.6017 1.92593
2071 1 14.3693 8.81267 1.79782
2582 3 14.3315 10.7012 0.144991
3076 3 12.4728 8.97964 0.0269499
1078 1 16.2326 8.95577 0.059022
2006 1 18.178 8.92294 1.98758
2825 2 17.7987 10.6499 0.319901
3573 1 16.1501 10.5713 1.9624
8 1 0.120157 12.7686 1.9779
583 2 -0.0206746 14.3628 0.024628
1573 1 1.84447 14.377 1.67322
3078 1 1.86334 12.6878 -0.0156205
9 1 7.02357 12.661 1.73427
585 1 7.2531 14.2558 0.0578729
1080 1 5.3754 12.4628 -0.011273
2072 3 3.62432 12.7591 1.76304
2585 2 3.56432 14.4212 -0.0273509
3574 1 5.32504 14.3434 1.75631
1574 3 9.03903 14.3761 1.89519
2073 2 10.7411 12.4503 1.92432
2586 1 10.6465 14.325 -0.202334
3080 1 8.88974 12.4993 0.15512
10 3 14.2758 12.4853 2.06839
587 1 14.2286 14.0895 0.296691
1082 3 12.5013 12.5605 0.119181
3575 1 12.4469 14.43 2.01659
258 2 17.7904 12.3702 1.91342
771 2 18.1312 14.3358 0.214343
1575 3 16.1052 14.1656 1.92141
3082 1 16.2617 12.4269 0.215821
626 1 0.0593366 18.0594 0.290722
1084 2 1.83619 16.324 0.0702154
1688 3 1.81415 18.034 1.96504
2074 3 -0.0135769 16.177 1.74049
11 3 3.60596 16.1465 1.77429
630 3 7.18642 17.8023 -2.22759e-05
2075 1 7.22137 16.0771 1.77204
2691 1 3.63379 17.9476 0.131156
3084 1 5.32122 15.9516 -0.112657
3690 3 5.3945 18.0267 1.91462
12 2 10.7307 16.225 1.67418
1086 2 8.9253 16.0609 0.178821
1690 2 8.94762 17.8988 1.77775
2693 3 10.673 17.8755 0.0728244
634 3 14.4688 18.0185 0.122432
2076 1 14.3225 16.0659 1.83759
3086 2 12.4867 15.9951 0.204859
3692 2 12.6188 17.8227 1.80046
876 2 17.9625 17.8294 0.0822431
1088 1 16.2405 16.0647 0.233937
1692 3 16.0082 18.0091 1.95276
2011 2 17.8879 16.2752 2.01956
13 3 0.196981 1.9323 5.50147
588 1 0.182997 0.0929619 7.17077
1089 3 2.01599 1.90357 7.18887
2564 1 0.0957615 -0.0809886 3.65131
3063 1 2.00963 1.8761 3.26273
3576 3 1.92754 0.149809 5.36067
14 1 7.19951 1.82263 5.50753
564 3 3.59027 -0.0632276 3.61936
1065 2 5.42745 1.84039 3.60659
1577 3 3.60022 0.11405 7.49517
1576 1 5.39371 0.145826 5.36178
2078 2 5.32088 1.97607 7.26483
2077 1 3.80743 1.81202 5.37269
2589 2 7.3606 0.236173 7.33181
2567 1 7.11476 0.0365404 3.66879
566 3 10.8798 0.141992 3.66302
2079 2 10.6657 1.68284 5.42307
3065 1 8.99545 1.91549 3.4757
3088 3 9.06243 1.92452 7.15446
3578 3 10.7202 0.330733 7.28161
3577 2 8.96429 0.00788057 5.38722
15 3 12.4828 1.77286 7.17439
16 2 14.5005 1.87968 5.4582
589 1 14.3136 0.182192 7.05065
1067 2 12.4432 1.79592 3.78595
1578 1 12.5304 0.0484559 5.35238
2568 3 14.4138 0.233726 3.61466
263 1 17.7749 1.7928 5.28536
776 1 17.6863 -0.0361834 7.02442
1090 3 16.2538 1.92718 7.28954
2815 2 17.7376 0.0349985 3.59192
3067 1 16.049 2.00412 3.54391
3579 2 15.9754 -0.111928 5.34092
568 1 0.123506 3.76263 3.68127
1069 1 1.99781 5.36008 3.52454
1580 2 0.212319 3.71423 7.48381
1579 1 1.99188 3.62375 5.37526
2081 3 1.96353 5.54773 7.33165
2080 1 0.183826 5.41449 5.48748
2591 2 -0.00797554 7.40345 7.24719
2575 3 0.108343 7.1538 3.73685
3583 3 2.10706 7.13463 5.48034
17 1 3.88855 5.61977 5.45819
571 2 7.08749 3.54415 3.59542
592 3 7.3404 7.54536 7.20036
576 2 3.71001 7.30459 3.66005
1585 2 5.88271 7.27633 5.54705
2082 1 7.05827 5.37802 5.37148
2590 3 3.69355 3.75784 7.24159
2580 3 7.1629 7.21632 3.3859
2570 2 3.75432 3.6852 3.77873
3069 3 5.47874 5.43933 3.76918
3089 3 5.62252 5.48452 7.62033
3586 3 3.76738 7.25665 7.26389
3581 3 7.10934 3.64328 7.21239
3580 1 5.51006 3.56052 5.46588
18 3 10.6472 5.27026 5.41319
19 2 8.98672 5.46153 7.24523
590 3 10.7397 3.57878 7.21428
579 1 10.6353 7.14356 3.5474
1071 2 8.65242 5.35321 3.49391
1587 1 10.7219 7.15409 7.0751
1581 1 8.90307 3.31644 5.28494
2572 2 10.8136 3.65537 3.62696
3587 3 8.94876 6.97417 5.36936
572 3 13.9553 3.55029 3.46804
1091 3 12.4511 5.41609 7.34325
1589 1 12.2888 7.37602 5.25624
1583 1 14.1847 3.71728 7.16404
2083 3 14.1139 5.57643 5.40575
2593 1 14.2768 7.17775 7.34059
2583 2 14.2445 7.16792 3.57379
3071 2 12.546 5.36937 3.71827
3582 1 12.3866 3.57702 5.61614
757 3 17.7492 3.73254 3.62776
1073 1 15.8796 5.29511 3.70588
1768 3 17.9514 3.71278 6.97349
1582 2 15.7725 3.69204 5.07556
2084 2 15.9322 5.20935 7.12301
2017 1 17.7469 5.42028 5.60288
2841 3 17.8892 7.19066 7.21081
2826 3 17.8944 6.81632 3.66222
3589 2 16.0309 7.12526 5.43603
20 3 0.143011 9.08614 5.50448
574 3 0.182301 10.7909 3.83175
1584 1 2.14198 10.7541 5.53267
3073 1 2.12974 8.90693 3.77247
3090 1 2.09253 8.98129 7.08877
3584 3 -0.00544549 10.9021 7.36529
21 2 5.4729 9.07561 7.11446
22 1 7.14427 9.09374 5.36316
591 1 3.96599 10.6884 7.14524
580 1 7.27493 10.9759 3.55873
1075 1 5.51355 9.03748 3.68096
1588 2 7.23839 10.8137 7.09871
2085 1 3.78788 8.92465 5.26147
2577 1 3.69381 10.9184 3.47837
3585 2 5.3899 10.7575 5.29087
1092 1 9.05537 8.97884 7.28463
1586 2 8.93317 10.7856 5.47816
2086 1 10.6859 8.99814 5.3992
2592 2 10.7813 10.647 7.3771
2581 2 10.7019 10.7744 3.56473
3075 1 8.82548 8.97127 3.61878
23 2 14.3256 8.78593 5.5908
582 3 14.1282 10.7092 3.77302
1077 1 12.5575 9.01772 3.82502
2087 1 12.4693 8.93467 7.34009
3590 1 14.2685 10.5816 7.1341
3588 2 12.5093 10.7289 5.82409
270 2 17.6128 8.98055 5.38059
764 2 17.7586 10.5962 3.67498
1590 3 15.8648 10.707 5.46405
3091 2 16.167 8.77715 7.30696
3077 1 15.9803 8.81582 3.69365
3835 1 17.6742 10.7418 7.12921
24 3 2.10664 12.513 7.33525
593 1 0.277578 14.0794 7.23377
1079 3 1.8759 12.4554 3.56489
2088 3 0.266313 12.4678 5.46922
2584 2 0.268474 14.357 3.51735
3591 1 1.91196 14.2316 5.52542
25 2 3.6197 12.4055 5.48959
584 3 3.53681 14.3176 3.58366
1093 3 5.44046 12.7342 7.18612
1592 2 3.65994 14.3601 7.15799
1591 1 5.172 14.3462 5.3972
2089 1 7.24198 12.5734 5.40028
2594 2 7.17722 14.2938 7.34288
2587 3 7.19081 14.3176 3.75807
3079 2 5.26979 12.618 3.57862
26 3 10.6657 12.3986 5.47094
586 1 10.6874 14.2185 3.77979
1081 1 8.86985 12.6113 3.60417
2090 2 8.98039 12.5697 7.1445
3593 2 10.7843 14.2162 7.06388
3592 2 9.1046 14.5371 5.45929
594 2 14.1252 14.3079 7.20403
1593 1 12.6556 14.332 5.30648
2091 3 14.4007 12.4633 5.59301
2588 2 14.3474 14.4183 3.76588
3092 2 12.5726 12.6064 7.34511
3081 2 12.5112 12.4737 3.73434
27 3 16.1439 12.5997 7.26944
781 2 18.0104 14.2962 7.1462
1083 1 16.0027 12.4459 3.73896
2025 2 17.8161 12.4224 5.37366
2835 3 17.9485 14.3042 3.59749
3594 1 16.1797 14.3006 5.50606
28 2 0.157001 16.1318 5.33674
651 3 -0.0671148 17.8922 7.22107
1094 1 1.93843 15.9741 7.02681
2690 1 -0.22034 17.7392 3.61822
3083 3 1.86713 16.1998 3.71709
3701 2 1.87902 18.0461 5.3958
29 3 7.18916 16.118 5.33449
629 1 3.67254 18.056 3.75618
1085 3 5.43256 16.1449 3.66475
1704 3 3.62245 17.7977 7.32217
1703 1 5.4588 17.782 5.44131
2093 1 5.24634 16.0481 7.26923
2092 3 3.52892 16.1069 5.46053
2715 2 7.08641 18.016 7.18003
2695 2 7.3492 17.7042 3.65024
632 2 10.727 17.9728 3.56722
2094 2 11.0036 16.11 5.45513
3093 2 9.06589 16.0818 7.17594
3085 1 9.14464 16.0909 3.55642
3704 2 10.7973 17.8357 7.31561
3703 3 9.07236 17.8132 5.42268
30 1 12.7137 16.0187 7.05141
31 1 14.344 16.3061 5.4514
653 2 14.3635 17.8333 7.17491
1087 1 12.5095 16.1857 3.57158
1706 2 12.4432 18.2106 5.41861
2698 2 14.3041 18.0127 3.57914
278 1 17.8466 15.9625 5.4701
901 1 17.7966 17.9554 7.2764
1095 1 16.1383 16.087 7.16625
2878 2 17.7998 17.7901 3.78076
3087 3 16.1513 16.1201 3.59319
3707 3 16.05 17.9202 5.35858
1594 2 1.64102 0.0267126 9.20206
2095 3 0.208745 1.89029 8.99725
2595 1 0.148082 0.0914192 11.042
3094 2 2.01271 1.82981 10.7997
33 3 7.3233 1.97651 9.08956
595 2 3.63047 0.160419 10.8464
1096 1 5.19416 1.74544 10.6875
2597 1 7.20286 0.157101 10.9022
2596 3 5.56565 0.102124 9.09297
3095 2 3.5038 2.03589 9.01292
596 2 10.8218 0.190783 10.7907
1097 3 10.781 1.98233 8.91307
3096 1 9.0521 1.80781 10.715
3596 3 8.98263 0.0174889 9.07676
597 3 12.5213 0.114106 9.02893
1098 2 12.596 1.725 10.731
2098 1 14.3772 1.63512 8.88586
2598 1 14.4428 -0.0512122 10.595
1597 2 16.1147 -0.00343799 8.88201
2032 2 18.0167 1.95058 9.09242
2845 1 17.9692 0.0947772 10.8659
3097 3 15.9803 1.6374 10.6402
598 1 0.0179642 3.77225 10.8569
1099 3 1.70364 5.28786 10.8549
2603 1 0.185471 7.22118 10.7244
2599 1 1.76002 3.75242 8.99134
3098 3 -0.0986154 5.46136 8.94977
3602 3 2.18329 7.26704 9.1837
36 3 3.63161 5.38363 9.01316
605 3 3.77279 7.27293 10.9312
604 1 5.66116 7.34482 9.00582
600 1 7.25195 3.60908 10.7851
1100 3 7.53755 5.42562 8.95564
2606 2 7.12744 7.23947 10.7575
2600 3 3.60951 3.77724 10.8664
3099 2 5.52564 5.39097 10.685
3599 3 5.46487 3.58292 9.03957
606 2 10.9231 7.28443 10.9982
599 3 9.04228 3.6047 9.08303
1101 1 8.84976 5.42315 11.0074
1605 2 9.09491 7.20373 9.1348
2100 1 10.646 5.596 9.09862
2601 1 10.8365 3.68725 10.9062
601 1 14.2542 3.60051 10.6066
1600 3 12.4995 3.70281 9.0422
2609 1 14.2893 7.1694 10.799
2608 2 12.5427 7.06317 8.8899
3101 3 14.4202 5.47458 9.04623
3100 3 12.6208 5.49106 10.8668
786 2 17.868 3.66932 10.777
1102 2 15.9867 5.25438 10.7807
2853 1 17.8879 7.33041 10.6744
2602 2 16.0231 3.65783 8.98724
3348 1 17.7487 5.29886 9.03202
3608 1 16.2394 7.12566 8.96075
39 2 0.089759 8.97258 9.13964
603 3 0.10917 10.7599 10.8671
602 3 1.94132 10.815 8.97511
3102 1 1.95108 8.91505 10.7508
607 3 7.17644 10.7959 10.8914
1104 1 5.44136 8.95668 10.7822
1103 3 3.70472 9.07313 8.99412
1603 3 5.5884 10.7176 9.00503
2104 2 7.4657 8.9864 9.21097
2604 2 3.82207 10.7604 10.876
2607 2 10.5867 10.82 10.7039
2605 1 9.01823 11.0285 8.89347
3104 3 8.96817 9.04316 10.9263
3103 1 10.6942 8.97772 8.95823
42 3 14.1608 8.93108 9.06128
609 1 14.0707 10.5302 10.9088
1105 1 12.3253 8.79305 10.7198
3606 3 12.6777 10.8787 9.0327
289 2 17.8687 8.99097 8.93739
792 1 17.9055 10.7284 10.646
608 3 15.9108 10.4969 8.84063
3105 3 16.0851 8.96004 10.6121
1107 2 2.05011 12.4269 10.96
1106 1 0.137496 12.5159 9.035
1609 2 1.81896 14.2565 9.19631
2610 2 0.0977936 14.4117 10.8185
610 3 3.6043 14.2884 10.7469
2107 1 3.75115 12.6028 9.10089
2612 3 7.08685 14.3151 10.7945
2611 1 5.33859 14.465 8.9508
3107 1 7.16973 12.6256 8.86475
3106 2 5.44564 12.6811 10.607
45 1 10.7343 12.4756 9.02805
611 2 10.7165 14.1088 10.6865
1108 3 8.81584 12.5903 10.5703
3611 1 8.99532 14.3116 8.96934
612 1 12.4075 14.4937 8.933
1109 3 14.2165 12.5616 9.00079
2613 3 14.3271 14.2329 10.6745
3108 2 12.5113 12.4972 10.7367
1293 3 17.7103 12.518 8.88409
1110 2 16.0769 12.2311 10.6334
1612 1 16.1191 14.2853 8.93298
2860 3 17.9482 14.3315 10.8101
1719 2 1.82536 17.8633 8.9029
2110 3 0.0568721 16.0298 8.97366
2721 3 -0.000216758 17.9845 10.7019
3109 1 1.73648 16.0373 10.6727
48 1 7.29195 16.1177 8.86217
659 2 3.63082 17.5928 10.8019
1111 2 5.6012 16.0811 10.7353
2724 2 7.10241 17.8846 10.8233
2722 1 5.25396 18.0098 9.04024
3110 3 3.38354 16.0638 8.91887
661 3 10.8346 17.7632 10.7918
1112 2 10.7449 15.9796 8.85794
3111 1 8.90276 15.9653 10.9226
3723 1 8.94477 17.8772 9.04511
663 1 12.4508 17.8117 8.86967
1113 1 12.4927 16.0083 10.6901
2113 3 14.3857 16.0089 9.05647
2727 2 14.2539 17.8986 10.6035
1725 1 15.9621 17.8324 9.12383
2047 3 17.8514 16.0255 9.02297
2908 2 17.9801 17.9076 10.8263
3112 3 16.1057 16.1117 10.6826
32 2 0.166142 1.85582 12.3599
613 1 0.0983667 -0.0989452 14.1566
1114 2 1.88991 1.77298 14.2745
3595 3 1.94992 0.194967 12.621
34 1 7.1087 1.85421 12.4551
614 3 7.10237 0.175678 14.1018
1595 2 5.28339 -0.0296213 12.5828
2096 1 3.57592 1.98363 12.5617
2614 2 3.6465 0.0939543 14.3098
3113 2 5.37526 1.78785 14.4172
1115 2 8.93568 1.94189 14.2649
2097 2 10.7986 1.97098 12.4346
2615 1 10.9091 0.152171 14.2773
3597 1 9.02029 0.149824 12.4767
35 2 14.3635 1.7708 12.2995
615 1 14.3883 -0.00807082 14.1988
1596 3 12.6503 0.0845239 12.316
3114 1 12.4926 1.69082 14.2366
282 2 17.7254 1.83361 12.585
801 2 17.8239 0.0495415 14.3222
1116 3 16.0379 1.91757 14.148
3598 1 16.1722 0.0999724 12.6056
618 2 0.15636 7.1296 14.3775
1598 1 1.87578 3.53621 12.6002
2099 1 -0.105647 5.39947 12.651
2616 2 0.108588 3.55965 14.1387
3115 3 1.73402 5.40488 14.303
3603 3 1.89388 7.19575 12.4557
37 1 3.81568 5.44335 12.378
620 3 7.2884 7.12535 14.2803
616 3 3.56505 3.71855 14.3006
1117 3 5.32579 5.21931 14.225
1604 1 5.583 7.19569 12.5387
2101 1 7.42873 5.34075 12.5674
2620 2 3.61115 7.07136 14.2415
2617 2 7.25283 3.613 14.3726
3600 3 5.4305 3.47874 12.5368
38 3 10.8391 5.55029 12.4397
617 3 10.7551 3.52141 14.22
1599 1 9.0151 3.58606 12.5693
2621 2 10.6939 7.25027 14.4692
3116 3 9.05783 5.36811 14.4786
3605 2 9.01934 7.27026 12.4972
622 2 14.4113 7.15811 14.3623
1118 3 12.6244 5.37006 14.359
1607 1 12.6998 7.2412 12.7587
2102 1 14.2738 5.30592 12.5897
2618 3 14.3299 3.51404 14.3398
3601 2 12.5682 3.67434 12.6125
806 2 17.9011 7.17637 14.2985
1601 1 15.8729 3.57851 12.4906
2036 1 17.5765 5.57262 12.5936
2866 3 18.0025 3.82244 14.1482
3117 1 15.9567 5.38153 14.2637
3609 2 15.9451 7.39123 12.4289
40 3 0.109696 8.88969 12.6149
1119 1 1.95721 9.0144 14.2303
1602 3 1.89415 10.7025 12.5537
2619 3 0.132071 10.6787 14.3823
41 2 7.23391 8.9879 12.53
619 3 3.46737 10.7404 14.4202
2103 1 3.94866 9.0172 12.7193
2622 3 7.17154 10.8391 14.2002
3118 1 5.36979 8.92243 14.4365
3604 1 5.35664 10.8113 12.6575
621 1 10.6418 10.6936 14.1456
1120 2 8.82284 9.00129 14.5008
1606 1 8.99474 10.8264 12.578
2105 2 10.658 9.01878 12.6157
43 2 14.1938 8.96386 12.6215
2623 3 14.3401 10.8906 14.4224
3119 1 12.5824 9.00162 14.4662
3607 2 12.5026 10.6151 12.5438
290 2 17.9215 9.10323 12.5668
1121 1 16.0884 9.06765 14.3511
1608 3 16.0246 10.645 12.6786
2870 2 17.885 10.8313 14.3059
623 2 0.112453 14.2685 14.3789
2106 2 0.127721 12.5239 12.6299
3120 3 1.91732 12.5077 14.2639
3610 3 1.91874 14.3612 12.7311
44 2 3.71645 12.3493 12.7301
624 1 7.2964 14.2217 14.1829
1122 2 5.42244 12.5098 14.4681
1610 2 5.32691 14.1315 12.6297
2108 3 7.14752 12.6756 12.4943
2624 2 3.45488 14.3031 14.3325
46 3 10.8489 12.6104 12.6671
2625 1 10.9064 14.2697 14.2674
3121 3 9.02622 12.6421 14.3354
3612 3 8.89523 14.3021 12.7241
625 1 14.1149 14.2073 14.1111
1123 3 12.4032 12.4996 14.2919
1611 2 12.4723 14.4518 12.3566
2109 1 14.3346 12.6665 12.4565
811 2 17.8509 14.292 14.0944
2044 2 17.6616 12.5118 12.6883
3122 2 15.957 12.5805 14.4535
3613 1 16.1257 14.1271 12.4523
47 1 0.0985846 16.0182 12.5617
676 1 0.0196751 17.8465 14.116
1124 3 1.85779 16.281 14.2905
3720 2 1.99215 17.7855 12.4306
49 1 7.04268 16.0399 12.5099
678 2 7.18648 17.4263 14.1609
1721 2 5.43592 17.9265 12.4903
2111 3 3.72535 16.0951 12.6031
2740 1 3.61722 17.9706 14.335
3123 3 5.29835 15.9946 14.2461
1125 3 9.03071 16.0246 14.2013
2112 2 10.8204 15.9674 12.4509
2741 3 10.6005 17.8353 14.182
3724 1 8.87891 17.6462 12.413
50 3 14.5056 16.1163 12.4268
680 3 14.364 17.9481 14.3047
1724 3 12.5136 17.8597 12.4948
3124 3 12.6237 16.0505 14.1499
297 1 17.6142 16.1443 12.3248
926 3 17.9493 17.9772 14.2648
1126 3 16.1489 16.0262 14.1331
3726 2 16.199 17.8951 12.6272
1613 2 1.86078 0.257395 16.1361
2114 1 0.284308 1.85109 16.3376
2626 3 0.192724 0.207888 17.9241
3125 3 2.0009 1.85376 17.986
51 1 3.53598 1.8557 16.0388
502 2 3.7519 0.0626564 18.0295
1128 2 5.36257 1.8581 17.7943
2115 1 7.23134 1.71866 16.1135
2628 1 7.24872 0.0690103 17.9995
3614 1 5.41668 0.0162704 16.1886
52 2 10.8862 1.90931 16.0883
503 1 10.9142 0.29952 17.894
1614 2 9.00917 0.129983 15.8704
3127 2 9.07616 1.58798 17.8345
1130 1 12.5411 1.99866 17.842
2116 3 14.3419 1.77326 15.9653
2630 1 14.1402 0.126654 18.0148
3615 3 12.3829 -0.0933025 16.0509
1615 1 15.9799 0.144765 16.1276
2051 1 17.7768 1.65831 16.0735
2501 2 17.7148 -0.0147733 17.9132
3129 2 16.0897 1.93728 17.9583
53 1 -0.0727429 5.32175 15.9352
506 3 0.202248 3.42842 17.8594
1132 3 1.79054 5.2925 17.8446
1618 1 1.77431 7.28406 16.1576
2636 2 -0.0364902 7.3581 17.9337
3616 1 1.90742 3.50045 16.0387
54 3 7.22361 5.44336 16.1697
508 1 7.21582 3.57401 17.6626
513 1 3.55816 7.21378 17.9129
1616 1 5.3974 3.69685 16.1165
2117 1 3.60966 5.4457 16.1298
2640 1 7.24333 7.29691 17.7022
2632 3 3.7867 3.63232 17.8426
3131 3 5.57563 5.51942 17.9616
3620 1 5.41819 7.14567 16.0973
515 2 10.7824 7.22365 17.9295
1134 3 8.95159 5.37557 17.764
1620 1 8.94973 7.09426 16.2943
2118 3 10.6692 5.48167 16.1003
2633 3 10.7085 3.69859 17.8424
3617 2 9.12072 3.67728 16.225
55 1 14.3572 5.29164 16.0648
510 3 14.3482 3.56639 17.8339
1617 2 12.6734 3.61546 16.1346
2644 2 14.3521 7.27531 17.7846
3133 3 12.748 5.46104 17.8101
3622 1 12.7174 7.15935 16.1176
303 1 18.0391 5.40069 16.1624
819 2 17.8066 3.67286 17.9986
1136 1 16.0499 5.33215 17.916
1622 3 16.0077 7.16823 16.0871
2511 1 17.687 7.21384 17.9506
3618 1 16.2131 3.43337 16.0667
511 3 0.272727 10.7784 17.9667
2119 1 0.0603712 8.9939 16.3858
3135 1 1.95917 8.8598 18.0239
3619 2 1.87648 10.8213 16.1647
56 3 3.67979 8.89623 16.1768
516 1 7.35416 10.8342 17.8628
1138 2 5.39264 8.96191 17.9424
1619 3 5.43377 10.7853 16.2501
2120 1 7.0201 8.95627 16.2832
2638 1 3.83839 10.6888 18.1121
57 1 10.5613 9.0275 16.0591
2641 3 10.6616 10.8033 17.7354
3137 2 8.84654 9.12596 17.9518
3621 3 8.91009 10.8319 15.967
519 1 14.3684 10.7299 17.7468
1140 1 12.5116 8.94249 17.7709
1621 2 12.5674 10.7303 16.1448
2121 3 14.3068 9.04678 16.1352
825 2 17.7506 10.9468 17.8305
2056 2 17.9972 9.09294 15.9773
3139 2 16.1028 8.89178 17.7955
3623 1 16.3782 10.913 16.0664
58 2 0.178099 12.5693 16.2034
1142 1 2.00502 12.564 18.0302
1623 1 1.71313 14.4208 16.1624
2646 3 0.0761777 14.3373 17.9612
59 3 7.20896 12.5163 16.1155
522 2 3.74851 14.1801 17.9458
2122 3 3.81831 12.7359 16.0997
2648 1 7.03425 14.074 17.7523
3141 3 5.55801 12.5015 17.7484
3624 2 5.51138 14.3944 16.1463
523 3 10.7594 14.5011 17.6892
1144 1 9.08369 12.6644 17.7765
1624 2 9.08768 14.5439 16.1872
2123 2 10.6737 12.4712 16.0485
60 1 14.1016 12.4947 16.181
2650 2 14.455 14.4327 18.1146
3143 1 12.4834 12.7727 17.8296
3625 2 12.4876 14.3657 16.0936
308 3 17.9377 12.8746 16.0466
1146 1 16.1099 12.7163 17.8376
1625 2 15.9255 14.3624 16.2066
2521 2 17.7692 14.3926 17.8531
1738 3 1.93868 17.9141 15.9846
2124 2 0.231814 16.1509 16.1658
2751 1 0.248711 17.6761 17.8311
3145 2 2.09202 16.0367 17.9156
61 1 3.59674 16.0222 16.1032
691 1 3.78084 17.7865 17.964
1148 2 5.3163 15.8561 17.9769
2125 2 7.15933 16.1007 15.9432
2755 2 7.15238 17.8128 17.6805
3740 1 5.5021 17.808 16.0454
62 1 10.9016 16.2436 16.0245
693 2 10.9036 17.7884 17.9088
1740 1 8.91072 17.5773 15.9372
3147 1 8.89835 16.1864 17.8766
1150 1 12.6557 15.9517 17.8665
2126 2 14.1398 16.0111 16.0944
2759 1 14.3433 18.0293 17.8326
3742 2 12.4784 17.9202 15.954
1742 2 16.0185 17.7499 15.9033
2061 3 17.7226 16.1377 16.0144
2938 3 17.8125 17.8754 17.8297
3149 2 16.0601 16.0972 17.657
501 1 0.217447 0.042637 21.4557
63 1 0.0750834 1.93077 19.7793
1127 2 1.91044 1.84787 21.3565
3626 3 2.01949 0.0965556 19.6171
504 1 7.38467 0.0207736 21.3746
64 2 7.21556 1.88831 19.4353
1626 2 5.43335 0.304424 19.4679
2127 1 3.88663 1.83386 19.7962
2627 3 3.59299 0.225184 21.4694
3126 2 5.60139 1.73581 21.3103
1129 1 9.04338 1.983 21.3484
2128 2 10.7696 1.90103 19.5811
2629 1 10.7745 0.179687 21.4732
3627 2 9.11716 0.226369 19.7517
505 2 14.1064 0.0801075 21.437
65 3 14.3597 2.00198 19.717
1627 1 12.4836 0.142411 19.7265
3128 1 12.5364 2.00354 21.3528
815 3 17.8909 -0.0316677 21.3141
313 1 17.7725 1.83663 19.6434
1131 1 15.9299 1.81281 21.4558
3628 3 16.1429 -0.0773865 19.7611
512 1 0.00294993 7.21066 21.6061
1628 1 1.96562 3.59364 19.6837
2129 2 0.0734034 5.11411 19.7625
2631 3 0.150292 3.72904 21.5811
3130 1 2.0471 5.47213 21.6683
3631 1 1.5856 7.11813 19.6782
507 3 3.74581 3.51724 21.491
517 2 7.25691 7.0621 21.5617
66 3 3.67048 5.37207 19.568
1133 2 5.51847 5.30257 21.3263
1632 1 5.40652 7.2627 19.7895
2130 1 7.39655 5.49658 19.5681
2639 2 3.69918 7.14443 21.5137
2634 1 7.30545 3.80313 21.2515
3629 3 5.36979 3.6577 19.5389
509 3 10.7863 3.7708 21.4521
67 1 10.8709 5.45328 19.5908
1629 2 9.03091 3.59544 19.4265
2642 1 10.8216 7.48602 21.3885
3132 1 9.39347 5.65453 21.4395
3633 1 8.80797 7.16163 19.485
520 2 14.1857 7.05042 21.4607
1135 3 12.5533 5.45463 21.4582
1634 2 12.9009 7.23467 19.5313
2131 1 14.244 5.37826 19.5193
2635 2 14.369 3.68846 21.4518
3630 2 12.4635 3.6408 19.7326
826 1 17.7706 7.41116 21.4143
1630 2 16.1866 3.64585 19.8283
2316 1 17.8479 5.46824 19.6815
2507 3 17.9789 3.62457 21.3925
3134 2 15.9787 5.29024 21.5205
3635 2 15.9623 7.0051 19.7602
68 2 0.203531 8.98179 19.6658
1137 1 1.74888 8.95248 21.5145
1631 3 1.79595 10.753 19.701
2637 3 0.0469699 10.8265 21.3621
514 1 3.66846 10.8785 21.5572
69 2 7.14596 8.97803 19.6699
2132 3 3.56433 8.93305 19.9345
2643 3 7.39467 10.7414 21.3713
3136 3 5.45279 8.96281 21.5558
3632 2 5.6674 10.6518 19.7034
518 1 10.9325 10.5841 21.3473
1139 2 9.00058 9.02379 21.3899
1633 2 9.11068 10.9207 19.7795
2133 2 10.9001 9.11942 19.5226
70 1 14.3982 9.02518 19.8074
2645 3 14.1983 10.8264 21.4577
3138 2 12.5192 8.91092 21.316
3634 2 12.8149 10.7233 19.4502
318 1 17.5812 8.94264 19.5417
1141 2 16.0197 8.94717 21.5183
1635 2 16.0993 10.7282 19.4417
2514 1 17.9507 10.8121 21.5058
521 3 0.189899 14.3041 21.4581
2134 1 0.038901 12.5511 19.6339
3140 1 2.01147 12.6486 21.1743
3636 2 1.95828 14.3462 19.6505
524 2 7.28016 14.5711 21.5105
71 2 3.94837 12.3119 19.6314
1143 2 5.51411 12.6959 21.6176
1636 2 5.37323 14.239 19.6567
2135 2 7.1924 12.6973 19.7453
2647 2 3.6514 14.3563 21.4129
72 3 10.8681 12.5519 19.8036
2649 1 10.708 14.2809 21.586
3142 2 8.74187 12.7967 21.4035
3637 1 9.01476 14.3888 19.5934
525 3 14.4781 14.4893 21.4917
1145 3 12.5282 12.6219 21.3819
1637 1 12.6501 14.304 19.567
2136 3 14.1054 12.577 19.4808
835 1 17.8165 14.2969 21.4561
2321 3 17.8048 12.5204 19.6284
3144 2 16.0752 12.3402 21.2318
3638 1 16.0728 14.3143 19.7094
690 2 0.277965 17.8653 21.4134
73 2 0.289787 16.0815 19.6849
1147 3 1.81471 16.0617 21.4098
3751 3 1.92212 17.8255 19.6057
695 3 7.31433 18.1049 21.5305
74 1 7.11039 16.132 19.6364
1502 3 5.65152 18.0011 19.5103
2137 1 3.86121 16.1319 19.6688
2754 3 3.69608 17.9182 21.2627
3146 2 5.57309 16.24 21.3373
1149 3 8.97364 16.166 21.3095
2138 3 10.6428 16.1554 19.6364
2757 3 10.6951 17.8018 21.498
3753 1 8.92272 17.8136 19.583
698 1 14.4269 18.0681 21.3717
75 3 14.3799 16.1026 19.8519
1504 3 12.6792 17.8839 19.6225
3148 3 12.3893 15.9646 21.4514
941 1 17.9142 18.029 21.3409
323 2 17.7489 16.0582 19.649
1151 3 16.241 16.3241 21.4734
3755 2 16.1146 17.9303 19.6037
1638 1 1.86013 0.170578 23.2634
2139 3 0.169577 1.92639 23.0947
2651 2 0.127816 0.115158 24.9212
3150 1 2.03108 1.95338 24.7928
526 1 7.23444 0.0257672 24.9529
77 1 5.45712 1.69181 24.8882
76 2 3.71929 1.76546 23.1402
2140 2 7.18819 1.72813 23.178
3640 3 3.56921 -0.0610874 24.9917
3639 1 5.47591 0.132667 23.1308
78 2 10.821 1.8892 23.2426
1152 3 8.92678 1.9874 24.8375
1640 2 10.6859 0.290769 25.1128
1639 1 9.09491 0.144767 23.1504
2142 1 14.2539 1.75108 23.2303
2141 1 12.3204 1.70937 25.0615
2652 3 14.3932 0.0238928 24.96
3641 2 12.4839 0.328008 23.3099
1641 3 16.1932 -0.0220718 23.26
2326 1 17.9153 1.72426 23.2684
2526 1 17.8652 0.036944 25.0207
3151 3 16.0528 1.93201 24.8209
528 1 -0.0786422 7.45665 24.9951
80 3 1.91105 5.5452 24.9154
79 3 0.036762 5.52639 23.1478
1645 1 1.85565 7.43835 23.3358
3643 2 0.125862 3.57623 24.7094
3642 1 1.87692 3.66762 22.9566
527 3 3.72471 3.65599 25.085
81 3 6.9892 5.37223 23.1913
1153 3 5.40327 5.55219 24.943
1648 3 3.66382 7.28369 25.2291
1643 1 7.30505 3.65833 24.9846
1642 3 5.43042 3.57009 23.2182
2143 1 3.62769 5.3646 23.1634
2655 3 7.25068 7.21693 24.8832
3648 1 5.4613 7.06454 23.0254
1649 1 9.02497 7.22534 23.2911
2145 2 9.00835 5.47906 24.8283
2144 2 10.9754 5.49636 23.3096
2653 2 10.7175 3.58288 24.8923
3650 3 10.851 7.24193 24.8776
3644 2 8.96653 3.76854 22.941
530 3 14.402 7.15708 24.8033
82 1 14.1773 5.29656 23.2763
1644 2 12.5581 3.71754 23.2489
3152 3 12.7142 5.51595 25.1867
3652 3 12.539 7.24024 23.1012
3646 2 14.3196 3.48893 24.9947
841 3 17.9097 7.18982 25.0766
329 1 17.7292 5.27847 23.2851
83 3 16.0275 5.44918 25.009
1651 1 16.1562 7.06832 23.0763
3893 3 17.8708 3.52847 25.0128
3645 2 16.0255 3.5373 23.1714
1154 3 1.80562 9.12658 24.9073
1646 1 0.000944781 10.7782 25.1249
2146 2 -0.103371 8.95756 23.0161
3647 3 2.00448 10.9022 23.1286
84 3 3.70795 9.06331 23.0857
1647 3 5.44661 10.7383 23.2031
2148 2 7.28675 8.95817 23.1485
2147 3 5.44027 8.87622 24.9408
2654 3 3.53453 10.7607 25.0298
3651 1 7.16262 10.6329 25.0364
529 1 10.6539 10.7323 25.0664
85 2 10.6938 9.13747 23.2359
3153 2 9.07458 8.95684 24.8281
3649 1 8.90167 10.8914 23.1542
86 1 12.4998 8.93793 24.8078
1652 2 14.3964 10.7341 25.101
1650 1 12.6005 10.7345 23.3307
2149 1 14.4202 9.25098 23.2452
1155 3 16.1162 8.975 25.1068
1835 1 17.976 10.8794 25.0407
2333 3 17.8405 9.13983 23.455
3653 2 16.0923 10.8646 23.2945
87 3 0.218886 12.5264 22.945
1653 1 1.91281 14.4902 23.4346
2150 1 1.68475 12.5953 25.1571
2656 3 0.130001 14.3562 25.038
531 1 7.10991 14.458 24.9847
88 1 7.03031 12.5285 23.3642
2151 2 3.69533 12.5912 23.2459
3154 2 5.45081 12.4692 24.8748
3655 3 3.77365 14.2559 24.9187
3654 1 5.48123 14.4695 23.2584
89 1 8.9664 12.61 24.8928
1655 2 10.8394 14.3409 24.9234
1654 3 8.85398 14.3849 23.2664
2152 3 10.7962 12.6128 23.0905
90 3 14.3128 12.7527 23.2854
1156 1 12.511 12.4994 24.9537
2657 3 14.3308 14.4543 25.0268
3656 2 12.5685 14.4836 23.131
337 3 17.8987 12.7372 23.2666
1656 1 16.2439 14.3759 23.2477
2153 1 16.153 12.6259 25.1482
2531 2 17.9883 14.4767 24.9689
1513 3 2.09391 17.88 23.2364
2154 1 0.120046 16.0951 23.1557
2776 2 0.155934 17.7561 25.006
3155 2 1.74601 16.1719 25.0068
715 3 7.11079 17.9922 24.9083
92 2 5.41325 16.1421 24.9765
91 3 3.87199 16.3522 23.0075
2155 1 7.39012 16.2707 23.1485
3767 1 3.62195 18.0487 24.9557
3766 3 5.40579 18.0246 23.1583
93 1 10.6365 16.0633 23.3353
1157 2 8.97297 16.2931 25.07
1515 2 9.04731 18.1076 23.3396
1516 1 10.8838 17.8377 24.8815
2157 1 14.299 16.2634 23.1397
2156 3 12.667 16.3301 24.9292
2778 3 14.3854 17.9858 24.9564
3769 2 12.5005 17.9002 22.9647
1519 3 15.9682 17.8037 23.2247
2341 1 17.8042 15.9512 23.2026
2963 1 17.7749 17.8541 24.895
3156 2 15.9061 16.3369 25.064
532 1 0.0808059 0.24318 28.628
94 2 0.139791 1.98907 26.5329
1158 1 1.67397 1.86604 28.4777
3657 3 1.78512 0.160429 26.7484
533 1 5.3251 0.0421704 26.63
534 1 7.26847 0.0133907 28.5702
1159 2 3.78833 1.82248 26.6723
2159 2 7.25931 1.81641 26.5999
2658 3 3.5084 0.0252393 28.4863
3157 1 5.37473 1.7686 28.3974
1160 2 9.13547 1.89021 28.5195
1658 1 8.98434 0.111705 26.8374
2659 2 10.737 0.174641 28.3998
3158 1 10.5997 1.75922 26.6968
535 2 14.3638 -0.0665101 28.5286
97 2 14.4231 1.86574 26.552
2660 3 12.5982 0.175905 26.8759
3159 1 12.6897 1.91076 28.537
845 2 17.809 0.27217 28.8348
344 2 17.7805 1.86845 26.8065
1161 2 16.071 1.94341 28.7031
3660 3 16.1755 0.183506 26.7652
536 3 1.95405 3.80777 26.6461
540 2 0.244991 7.06327 28.6585
1162 3 0.0219554 5.3786 26.8952
1664 1 1.69859 7.31999 26.7048
2661 1 -0.0356971 3.69776 28.4805
3160 3 2.09873 5.29617 28.6553
537 2 3.81892 3.54635 28.6027
543 3 7.06634 7.25461 28.5464
1163 2 5.32444 5.59048 28.5794
1661 1 5.54576 3.57715 26.6109
2162 1 3.73727 5.49168 26.8165
2668 2 3.59276 7.25028 28.7201
2667 1 5.49161 7.08826 26.8673
2663 2 7.04596 3.46182 28.3995
3161 3 7.20404 5.43212 26.7469
538 3 10.8055 3.71312 28.4356
99 2 10.8259 5.43167 26.6143
2669 3 10.9079 7.24108 28.4278
2662 3 9.09108 3.77231 26.7442
3162 1 8.84895 5.2948 28.6592
3668 3 9.08225 7.12693 26.8231
545 2 12.5822 7.36194 26.6164
546 3 14.171 7.29012 28.3908
1165 1 14.4316 5.49284 26.9053
1164 1 12.52 5.37318 28.5991
2664 2 14.409 3.613 28.4076
3663 3 12.728 3.48224 26.6488
853 2 17.8189 7.37847 28.35
539 1 16.1223 3.68326 26.7766
1349 1 17.721 5.54975 27.0027
1670 1 15.9219 7.22571 26.8884
2536 3 17.9551 3.53848 28.5072
3163 2 15.9989 5.43474 28.7063
1166 3 2.03101 9.12346 28.638
2165 3 0.097987 9.14969 26.7939
2666 1 0.0207672 10.6903 28.6041
2665 2 1.90316 10.7779 26.8881
541 2 3.67147 10.8479 28.6616