ITEM: TIMESTEP
5000
ITEM: NUMBER OF ATOMS
4000
ITEM: BOX BOUNDS pp pp pp
1.4102456665143492e-01 3.5593035433348078e+01
1.4102456665143492e-01 3.5593035433348078e+01
1.4102456665143492e-01 3.5593035433348078e+01
ITEM: ATOMS id type x y z
563 3 0.140228 0.130319 0.247173
1064 3 2.01308 2.0322 0.142707
1563 1 2.03047 0.276474 1.90994
2064 3 0.0484544 1.96891 1.87529
1 1 3.83867 1.91601 1.82217
565 3 7.34404 0.0861439 0.176749
2065 2 7.22673 1.88952 1.89597
2565 3 3.63131 0.111779 0.0463576
3064 3 5.45258 1.80494 -0.0432699
3564 2 5.33728 0.0230621 1.95924
2 2 10.7471 1.85254 1.80071
1066 2 9.08636 1.80865 0.147488
1564 2 9.10625 0.130958 1.79674
2566 3 11.0216 -0.0680962 -0.0339733
567 2 14.343 -0.0404382 -0.0520909
2066 1 14.3094 1.92382 1.80271
3066 2 12.5958 1.81925 0.0429918
3565 3 12.5952 0.118293 1.79072
751 1 17.8018 -0.0561259 0.229089
1068 2 16.099 1.89757 0.137117
1565 3 15.9559 0.112002 1.86883
2001 3 17.7265 1.85131 1.86029
3 3 0.276011 5.54394 1.95077
573 3 0.216033 7.33664 0.295744
1568 3 1.9838 7.31452 1.854
2569 2 0.0456328 3.75731 0.203418
3068 1 1.8728 5.38693 0.204863
3566 1 1.97362 3.60265 1.92455
4 1 7.3859 5.46903 1.88368
569 3 3.67575 3.65774 0.0490094
577 2 7.27399 7.27874 0.0192928
1070 1 5.44417 5.41233 0.10675
1566 1 5.63932 3.63598 1.96499
2067 2 3.58623 5.499 1.72676
2576 3 3.75287 7.20087 0.0368261
2571 2 7.33441 3.63623 -0.0359073
3570 3 5.59922 7.00537 1.68406
570 2 10.6624 3.57205 0.0963519
1570 3 8.86597 7.12123 1.78955
2068 1 10.8742 5.41994 1.90138
2578 2 10.6841 7.10687 0.351028
3070 2 8.97519 5.37822 0.0926537
3567 2 8.94911 3.56442 1.78908
5 2 14.2689 5.4516 1.92813
581 3 14.3929 7.13174 0.145423
1072 1 12.657 5.32116 0.235313
1567 2 12.605 3.62235 1.96114
2573 2 14.4516 3.6154 0.157067
3572 3 12.4377 7.36321 1.96796
253 1 18.0035 5.42577 1.76451
761 2 17.7351 7.27706 0.0221114
1572 3 16.1441 7.23366 1.73221
2819 1 17.8935 3.53169 0.103048
3072 3 16.288 5.37637 0.0886581
3568 3 16.2189 3.51397 1.89778
1074 2 1.9673 8.95507 0.157634
2069 1 -0.0739269 9.10031 1.84066
2574 1 0.196955 10.6722 0.200505
3569 2 1.87788 10.6059 2.02337
6 1 3.54759 8.90263 1.84026
575 3 3.72428 10.5869 -0.0877927
1569 3 5.43732 10.7373 1.92951
2070 1 7.24082 8.9597 1.78911
2579 2 7.18928 10.8107 0.0817115
3074 3 5.54468 8.91669 0.00701328
7 1 10.7437 9.09413 1.85093
578 3 10.7066 10.8636 0.0921867
1076 2 8.92753 9.10727 0.151456
3571 2 8.86172 10.8197 1.85481
1571 2 12.4791 10.9094 1.93165
2071 1 14.3167 9.13491 1.96086
2582 3 14.4212 10.7236 0.0457812
3076 3 12.6647 9.05719 0.235241
1078 1 16.0525 9.03759 -0.109109
2006 1 17.8313 9.01903 1.88053
2825 2 17.8127 10.699 0.0601634
3573 1 16.2742 10.7106 1.98023
8 1 0.1739 12.5371 2.00389
583 2 0.133575 14.2902 0.0236858
1573 1 1.93561 14.2825 1.8655
3078 1 1.7799 12.2927 0.034894
9 1 7.20058 12.611 1.91584
585 1 7.12562 14.3508 0.173127
1080 1 5.43148 12.6222 0.164348
2072 3 3.65338 12.3819 1.79088
2585 2 3.46132 14.3932 0.164602
3574 1 5.29156 14.2841 2.00763
1574 3 9.05383 14.355 1.71332
2073 2 10.826 12.6215 1.87148
2586 1 10.7452 14.4345 -0.0386815
3080 1 8.96474 12.5963 0.0965531
10 3 14.423 12.4485 1.84024
587 1 14.2937 14.502 0.141547
1082 3 12.5741 12.7365 0.0789875
3575 1 12.3374 14.3433 2.00362
258 2 17.8163 12.4435 1.90818
771 2 17.9012 14.3155 0.294094
1575 3 16.0647 14.3255 1.99924
3082 1 16.177 12.6039 0.0713344
626 1 0.154864 17.9174 0.196674
1084 2 1.78741 16.26 0.228228
1688 3 1.95282 17.9112 1.9334
2074 3 0.0257015 16.1548 2.10284
11 3 3.78283 16.1924 2.02277
630 3 7.09681 17.8628 0.0707038
2075 1 7.20074 16.1279 1.93969
2691 1 3.62134 17.9666 0.134201
3084 1 5.43259 16.2202 0.223152
3690 3 5.46728 17.8536 2.07502
12 2 10.767 16.0394 1.81428
1086 2 8.85699 16.0034 0.0971666
1690 2 8.98105 17.8563 1.9211
2693 3 10.7315 17.8787 0.192683
634 3 14.3705 17.8632 0.200101
2076 1 14.2084 16.1537 1.98398
3086 2 12.4883 16.1974 0.00329719
3692 2 12.4056 17.7956 1.94781
876 2 17.6468 17.9394 0.0547844
1088 1 15.9952 16.0651 0.235864
1692 3 15.9821 17.9585 2.05635
2011 2 17.8078 16.3193 1.88271
13 3 0.346103 1.9377 5.58281
588 1 0.224034 0.0789312 7.14448
1089 3 2.0549 1.99361 7.02543
2564 1 -0.00630514 0.130226 3.72484
3063 1 1.8349 1.62452 3.61138
3576 3 1.9139 0.134775 5.47376
14 1 7.21598 1.95131 5.41818
564 3 3.72438 0.0095687 3.83103
1065 2 5.52043 1.76521 3.52399
1577 3 3.80626 0.131956 7.18158
1576 1 5.48656 0.111738 5.53215
2078 2 5.51412 1.81257 7.1648
2077 1 3.76343 1.92216 5.36438
2589 2 7.19398 0.077885 7.19942
2567 1 7.41456 0.145688 3.67056
566 3 10.8028 0.315592 3.59367
2079 2 10.7054 1.80955 5.45805
3065 1 9.04007 1.88089 3.51593
3088 3 9.12243 1.93974 7.19812
3578 3 10.743 0.133866 7.19039
3577 2 9.04099 0.10688 5.36736
15 3 12.5535 1.79296 7.09918
16 2 14.4264 1.88091 5.41443
589 1 14.3651 0.180404 7.01046
1067 2 12.6501 1.92531 3.4687
1578 1 12.509 -0.151657 5.3607
2568 3 14.3834 0.114524 3.8024
263 1 17.8694 1.94734 5.55379
776 1 17.8484 0.00676472 7.38763
1090 3 16.1237 1.87894 7.2896
2815 2 17.82 0.0138684 3.75279
3067 1 16.2857 1.92925 3.65891
3579 2 16.2128 0.209467 5.52461
568 1 0.0584538 3.65495 3.70382
1069 1 2.06703 5.54167 3.86197
1580 2 0.14042 3.73186 7.2567
1579 1 1.96763 3.65989 5.32042
2081 3 1.88022 5.38213 7.1646
2080 1 0.0665693 5.28553 5.43495
2591 2 0.158417 7.35168 7.18291
2575 3 0.288301 7.02452 3.77204
3583 3 2.06597 7.28496 5.59561
17 1 3.7527 5.35507 5.27883
571 2 7.29792 3.66533 3.65413
592 3 7.23354 7.16876 7.07366
576 2 3.83427 7.10804 3.54853
1585 2 5.59132 7.27472 5.43762
2082 1 7.21677 5.62692 5.34997
2590 3 3.66579 3.65594 7.22027
2580 3 7.01373 7.33342 3.55692
2570 2 3.76384 3.5065 3.59677
3069 3 5.49419 5.39648 3.44662
3089 3 5.38874 5.48945 7.24154
3586 3 3.75727 7.35393 7.23089
3581 3 7.17133 3.64774 7.16317
3580 1 5.51735 3.63494 5.38233
18 3 10.8046 5.42299 5.52111
19 2 9.0461 5.4061 7.15931
590 3 10.9042 3.59619 7.14922
579 1 10.812 7.17117 3.71031
1071 2 9.18266 5.47819 3.57065
1587 1 10.8284 7.30556 7.1963
1581 1 9.09923 3.78448 5.36288
2572 2 10.8388 3.4958 3.60745
3587 3 9.02556 7.13738 5.41724
572 3 14.5015 3.64291 3.60841
1091 3 12.6587 5.49627 7.21776
1589 1 12.702 7.25596 5.48123
1583 1 14.3059 3.47724 7.12458
2083 3 14.4181 5.45725 5.40144
2593 1 14.3869 7.19618 7.16242
2583 2 14.1831 7.2738 3.73979
3071 2 12.5905 5.37849 3.70662
3582 1 12.5324 3.7457 5.3024
757 3 17.8494 3.71988 3.69331
1073 1 15.9928 5.55574 3.59597
1768 3 17.8021 3.58544 7.31138
1582 2 16.0172 3.66545 5.54684
2084 2 16.063 5.42588 7.36834
2017 1 17.6913 5.58163 5.54473
2841 3 17.718 7.23187 7.31033
2826 3 17.9108 7.16223 3.62242
3589 2 16.061 7.25609 5.35864
20 3 0.288859 8.89207 5.45828
574 3 0.125717 10.6294 3.71966
1584 1 2.03837 10.6585 5.52393
3073 1 2.06882 8.83055 3.70687
3090 1 1.95881 9.01989 7.17245
3584 3 0.0666679 10.6809 7.2445
21 2 5.84619 8.95685 7.32083
22 1 7.17811 9.02941 5.52703
591 1 3.7063 10.732 7.25413
580 1 7.35831 10.7858 3.62352
1075 1 5.25183 8.95763 3.65802
1588 2 7.23821 10.8486 7.13911
2085 1 3.81823 8.91474 5.59576
2577 1 3.57289 10.7804 3.71122
3585 2 5.43617 10.7783 5.32109
1092 1 8.94401 8.96136 7.17014
1586 2 9.03097 10.8303 5.44611
2086 1 10.7269 9.06746 5.34739
2592 2 10.6777 10.8435 7.23956
2581 2 10.8081 10.6824 3.52589
3075 1 8.96134 9.04953 3.64889
23 2 14.3886 9.1472 5.35346
582 3 14.3773 10.8226 3.81187
1077 1 12.61 9.13591 3.76763
2087 1 12.6241 8.91895 7.04226
3590 1 14.3149 10.7931 7.21112
3588 2 12.5259 10.7832 5.53893
270 2 17.7807 8.96026 5.38689
764 2 17.7928 10.8339 3.67477
1590 3 16.1408 10.7976 5.44944
3091 2 16.0395 9.00157 7.26433
3077 1 16.1038 9.04258 3.60665
3835 1 17.7859 10.7287 7.14937
24 3 1.86513 12.3952 7.19997
593 1 0.308704 14.3969 7.24343
1079 3 1.90549 12.5461 3.77833
2088 3 0.00587517 12.4051 5.39224
2584 2 0.241459 14.3101 3.78384
3591 1 1.9703 14.2538 5.45479
25 2 3.70995 12.3996 5.42617
584 3 3.85174 14.2702 3.68572
1093 3 5.55375 12.4651 7.12165
1592 2 3.57776 14.3057 7.19666
1591 1 5.36817 14.2766 5.45268
2089 1 7.31909 12.4764 5.51734
2594 2 7.27009 14.2191 7.21765
2587 3 7.35515 14.2675 3.76441
3079 2 5.43423 12.522 3.60676
26 3 10.8352 12.5982 5.36208
586 1 10.6944 14.5222 3.69794
1081 1 9.2522 12.4218 3.49813
2090 2 9.1172 12.4895 7.13225
3593 2 10.8204 14.3673 7.28047
3592 2 9.13219 14.3312 5.53604
594 2 14.2832 14.4631 7.0968
1593 1 12.5083 14.3268 5.33273
2091 3 14.3482 12.6628 5.46717
2588 2 14.1539 14.3825 3.62824
3092 2 12.5178 12.5694 7.17886
3081 2 12.5155 12.6558 3.69964
27 3 16.0789 12.5776 7.20496
781 2 17.9663 14.2222 7.25482
1083 1 15.9351 12.6185 3.61859
2025 2 17.8778 12.4703 5.57484
2835 3 17.972 14.2926 3.67722
3594 1 16.1806 14.396 5.54801
28 2 0.0710777 16.2194 5.3657
651 3 0.0312484 17.8496 7.14432
1094 1 1.83416 15.9401 7.29322
2690 1 0.167173 17.8957 3.64432
3083 3 1.89114 16.2579 3.85069
3701 2 1.81533 17.9927 5.41511
29 3 7.27882 16.0389 5.56454
629 1 3.71349 17.8248 3.84458
1085 3 5.33806 16.0952 3.79111
1704 3 3.62812 18.0117 7.24924
1703 1 5.45405 17.8763 5.57036
2093 1 5.47569 15.9842 7.12571
2092 3 3.59489 16.0554 5.54532
2715 2 7.20941 17.8225 7.3557
2695 2 7.34433 17.7619 3.87174
632 2 10.7947 17.8302 3.71552
2094 2 10.7322 16.2795 5.47629
3093 2 8.89121 16.1177 7.47928
3085 1 9.05207 16.1413 3.67182
3704 2 10.696 17.8412 7.42393
3703 3 9.16313 17.9601 5.56596
30 1 12.5277 16.0168 7.15076
31 1 14.3001 16.1492 5.3772
653 2 14.1023 17.759 7.13989
1087 1 12.4669 16.1584 3.7155
1706 2 12.4719 17.7934 5.5606
2698 2 14.1579 18.0521 3.49377
278 1 17.862 16.0466 5.45457
901 1 17.9444 17.8534 7.28821
1095 1 16.0817 16.1388 7.04954
2878 2 17.8724 17.8475 3.77767
3087 3 15.9963 16.1053 3.64761
3707 3 16.1579 17.9647 5.41025
1594 2 2.11561 0.240888 8.94264
2095 3 0.367049 1.93177 9.00386
2595 1 0.250456 0.162762 10.735
3094 2 1.91048 2.00796 10.8177
33 3 7.47423 1.83471 8.81622
595 2 3.78596 0.27844 10.813
1096 1 5.50299 1.90601 10.7818
2597 1 7.16539 0.287007 10.6652
2596 3 5.42203 0.181595 8.95576
3095 2 3.64299 1.86916 9.10798
596 2 10.8302 0.168498 10.6696
1097 3 10.8856 1.92097 8.90235
3096 1 8.98713 1.97304 10.6919
3596 3 9.20158 0.0805284 9.01771
597 3 12.4541 0.19534 9.01944
1098 2 12.5254 1.90591 10.7655
2098 1 14.3069 1.86191 9.0685
2598 1 14.3222 0.170056 10.7671
1597 2 15.9532 -0.0149113 9.06768
2032 2 17.8455 1.70018 8.96451
2845 1 17.7149 0.112492 10.7863
3097 3 16.0863 1.83208 10.7423
598 1 -0.0472528 3.58618 10.6705
1099 3 1.97197 5.41452 10.6149
2603 1 0.0497707 7.13992 10.8162
2599 1 1.99212 3.69172 8.98097
3098 3 0.200497 5.45238 8.99969
3602 3 1.84553 7.31871 9.06807
36 3 3.77282 5.38898 8.90983
605 3 3.73984 7.17457 10.6287
604 1 5.49724 7.23349 9.02132
600 1 7.23083 3.63948 10.5098
1100 3 7.23632 5.53804 8.9303
2606 2 7.29273 7.35046 10.8375
2600 3 3.75135 3.62894 10.6757
3099 2 5.45501 5.43738 10.7014
3599 3 5.43493 3.64959 9.01677
606 2 10.6561 7.03969 10.7487
599 3 9.00151 3.73271 8.89992
1101 1 8.9366 5.43633 10.7508
1605 2 8.9811 7.15329 8.82953
2100 1 10.7922 5.55325 8.89145
2601 1 10.7575 3.59162 10.7935
601 1 14.3342 3.60719 10.6523
1600 3 12.3938 3.73542 8.99659
2609 1 14.3708 7.16676 10.9415
2608 2 12.6604 7.26154 9.01046
3101 3 14.3234 5.29365 9.00849
3100 3 12.4426 5.22472 10.8972
786 2 17.8064 3.7816 10.7285
1102 2 15.9995 5.40583 10.7289
2853 1 17.8219 7.18137 10.7789
2602 2 16.0999 3.52863 8.94048
3348 1 17.9891 5.35582 9.11603
3608 1 15.9548 7.19362 8.97958
39 2 0.0806818 8.89862 9.17633
603 3 0.290602 10.7607 10.7418
602 3 1.90171 10.6928 8.97524
3102 1 1.98249 9.04052 10.5695
607 3 7.25761 10.745 10.7968
1104 1 5.48012 9.00618 10.676
1103 3 3.78845 9.0785 8.92914
1603 3 5.61575 10.9857 9.11097
2104 2 7.32961 8.97945 9.07426
2604 2 3.64847 10.7864 10.661
2607 2 10.75 10.7062 10.6279
2605 1 9.1172 10.8869 8.99543
3104 3 9.05726 8.99131 10.8137
3103 1 10.6631 8.94978 8.93311
42 3 14.2886 8.99672 9.0681
609 1 14.2982 10.6714 10.7371
1105 1 12.5183 8.91228 10.8624
3606 3 12.4571 10.4819 8.89059
289 2 17.7727 8.94403 8.90406
792 1 17.8484 10.6047 10.703
608 3 15.9513 10.703 8.90947
3105 3 16.0727 8.95855 10.8049
1107 2 1.89157 12.5235 10.7199
1106 1 0.167738 12.5849 9.11212
1609 2 1.84143 14.2959 9.00552
2610 2 0.0542685 14.4125 10.8516
610 3 3.70372 14.3388 10.8515
2107 1 3.69595 12.6584 9.09356
2612 3 7.29067 14.1742 10.7858
2611 1 5.50707 14.3607 9.05301
3107 1 7.39262 12.4832 8.93049
3106 2 5.51843 12.5724 10.9276
45 1 10.7576 12.4283 8.7566
611 2 10.8188 14.3118 10.724
1108 3 9.0662 12.5346 10.8299
3611 1 8.95761 14.1291 8.94624
612 1 12.554 14.3034 9.01053
1109 3 14.264 12.5357 9.00071
2613 3 14.4969 14.328 10.7474
3108 2 12.6249 12.3655 10.7458
1293 3 17.7534 12.4427 8.82483
1110 2 16.0843 12.4521 10.6495
1612 1 15.9446 14.2955 8.80555
2860 3 17.6612 14.2035 10.7098
1719 2 1.76842 18.0509 9.06745
2110 3 0.0699605 16.1332 8.9898
2721 3 0.0899599 17.8923 10.7922
3109 1 1.9367 16.0396 10.6848
48 1 7.23816 16.1023 9.0816
659 2 3.67783 17.7824 10.7656
1111 2 5.55374 16.0257 10.7559
2724 2 7.37303 17.9583 10.828
2722 1 5.49287 17.8041 9.17742
3110 3 3.63363 15.9602 8.98025
661 3 10.9255 17.6971 10.7098
1112 2 10.7057 15.9769 8.9485
3111 1 8.99225 16.1343 10.693
3723 1 8.92878 17.9483 9.07417
663 1 12.5798 17.9707 8.84289
1113 1 12.4594 16.0499 10.7639
2113 3 14.2647 16.1933 8.83121
2727 2 14.2427 17.7951 10.7022
1725 1 15.976 17.9319 8.98788
2047 3 17.9143 15.9647 9.03534
2908 2 17.8041 17.9339 10.5728
3112 3 16.1616 16.279 10.6425
32 2 0.04604 1.98765 12.5572
613 1 0.0478102 0.0551269 14.5095
1114 2 1.78756 1.82721 14.3302
3595 3 1.82398 0.221256 12.5106
34 1 7.40666 1.89089 12.5761
614 3 7.15605 0.0568781 14.4113
1595 2 5.53224 -0.0421813 12.5283
2096 1 3.69388 1.92625 12.5234
2614 2 3.70027 0.204567 14.3222
3113 2 5.57107 1.79202 14.348
1115 2 8.8553 1.9315 14.3891
2097 2 10.6282 1.94814 12.6609
2615 1 10.6997 0.118661 14.3254
3597 1 9.11643 0.175232 12.5979
35 2 14.3271 1.97283 12.3829
615 1 14.2918 0.313144 14.3108
1596 3 12.4378 0.259409 12.6505
3114 1 12.3537 1.96497 14.4095
282 2 17.9811 1.9071 12.5385
801 2 17.8764 0.0730164 14.3974
1116 3 16.092 1.85804 14.3521
3598 1 16.0729 0.243166 12.655
618 2 0.283915 7.21327 14.228
1598 1 1.81554 3.59508 12.6805
2099 1 0.197362 5.14343 12.6178
2616 2 0.0588257 3.74364 14.3442
3115 3 1.9817 5.29009 14.2284
3603 3 2.06997 7.19577 12.4739
37 1 3.80886 5.43091 12.4641
620 3 7.11528 7.2438 14.312
616 3 3.84658 3.62783 14.2093
1117 3 5.45471 5.67942 14.4296
1604 1 5.31591 7.38102 12.5129
2101 1 7.19428 5.57982 12.3885
2620 2 3.57799 7.32435 14.3488
2617 2 7.14795 3.72173 14.3996
3600 3 5.39857 3.74486 12.4637
38 3 10.7534 5.50532 12.6093
617 3 10.8527 3.75433 14.2786
1599 1 8.93413 3.63713 12.5076
2621 2 10.7488 7.12109 14.2575
3116 3 8.86324 5.42273 14.1977
3605 2 8.8757 7.32067 12.4432
622 2 14.3284 7.12809 14.4103
1118 3 12.6593 5.37869 14.193
1607 1 12.5589 7.26039 12.6372
2102 1 14.3928 5.25202 12.5904
2618 3 14.2762 3.59045 14.3192
3601 2 12.5611 3.57689 12.6011
806 2 17.8043 7.12902 14.214
1601 1 16.1514 3.63183 12.4134
2036 1 17.8323 5.41907 12.4705
2866 3 17.9408 3.55676 14.3563
3117 1 16.0208 5.43498 14.2267
3609 2 15.9681 7.191 12.6074
40 3 0.229703 8.96139 12.5301
1119 1 1.92507 9.20152 14.2581
1602 3 1.96164 10.776 12.547
2619 3 0.0419973 10.8602 14.3967
41 2 7.08111 9.08989 12.585
619 3 3.63211 10.9055 14.3814
2103 1 3.68705 9.00339 12.5376
2622 3 7.32928 10.5221 14.5075
3118 1 5.18794 9.01053 14.2974
3604 1 5.3293 10.7915 12.6764
621 1 10.9051 10.6814 14.2868
1120 2 9.18968 8.85968 14.2371
1606 1 8.98996 10.6946 12.5104
2105 2 10.7652 8.96736 12.3356
43 2 14.18 8.99539 12.4058
2623 3 14.322 10.6952 14.2982
3119 1 12.4333 8.90902 14.1419
3607 2 12.4128 10.7361 12.5895
290 2 17.8499 8.97813 12.4457
1121 1 16.1506 8.88304 14.2506
1608 3 16.0203 10.9041 12.5366
2870 2 17.7377 10.742 14.461
623 2 0.254205 14.2022 14.4206
2106 2 0.253774 12.5824 12.4826
3120 3 1.95634 12.4814 14.2819
3610 3 1.86922 14.3139 12.529
44 2 3.62209 12.6343 12.5129
624 1 7.10323 14.2571 14.4004
1122 2 5.41828 12.4748 14.2618
1610 2 5.31057 14.3094 12.5599
2108 3 7.15391 12.5467 12.7751
2624 2 3.62348 14.2854 14.3247
46 3 10.7684 12.4683 12.484
2625 1 10.7853 14.3307 14.0995
3121 3 9.0758 12.4353 14.0993
3612 3 8.94514 14.2523 12.4765
625 1 14.345 14.2219 14.2007
1123 3 12.6257 12.4628 14.3973
1611 2 12.4512 14.2872 12.3506
2109 1 14.2924 12.4721 12.4725
811 2 17.8827 14.2711 14.3368
2044 2 17.8081 12.5439 12.5373
3122 2 16.1201 12.5884 14.2711
3613 1 16.0754 14.189 12.4797
47 1 0.107826 16.0795 12.5084
676 1 0.22038 17.8318 14.3143
1124 3 1.97539 16.1274 14.2645
3720 2 1.86681 17.8425 12.5006
49 1 7.24109 16.2049 12.4208
678 2 7.26832 17.7545 14.1854
1721 2 5.5023 17.7183 12.4515
2111 3 3.79158 16.1271 12.4789
2740 1 3.6982 17.8871 14.1621
3123 3 5.47029 16.0373 14.2662
1125 3 8.98769 16.0273 14.258
2112 2 10.7287 16.0345 12.5079
2741 3 10.8026 17.8445 14.4166
3724 1 8.93783 17.9363 12.4657
50 3 14.3488 16.1865 12.4797
680 3 14.3883 17.7677 14.4159
1724 3 12.4705 17.7355 12.6776
3124 3 12.5663 15.9481 14.2669
297 1 17.9551 16.1279 12.436
926 3 17.7787 17.8653 14.3055
1126 3 16.1689 15.8882 14.3259
3726 2 16.2251 17.8581 12.5995
1613 2 1.89229 -0.144061 16.1162
2114 1 0.177386 1.86279 16.19
2626 3 0.0957544 -0.0858252 17.9249
3125 3 1.83762 1.76097 17.8914
51 1 3.73555 1.81463 16.1772
502 2 3.79093 0.147382 17.8974
1128 2 5.31496 2.10371 17.9075
2115 1 7.21515 2.02205 16.2266
2628 1 7.17369 0.349856 18.0671
3614 1 5.4102 0.163404 16.1234
52 2 10.689 1.99942 15.9997
503 1 10.7798 0.307863 17.9491
1614 2 8.83852 0.173686 16.2022
3127 2 8.93615 1.94874 17.9929
1130 1 12.4662 2.10132 17.698
2116 3 14.365 1.89217 16.0999
2630 1 14.2856 0.270627 17.8365
3615 3 12.4225 0.0788 16.1177
1615 1 16.0572 0.281248 16.3449
2051 1 17.9202 1.9666 16.047
2501 2 18.118 0.0326581 17.9391
3129 2 16.1831 1.99976 17.9501
53 1 0.0369036 5.42846 16.0028
506 3 0.1514 3.61932 17.8789
1132 3 1.75172 5.46211 17.967
1618 1 1.94678 7.17452 16.0988
2636 2 0.172237 7.30025 17.8679
3616 1 1.94991 3.59125 15.9561
54 3 7.20147 5.5728 16.2217
508 1 7.18989 3.87495 17.8501
513 1 3.72 7.16054 17.8539
1616 1 5.37677 3.70348 15.979
2117 1 3.59555 5.35937 16.0116
2640 1 7.24449 7.41776 18.0005
2632 3 3.43094 3.65977 17.8436
3131 3 5.35768 5.29109 17.7819
3620 1 5.39003 7.21901 16.1636
515 2 10.8566 7.1674 17.8494
1134 3 8.82228 5.51039 17.9127
1620 1 9.07833 7.31189 16.1446
2118 3 10.8055 5.52307 16.0542
2633 3 10.7121 3.81628 17.7923
3617 2 9.02602 3.63565 16.1048
55 1 14.2624 5.38618 16.0666
510 3 14.3986 3.66171 17.8903
1617 2 12.5918 3.78642 16.1818
2644 2 14.4172 7.23986 17.9906
3133 3 12.5687 5.31593 17.9613
3622 1 12.6881 7.14586 15.964
303 1 18.0134 5.43521 15.9694
819 2 17.8233 3.65928 17.8492
1136 1 16.0635 5.62337 17.8313
1622 3 16.2 7.31514 16.1775
2511 1 17.9295 7.38713 18.0043
3618 1 16.1531 3.68201 16.0197
511 3 0.157105 10.7841 17.8462
2119 1 0.280248 9.04165 16.1062
3135 1 1.82703 8.94981 18.0353
3619 2 1.8693 10.8004 16.0017
56 3 3.73677 9.06099 16.174
516 1 7.38647 10.7865 17.9821
1138 2 5.45322 9.05098 17.9047
1619 3 5.56921 10.6844 16.0495
2120 1 7.29834 8.90805 16.1581
2638 1 3.66294 10.8481 17.7927
57 1 10.7953 9.1219 16.1776
2641 3 10.8586 10.6733 17.977
3137 2 9.07581 8.99035 17.9675
3621 3 9.00358 10.7253 16.1588
519 1 14.3505 10.7774 17.9819
1140 1 12.4876 8.84519 17.8929
1621 2 12.4194 10.875 16.1917
2121 3 14.1574 9.08554 16.2006
825 2 17.8802 10.6277 17.8919
2056 2 18.0031 8.92623 15.9751
3139 2 16.1313 8.89131 17.957
3623 1 16.031 10.6681 16.2188
58 2 0.130699 12.5512 15.9508
1142 1 1.82069 12.6601 17.7529
1623 1 2.01325 14.3271 16.0605
2646 3 0.0109954 14.3039 17.7569
59 3 7.41234 12.4879 16.0565
522 2 3.72355 14.3623 17.811
2122 3 3.67195 12.6162 16.151
2648 1 7.31427 14.2043 17.7498
3141 3 5.38093 12.6075 17.7882
3624 2 5.4249 14.2732 15.9868
523 3 10.7412 14.1707 17.9346
1144 1 9.07125 12.4363 17.9015
1624 2 9.01184 14.2592 16.1062
2123 2 10.8115 12.5077 16.0712
60 1 14.4084 12.5002 16.1256
2650 2 14.2424 14.2992 17.9206
3143 1 12.4339 12.531 17.9473
3625 2 12.4938 14.3378 16.1087
308 3 17.7135 12.5232 16.2029
1146 1 16.0751 12.5734 17.968
1625 2 16.1435 14.3091 16.1835
2521 2 17.8721 14.3745 17.8927
1738 3 1.94719 17.8266 16.0753
2124 2 0.241594 16.2434 16.1212
2751 1 0.197384 17.8256 17.9556
3145 2 1.87349 16.0909 17.9647
61 1 3.62945 16.0258 16.1984
691 1 3.67254 17.7978 17.9221
1148 2 5.63061 16.0832 17.7801
2125 2 7.23789 16.0343 16.0018
2755 2 7.32259 17.8317 17.7976
3740 1 5.55209 17.7566 16.1251
62 1 10.7349 15.9815 15.88
693 2 10.5503 17.8457 17.5955
1740 1 8.85007 17.6514 16.0308
3147 1 8.79727 15.942 17.7652
1150 1 12.3122 16.0758 17.8231
2126 2 14.3345 15.8472 15.9829
2759 1 14.2493 17.9402 17.8108
3742 2 12.5448 17.778 16.0683
1742 2 16.0264 17.8533 16.1013
2061 3 17.8309 15.9557 16.1521
2938 3 17.7975 17.6402 17.957
3149 2 16.0618 15.9913 17.8229
501 1 0.161384 0.174695 21.3196
63 1 0.0469955 1.89983 19.7245
1127 2 1.85471 1.90265 21.5197
3626 3 1.83846 0.251016 19.7259
504 1 7.16187 0.220793 21.4998
64 2 7.17933 2.07267 19.658
1626 2 5.51627 0.322358 19.6438
2127 1 3.59993 1.72691 19.7648
2627 3 3.78347 0.118812 21.4253
3126 2 5.45326 1.92405 21.5765
1129 1 9.13752 2.05275 21.2321
2128 2 10.7986 1.98594 19.6589
2629 1 10.8885 0.171584 21.3979
3627 2 8.98327 0.141444 19.7832
505 2 14.3069 0.060131 21.3979
65 3 14.3493 1.95597 19.5809
1627 1 12.6495 0.256535 19.4717
3128 1 12.6307 1.88315 21.4652
815 3 17.7588 0.220116 21.6169
313 1 17.7321 1.93056 19.7784
1131 1 16.003 2.019 21.4544
3628 3 16.0571 0.253364 19.6336
512 1 0.204962 7.31687 21.4736
1628 1 1.8523 3.75714 19.6772
2129 2 0.22537 5.62584 19.5977
2631 3 0.0210528 3.62234 21.4679
3130 1 2.1691 5.33918 21.4701
3631 1 1.91565 7.21853 19.6721
507 3 3.72004 3.5612 21.6083
517 2 7.25611 7.26897 21.3528
66 3 3.72232 5.55476 19.7073
1133 2 5.45365 5.37279 21.435
1632 1 5.54127 7.24189 19.733
2130 1 7.196 5.40773 19.8168
2639 2 3.66691 7.26154 21.4385
2634 1 7.22148 3.72016 21.3985
3629 3 5.43838 3.73689 19.5767
509 3 10.7698 3.71605 21.5053
67 1 10.8284 5.47902 19.6547
1629 2 9.08365 3.76184 19.7006
2642 1 10.8676 7.36999 21.3986
3132 1 8.95906 5.50078 21.3673
3633 1 8.99475 7.26843 19.6821
520 2 14.5067 7.22781 21.6082
1135 3 12.5125 5.59285 21.3719
1634 2 12.5797 7.42313 19.6895
2131 1 14.2269 5.57245 19.7333
2635 2 14.2755 3.77706 21.4538
3630 2 12.588 3.62618 19.6695
826 1 17.9167 7.12971 21.3177
1630 2 16.0571 3.80886 19.6079
2316 1 17.7665 5.38015 19.5901
2507 3 17.7801 3.72394 21.4986
3134 2 16.1001 5.39691 21.5125
3635 2 16.1026 7.12365 19.905
68 2 0.110177 9.13765 19.7218
1137 1 1.93596 9.16141 21.3595
1631 3 2.12214 10.884 19.6538
2637 3 0.113909 10.9036 21.4557
514 1 3.80945 10.7574 21.3978
69 2 7.31826 9.0357 19.6497
2132 3 3.58101 8.92845 19.6187
2643 3 7.25461 10.7183 21.4782
3136 3 5.43058 9.11039 21.4907
3632 2 5.53408 10.7586 19.7088
518 1 10.7611 10.6096 21.5595
1139 2 9.02804 9.01281 21.5404
1633 2 9.06534 10.7629 19.8716
2133 2 10.6453 9.07054 19.7865
70 1 14.3941 8.97231 19.8289
2645 3 14.3279 10.8278 21.3624
3138 2 12.6152 9.00399 21.3639
3634 2 12.636 10.7805 19.6289
318 1 17.8474 9.04754 19.7047
1141 2 16.0918 9.06226 21.3651
1635 2 16.0602 10.7822 19.759
2514 1 17.835 10.9142 21.5196
521 3 0.231923 14.359 21.4602
2134 1 0.160058 12.4304 19.6191
3140 1 2.06136 12.5378 21.4321
3636 2 1.78561 14.3008 19.5492
524 2 7.19122 14.3994 21.3857
71 2 3.67045 12.5478 19.654
1143 2 5.58656 12.5859 21.3818
1636 2 5.53383 14.3087 19.6253
2135 2 7.25107 12.446 19.5103
2647 2 3.64729 14.1819 21.2924
72 3 10.8832 12.4292 19.8986
2649 1 10.8004 14.1577 21.4905
3142 2 8.84237 12.4475 21.4857
3637 1 8.84327 14.3089 19.5463
525 3 14.3151 14.4401 21.3681
1145 3 12.6447 12.5994 21.523
1637 1 12.404 14.3837 19.6331
2136 3 14.2822 12.6139 19.713
835 1 17.7232 14.2518 21.3759
2321 3 17.8744 12.5685 19.5004
3144 2 16.0485 12.5991 21.4351
3638 1 16.1912 14.3666 19.6039
690 2 -0.00395226 17.833 21.2847
73 2 0.177219 16.1614 19.7151
1147 3 2.13978 16.087 21.1574
3751 3 1.99497 17.9109 19.5712
695 3 7.38655 17.896 21.4516
74 1 7.33383 16.0433 19.6659
1502 3 5.44857 17.9456 19.6803
2137 1 3.8251 16.1418 19.5091
2754 3 3.72903 17.9721 21.3894
3146 2 5.50662 16.1494 21.3243
1149 3 9.02075 16.1182 21.3601
2138 3 10.779 16.0671 19.7132
2757 3 10.8105 17.8153 21.4041
3753 1 9.04752 17.8349 19.5194
698 1 14.1997 17.8883 21.5265
75 3 14.3701 16.0125 19.6176
1504 3 12.6496 17.9066 19.551
3148 3 12.5394 16.0654 21.3934
941 1 17.8632 17.8529 21.3037
323 2 17.8061 16.0745 19.6454
1151 3 15.9993 16.1389 21.3647
3755 2 16.1324 17.773 19.6424
1638 1 1.94905 0.180161 23.2304
2139 3 0.0200555 1.96502 23.1744
2651 2 0.120915 0.107438 25.0942
3150 1 2.00619 1.9337 25.0781
526 1 7.37325 0.0890001 25.0499
77 1 5.59919 1.98082 25.01
76 2 3.65099 1.87475 23.2781
2140 2 7.33685 1.97751 23.1645
3640 3 3.76691 0.203024 24.9567
3639 1 5.5585 0.0288166 23.0823
78 2 10.7002 1.97047 23.0342
1152 3 8.99956 1.94159 24.9181
1640 2 10.8222 0.0329467 24.8681
1639 1 9.0678 0.277084 23.1033
2142 1 14.2129 2.08138 23.4022
2141 1 12.4688 1.88738 24.9853
2652 3 14.3305 0.0414683 25.0811
3641 2 12.6464 0.279903 23.2223
1641 3 15.9923 0.384252 23.4039
2326 1 17.7405 1.99922 23.2359
2526 1 18.0465 0.274792 25.126
3151 3 16.0866 2.07562 25.1844
528 1 0.339713 7.17085 25.0302
80 3 1.97132 5.40321 25.0934
79 3 0.212532 5.45107 23.2114
1645 1 1.97355 7.32147 23.2697
3643 2 0.160839 3.55228 24.9821
3642 1 1.95335 3.54285 23.2427
527 3 3.67397 3.50829 24.9869
81 3 7.10466 5.48835 23.1606
1153 3 5.29886 5.50404 25.063
1648 3 3.70922 7.31256 25.0175
1643 1 7.28537 3.61969 25.1079
1642 3 5.57126 3.64048 23.239
2143 1 3.78277 5.29081 23.3119
2655 3 7.15798 6.97777 25.0547
3648 1 5.63263 7.20111 23.0749
1649 1 8.86569 7.29604 23.3674
2145 2 9.04391 5.35906 24.9581
2144 2 10.7936 5.56624 23.2645
2653 2 10.7449 3.77555 24.8522
3650 3 10.7317 7.2917 25.1168
3644 2 8.97205 3.91782 23.0757
530 3 14.2779 7.15056 24.8658
82 1 14.3539 5.31378 23.2155
1644 2 12.6447 3.71543 23.1883
3152 3 12.7132 5.40122 24.943
3652 3 12.573 7.30201 23.0692
3646 2 14.2971 3.66854 25.3082
841 3 17.868 7.12724 24.9081
329 1 17.758 5.37403 23.2182
83 3 16.0798 5.36285 24.9606
1651 1 16.1462 7.16666 23.2808
3893 3 17.957 3.7834 24.9494
3645 2 16.0697 3.66151 23.2313
1154 3 2.06047 8.98517 24.955
1646 1 0.133682 10.75 24.8874
2146 2 0.287702 8.87418 23.3564
3647 3 1.94784 10.8399 23.0843
84 3 3.71816 9.04672 23.2506
1647 3 5.47054 10.8402 23.2249
2148 2 7.23803 9.13437 23.1825
2147 3 5.65842 8.95798 24.9944
2654 3 3.71304 10.8177 24.9926
3651 1 7.24805 10.8403 25.062
529 1 10.9217 10.632 25.0328
85 2 10.9562 9.02691 23.162
3153 2 9.01203 8.985 24.9778
3649 1 8.93653 10.58 23.2545
86 1 12.6783 9.04258 25.0399
1652 2 14.3298 10.7203 24.8827
1650 1 12.5343 10.8389 23.2023
2149 1 14.4217 9.12871 23.1068
1155 3 16.1587 8.98401 24.8673
1835 1 17.8194 10.6464 24.8812
2333 3 17.9162 8.91388 23.2099
3653 2 16.1631 10.7537 23.2203
87 3 0.291688 12.6468 23.2001
1653 1 1.94817 14.5136 23.1858
2150 1 1.96907 12.7295 24.9524
2656 3 0.0512957 14.2306 24.9435
531 1 7.25465 14.409 24.8862
88 1 7.23985 12.727 23.2216
2151 2 3.63433 12.6536 23.2043
3154 2 5.43467 12.7033 24.9809
3655 3 3.73487 14.4154 24.9923
3654 1 5.37997 14.3807 23.1569
89 1 9.07248 12.5586 25.0097
1655 2 10.7375 14.2612 24.9437
1654 3 9.14798 14.3356 23.1769
2152 3 10.7661 12.5401 23.2812
90 3 14.4231 12.6808 23.1929
1156 1 12.4773 12.5639 25.0975
2657 3 14.4879 14.1695 24.8673
3656 2 12.6167 14.343 23.1293
337 3 17.8222 12.5882 23.1517
1656 1 16.2669 14.4026 23.1281
2153 1 16.0737 12.3055 24.9384
2531 2 17.9862 14.3862 24.9202
1513 3 1.92582 17.7015 23.2117
2154 1 -0.0290423 16.094 23.1543
2776 2 0.118334 17.7874 24.7036
3155 2 1.82731 16.0404 25.128
715 3 7.36928 17.7546 24.9958
92 2 5.49249 16.2643 24.9493
91 3 3.63975 16.1128 23.0984
2155 1 7.20392 15.951 23.1566
3767 1 3.69749 17.9687 25.0057
3766 3 5.5657 17.8557 23.3323
93 1 10.912 16.164 23.2786
1157 2 8.93815 15.9995 25.0005
1515 2 8.9103 17.7856 23.2625
1516 1 11.0028 17.8198 25.0816
2157 1 14.1911 16.0706 23.1502
2156 3 12.6924 16.0213 25.013
2778 3 14.3543 17.9587 24.9166
3769 2 12.4436 18.0589 23.3296
1519 3 16.0149 17.84 23.3548
2341 1 17.8026 16.1464 23.3051
2963 1 17.8216 17.9822 25.1584
3156 2 16.0577 16.1138 24.9494
532 1 0.246093 0.180822 28.4339
94 2 0.166675 1.91228 26.7751
1158 1 1.8241 1.83996 28.5607
3657 3 2.1224 0.0409538 26.6813
533 1 5.4969 0.19134 26.67
534 1 7.26027 -0.0548305 28.6085
1159 2 3.76011 1.86147 27.0041
2159 2 7.27301 1.7941 26.8067
2658 3 3.66483 0.15061 28.5632
3157 1 5.46688 1.86874 28.5011
1160 2 8.94848 1.8754 28.5635
1658 1 9.05077 0.0563325 26.7361
2659 2 10.7742 0.00987845 28.5437
3158 1 10.6095 1.859 26.7216
535 2 14.4632 0.0151124 28.4394
97 2 14.3259 1.89364 26.818
2660 3 12.5412 0.0125516 26.6826
3159 1 12.74 1.72925 28.6552
845 2 17.8299 0.343359 28.4799
344 2 17.8207 2.07023 26.7617
1161 2 16.07 1.9089 28.5799
3660 3 16.1434 0.125802 26.866
536 3 2.15657 3.53636 26.7257
540 2 0.0207223 7.21105 28.4766
1162 3 0.337902 5.21848 26.6721
1664 1 1.79086 7.21065 26.7105
2661 1 0.143536 3.69343 28.5403
3160 3 1.96289 5.46038 28.5018
537 2 3.78762 3.67976 28.4951
543 3 7.14692 7.30497 28.4022
1163 2 5.58489 5.47051 28.6019
1661 1 5.48747 3.74363 26.958
2162 1 3.60391 5.56469 26.8176
2668 2 3.7201 7.19258 28.6873
2667 1 5.39237 7.24998 26.8081
2663 2 7.10709 3.57997 28.5775
3161 3 7.34785 5.3623 27.0178
538 3 10.9154 3.5481 28.4775
99 2 10.7539 5.48833 26.6998
2669 3 10.8199 7.42417 28.4902
2662 3 9.12114 3.75911 26.9024
3162 1 9.05691 5.50559 28.6297
3668 3 8.9241 7.20043 26.6777
545 2 12.5333 7.17832 26.9428
546 3 14.2692 7.3341 28.5923
1165 1 14.3982 5.51037 26.721
1164 1 12.5758 5.43373 28.6575
2664 2 14.3463 3.83987 28.5861
3663 3 12.5591 3.58879 26.7989
853 2 17.746 7.18967 28.605
539 1 16.1382 3.85538 26.8369
1349 1 17.9367 5.59952 26.8288
1670 1 16.1691 7.03029 26.6084
2536 3 17.8374 3.58902 28.4559
3163 2 16.1149 5.54768 28.4255
1166 3 1.87006 8.90858 28.4394
2165 3 0.086236 8.99552 26.7645
2666 1 0.154888 10.8555 28.3308
2665 2 1.91391 10.9044 26.6443
541 2 3.70685 10.6876 28.5493
103 3 7.18731 9.01487 26.832