ITEM: TIMESTEP
5000
ITEM: NUMBER OF ATOMS
4000
ITEM: BOX BOUNDS pp pp pp
5.7638221363486508e-02 3.5676421778636708e+01
5.7638221363486508e-02 3.5676421778636708e+01
5.7638221363486508e-02 3.5676421778636708e+01
ITEM: ATOMS id type x y z
1 3 -0.0207842 1.6875 1.98393
1563 1 -0.0584756 0.0162267 0.059604
2064 1 1.76165 2.08056 0.0100337
3561 1 1.98424 0.0799305 1.70929
564 3 3.70024 1.89012 1.7591
565 2 7.21776 1.81512 1.76736
1565 3 7.21656 0.164734 0.219952
2065 1 3.66352 0.12582 0.0787331
3061 1 5.29297 1.86395 -0.179948
3562 1 5.45203 0.0632124 1.81944
566 2 10.5023 1.80013 1.94723
1070 3 10.7892 0.196337 0.0664334
3063 3 9.01358 0.0411015 1.91146
3062 3 9.11993 1.8341 -0.0370324
567 2 14.3866 2.02491 1.72623
2566 1 14.2935 0.23295 0.0810023
3064 1 12.6144 2.05804 0.00139126
3563 2 12.3131 0.236775 1.90041
2 2 17.8904 0.110303 -0.0244043
3 1 16.2488 0.212764 1.98705
3066 3 18.0884 2.01734 1.80231
3065 1 16.1233 1.82537 0.123492
4 2 1.87402 5.47744 0.143886
5 2 2.02123 3.61996 1.77312
6 1 1.94531 7.28061 2.07055
1071 3 0.130126 5.17091 1.91957
3067 2 0.00828938 3.55621 0.299603
3565 3 0.0889905 7.29736 -0.019846
7 1 5.39195 5.30888 -0.0211825
8 1 3.77232 7.23667 0.208703
1072 3 7.37121 5.4171 1.76595
1075 1 5.41306 6.96213 1.85129
1074 1 3.64094 5.28608 1.89269
1567 3 7.1631 7.19733 0.145053
2570 3 7.24576 3.46831 0.0241724
2569 3 3.6835 3.60134 0.156533
3569 1 5.47243 3.568 1.76708
9 2 9.18148 5.49163 0.0974641
10 1 9.14223 3.57938 1.84388
1077 2 10.6277 7.1599 0.221401
1076 3 11.0222 5.57352 1.8667
1568 3 9.10531 7.15758 1.87771
3068 2 10.7616 3.81754 0.097184
11 2 12.6348 5.39391 0.0968862
12 2 14.3655 3.6366 0.089562
570 2 12.5832 3.53059 1.90535
1571 2 14.4236 7.12038 -0.0185176
1570 3 14.2482 5.52309 1.93977
1569 3 12.5599 7.30462 1.84954
572 3 16.1249 3.4865 1.81982
1081 1 16.15 6.73682 1.89262
1079 1 17.8205 5.21127 1.89005
1078 3 16.0707 5.23243 0.273725
1573 1 17.8293 3.54498 -0.0455928
2070 1 17.8815 7.20969 0.401753
575 2 1.94512 10.9569 1.91255
1082 2 2.08405 9.15265 0.285958
1574 2 0.242366 8.92288 1.95316
3070 3 0.108669 10.5123 -0.00368671
576 1 3.69992 10.6792 0.0217927
1085 3 5.48715 8.94462 -0.00703237
1083 2 5.38232 10.7583 1.79814
1577 1 7.39423 10.7706 -0.0263224
1576 1 7.33729 9.00648 1.87266
1575 1 3.84135 9.28208 2.07696
14 3 10.667 10.4911 0.0648265
1087 2 8.865 10.8769 1.853
1086 3 9.08459 9.01687 0.115613
2071 2 10.706 8.86955 1.97323
580 1 12.5001 10.7744 1.8178
1088 1 14.3188 10.6016 0.00115391
2073 3 12.5618 8.82276 -0.146797
2074 3 14.243 8.80938 2.04326
15 3 17.931 9.03054 2.13321
1581 2 16.0468 10.7962 1.61024
2076 3 17.6362 10.6703 0.152251
2075 3 16.1087 8.77295 0.516539
2079 2 2.03128 12.4309 0.0540356
2078 2 2.03563 14.1772 1.90475
2077 1 0.167613 12.5451 1.58277
2572 1 0.11259 14.1468 0.00142584
2082 1 5.36262 14.1831 1.9187
2081 1 3.70564 12.7239 1.94064
2080 2 5.4941 12.3735 0.0406975
2576 3 7.19154 14.1597 0.183551
2575 2 7.09963 12.6076 2.08769
3071 2 3.78607 14.2944 0.0610611
1583 1 8.81116 13.9954 1.72982
2084 2 10.6557 14.4255 0.168996
2579 2 10.8741 12.5189 1.9009
3073 3 8.92199 12.5516 -0.0887962
2085 2 12.3855 14.4873 2.00964
2580 2 14.3097 12.5058 1.9169
3074 3 12.6588 12.4999 -0.0479981
3574 3 14.3478 14.292 0.186086
581 1 17.9259 12.6005 1.94011
1089 3 17.8543 14.1558 0.0941576
2583 2 16.207 14.4849 1.7935
3075 1 15.9142 12.5283 -0.183259
16 1 0.0616588 17.7138 -0.0304276
2086 2 1.72778 17.7435 1.94636
2584 3 0.226378 15.9598 1.79692
3076 3 1.95879 16.061 0.0849768
17 1 5.44739 16.1336 0.281889
1090 2 3.79916 17.7818 0.259025
2585 2 7.25967 18.0205 0.270887
3079 3 5.38968 17.9797 2.11913
3078 3 7.16878 16.0805 1.97525
3077 2 3.79756 16.1156 2.02101
18 2 8.9139 16.1626 0.194186
1585 3 10.7049 17.9139 0.159889
3080 1 10.7758 16.0357 1.98336
3578 3 8.98519 17.8491 2.0301
19 2 12.5074 16.1699 0.0911305
2088 2 14.0955 18.0439 0.139679
3081 2 14.2701 16.2265 1.7189
3581 2 12.3442 18.0137 1.78185
20 2 16.2824 16.2209 0.153707
1586 3 17.9565 16.1007 1.86602
3083 1 16.2105 17.6314 2.06902
3082 3 17.8586 18.0123 0.063196
584 1 1.72586 1.64569 7.28507
1564 1 -0.126344 0.0637678 3.63271
2588 3 1.79338 -0.080707 5.38221
2563 3 1.90819 1.80653 3.47143
3084 2 0.131364 -0.239995 7.32827
3583 3 0.273355 1.90466 5.36402
22 2 5.4005 1.8354 7.09543
1069 2 3.53724 0.0345297 3.61775
1566 3 7.23077 0.0610052 3.54617
2089 3 5.61216 0.182571 5.44467
2590 1 3.66453 0.138557 7.09559
2564 3 5.78285 2.0221 3.52562
3085 2 7.29273 0.17182 7.14184
3585 3 3.57261 1.96591 5.53064
3584 2 7.20448 2.18234 5.58166
586 3 8.94123 2.04354 7.01456
2066 1 10.825 -0.151496 3.67241
2593 2 9.0139 -0.165527 5.11988
2565 1 8.83257 1.95936 3.82261
3086 1 10.8876 -0.0685119 7.03412
3586 3 10.8234 1.7221 5.34686
23 3 12.5217 1.78735 7.29045
24 2 14.226 0.032644 6.98094
25 3 14.4466 1.92763 5.4669
2568 3 14.3019 0.214044 3.33339
2567 2 12.4976 1.68423 3.65827
3087 2 12.6737 -0.0154264 5.32678
568 1 17.8889 0.21132 3.5386
588 3 16.1441 1.71323 7.25969
1587 2 17.8221 0.211531 7.30664
3088 2 16.1408 -0.11151 5.4574
3588 3 17.9095 1.64204 5.31854
3564 3 16.1182 1.80584 3.77694
27 2 1.88659 5.359 7.32445
28 3 1.86312 7.08198 5.2648
589 3 -0.119967 5.40578 5.26101
2067 2 0.204143 3.64129 3.58632
3090 2 1.9595 3.78619 5.41875
3590 3 -0.0243268 7.13576 7.01227
3589 1 -0.00182573 3.83101 7.10801
3567 1 0.176203 6.952 3.60231
3566 3 1.92081 5.25253 3.51091
29 3 3.52364 3.67716 7.21292
593 3 3.75243 7.16723 7.30224
592 1 7.32778 5.3182 5.60209
591 2 7.35869 7.23054 7.32424
590 3 3.60459 5.49559 5.51331
1095 1 5.42084 5.37846 7.3925
1094 1 5.52823 7.22409 5.68168
1073 3 3.7107 7.34638 3.61827
2068 3 7.31498 7.24243 3.59623
2069 3 3.72787 3.6173 3.69656
3593 1 5.3618 3.75736 5.70845
3592 2 7.29859 3.64609 7.23853
3570 2 5.25759 5.57915 3.68549
3568 3 7.28607 3.90944 3.49821
31 2 8.98742 3.47588 5.41276
569 1 10.8171 7.106 3.53855
594 1 10.8327 5.38692 5.37039
1097 2 9.0586 5.45926 6.99831
1590 1 9.03885 7.20235 5.35592
1589 3 10.8297 7.19756 7.12202
3594 3 10.8279 3.57314 7.02779
3572 2 10.7764 3.4926 3.6866
3571 1 9.12133 5.42248 3.78697
33 3 12.5422 3.65354 5.46177
35 2 14.1748 3.71571 7.13908
571 2 12.4293 5.3958 3.61742
595 1 14.3661 7.26998 7.23679
1100 3 14.3329 5.41082 5.41278
1099 1 12.6502 5.6291 7.33072
1592 3 12.5297 7.25661 5.51206
1572 3 14.2706 7.02355 3.68224
3069 3 14.2729 3.57052 3.52304
573 3 15.9693 5.19602 3.62593
1080 1 17.8709 3.77616 3.76092
1595 2 16.1293 6.94017 5.26335
1594 3 16.1232 5.48791 7.3532
2094 2 17.8958 6.98572 7.10699
2092 3 17.7849 3.73383 7.24917
2571 1 17.9183 6.86733 3.47031
3092 1 17.8236 5.2604 5.49768
3595 3 16.1388 3.49076 5.54938
13 2 0.0974634 10.7935 3.38432
597 2 -0.0324234 10.6511 6.93108
596 3 1.76275 10.8292 5.39301
574 2 1.81806 8.9743 3.74015
1102 1 1.92605 8.8796 7.01795
1101 1 0.180893 8.90575 5.39566
38 2 3.76218 10.594 7.4374
578 1 3.74797 10.6758 3.73372
577 2 5.50187 9.14202 3.63255
1106 1 7.22947 10.781 7.25697
1104 1 5.51039 10.8009 5.67147
1103 2 3.67387 9.08167 5.60189
1084 3 7.28179 10.709 3.65579
1597 1 7.31846 8.87353 5.33108
1596 3 5.57344 8.95526 7.22047
39 1 10.7789 10.5622 7.30784
599 1 9.02956 10.8128 5.49634
579 3 10.7662 10.6769 3.58007
1107 1 9.02642 8.77412 7.27393
1578 2 8.95503 8.87992 3.63227
2097 1 10.5171 8.92249 5.48323
1108 3 12.3829 10.6644 5.41885
1598 2 12.4621 8.90083 7.23447
1579 1 12.4949 8.81906 3.87583
2072 1 14.4064 10.6665 3.57424
2099 3 14.1307 10.6313 7.14436
2098 2 14.3152 8.75474 5.30198
1599 2 16.1925 8.87456 7.18333
1580 1 16.0648 8.91148 3.57335
2100 2 16.1402 10.6077 5.56852
3093 2 17.9022 10.7172 7.27797
3597 3 17.8227 8.81657 5.22194
3573 2 17.7546 10.7657 3.66295
1110 2 -0.11564 14.3664 7.33453
1582 3 1.87665 12.6584 3.81811
2103 3 1.76608 12.3514 7.26335
2102 2 1.77824 14.1815 5.51879
2101 3 -0.0420467 12.6179 5.39992
2573 2 0.0899362 14.0664 3.51403
1112 2 7.06417 14.2078 7.24189
1600 1 5.53779 12.5907 7.19661
2104 2 5.30618 14.2929 5.37
2083 2 3.61749 14.3304 3.83168
2601 3 7.16207 12.6884 5.43169
2600 2 3.62206 12.1918 5.54916
2599 2 3.44543 14.2017 7.12939
2577 2 7.37276 14.3786 3.61022
2574 3 5.5165 12.4366 3.70551
2604 3 9.01783 14.2917 5.43992
2603 3 11.1284 14.3603 7.25029
2602 3 10.8534 12.5021 5.46505
2578 2 9.09069 12.4829 3.93622
3097 1 9.09996 12.645 7.13363
3072 2 10.643 14.4698 3.57182
602 1 14.487 14.3291 7.31765
1603 1 12.7611 12.5389 7.25314
2605 3 14.4164 12.54 5.45605
2581 3 12.724 12.5466 3.71815
3098 2 12.7387 14.3096 5.39647
3575 3 14.4757 14.3684 3.6139
1114 3 17.7946 12.4995 5.24405
1584 2 17.8015 14.199 3.42241
2582 1 15.985 12.4848 3.63031
3100 3 16.1187 14.5052 5.30179
3099 1 16.0978 12.4806 7.1444
3599 2 17.8103 14.1789 7.18041
582 2 -0.0181813 17.7625 3.5617
1605 1 1.84381 17.9323 5.5835
1604 3 1.76121 15.9925 7.18162
3104 3 0.15736 15.9623 5.48075
3103 2 -0.144232 17.8773 7.25376
3576 3 1.87861 15.9989 3.80084
2087 1 3.4952 17.8202 3.75872
2607 3 5.19485 18.0161 5.61839
2586 1 7.13456 17.8865 3.94541
3107 3 6.89368 17.9286 7.30972
3106 2 5.39411 15.9077 7.35897
3105 3 3.69168 17.7055 7.37572
3602 3 3.49916 16.1839 5.5496
3601 3 7.00497 15.9438 5.56447
3577 1 5.28144 16.0021 3.87559
1091 2 10.604 17.8318 3.69447
2107 1 9.03583 16.0344 7.1807
2608 1 8.91364 17.7575 5.60382
3109 2 10.9011 17.8106 7.1742
3603 3 10.7502 15.9846 5.62197
3579 2 9.18919 16.0104 3.65511
41 2 14.3949 16.1351 5.58465
2610 2 12.686 17.9367 5.5188
2609 1 14.2425 17.7771 7.17686
2587 3 14.2935 17.8799 3.52899
3604 2 12.6866 15.9951 7.26878
3580 3 12.617 16.1923 3.6358
583 1 16.1156 16.1271 3.67394
1606 3 17.8723 17.8365 7.09894
2109 1 16.1884 15.8467 7.30183
3112 3 15.967 17.8573 5.3265
3110 1 18.0054 16.0858 5.47737
3582 3 18.106 17.8381 3.7107
21 2 0.0187307 1.86242 9.0882
604 1 0.219262 0.135236 10.8732
2110 1 1.95742 1.59545 10.9609
2589 2 1.8973 -0.145358 8.90039
585 1 7.10129 1.87229 8.94434
1092 1 5.22808 -0.0676561 8.6306
1608 3 7.04292 0.0424381 10.5474
1607 3 3.61115 -0.239789 10.771
2111 3 5.26134 1.60601 10.5998
2591 2 3.68287 1.85165 8.98837
1116 3 10.8694 -0.034306 10.8822
2612 3 8.96239 1.82524 10.8004
2592 2 10.973 1.79388 8.91199
3587 1 9.12034 0.321279 9.03518
587 2 14.3644 1.78232 9.0512
1609 3 14.4479 0.0836275 10.8696
2090 2 12.8696 -0.0559118 8.94004
2613 1 12.4768 1.75182 10.7002
26 1 15.9592 -0.0362477 8.99365
2594 2 17.9622 1.9891 9.03996
3116 3 16.0958 1.88392 10.827
3115 1 17.9029 0.0236607 10.7171
1093 3 1.87418 7.22019 8.63673
2091 3 1.83553 3.73424 9.19735
2615 1 0.199999 3.61232 10.7577
3118 3 0.0533358 7.2439 10.7167
3117 2 2.02025 5.65359 10.6121
3089 3 0.00910164 5.55708 8.76878
30 3 5.30575 3.62436 9.11657
45 3 7.29953 7.02666 10.8114
1096 2 3.6712 5.37296 9.05475
2112 2 7.00826 3.63802 10.6481
2616 1 3.48302 3.61493 10.6896
3091 1 7.44827 5.20172 9.0382
3608 1 3.65219 7.44191 10.8925
3607 1 5.34643 5.39805 10.5861
3591 1 5.50572 7.08864 8.92835
46 1 10.5044 7.13841 10.7661
1098 1 10.5165 5.28507 8.87136
1591 2 8.99147 3.45033 8.92306
1588 2 8.97513 7.18075 8.99913
2113 2 10.7743 3.50506 10.7469
3609 3 9.02093 5.1048 10.8295
32 1 12.3551 7.18056 9.16224
34 2 12.7438 3.76234 9.0093
36 2 14.357 5.50747 9.06197
609 1 14.3532 7.00318 10.96
3119 3 14.3495 3.60926 10.8445
3611 2 12.4787 5.40565 10.735
1120 2 17.877 3.65842 10.9093
1615 2 17.6957 7.04036 10.8207
1593 3 17.8044 5.38039 8.87935
2093 2 16.0358 7.03892 9.10978
2595 3 15.9007 3.52649 8.86224
3612 1 16.0918 5.45435 10.8181
48 3 1.80177 8.79918 10.6226
2095 2 0.100067 8.93526 8.76247
2596 2 1.81062 10.7564 9.02096
3120 2 0.00275632 10.6316 10.5083
37 3 3.77539 8.96277 9.03915
49 3 5.43201 9.01293 10.6855
612 1 7.14151 10.8769 10.7864
1105 1 5.30365 10.907 8.99109
2096 2 7.2891 9.05882 9.0127
3121 3 3.59746 10.8673 10.675
613 3 8.90443 9.09926 10.6191
598 3 10.7934 9.00146 9.08044
3613 3 10.8824 10.8189 10.6349
3596 2 8.90516 10.7515 9.01208
50 1 14.3409 10.7401 10.9482
614 2 12.7311 9.00131 10.7599
2598 2 12.8895 10.6497 9.16567
2597 3 14.4681 8.88696 9.07169
51 1 17.8807 10.7044 10.7476
600 3 17.8507 8.8058 9.25091
1122 1 16.1724 8.8509 10.8289
1109 3 15.9346 10.7211 9.08084
616 2 0.0461452 14.409 10.8175
601 2 0.00473452 12.5471 8.98327
1123 2 1.86713 12.5636 10.7568
3094 1 1.64958 14.262 8.86669
1124 3 5.39767 12.4804 10.8612
1111 2 5.57219 14.0343 8.95098
1619 2 7.2067 14.2748 10.6596
1618 3 3.46021 14.2055 10.6779
1601 3 7.37952 12.5234 8.95098
3095 2 3.45935 12.4803 8.82565
617 2 10.8127 14.7584 10.8559
1125 2 9.30813 12.6248 10.4824
3096 1 8.96194 14.4021 8.80598
3598 1 10.974 12.4832 8.72932
1126 1 14.3078 14.2449 10.6053
1113 1 12.6727 14.4553 8.97917
1620 3 12.5862 12.5836 10.6289
1602 3 14.3411 12.6516 8.82989
1621 2 16.0918 12.4361 10.8185
3126 3 17.8446 14.3617 10.8187
3102 3 16.1895 14.1817 9.0115
3101 2 17.8802 12.4546 8.87232
1623 2 0.0221482 17.816 10.6677
2119 3 1.86667 16.0252 10.6446
2606 3 1.75366 17.8696 8.94961
3600 1 -0.0265433 16.0792 9.15032
40 3 7.25703 15.996 9.03418
619 2 3.56793 17.6845 10.6372
1127 1 7.23058 17.81 10.7064
2120 2 5.37 15.9877 10.7085
2106 2 3.65069 15.9931 8.96708
2105 1 5.41759 17.7976 8.91231
1624 2 10.7553 17.7708 10.8066
2108 3 10.8279 16.2274 8.99708
2625 1 8.7549 16.0972 10.6968
3108 1 8.88563 17.8943 8.73042
603 2 14.2933 16.2048 9.05648
1115 1 12.471 17.7695 8.90881
2626 1 12.6637 16.207 10.631
3620 1 14.3295 17.9042 10.8667
2628 1 16.0555 16.0161 10.6601
2611 2 18.0875 16.2237 8.89431
3127 2 18.0117 17.8655 10.8669
3111 1 16.1487 17.872 8.96478
42 3 0.133218 1.71426 12.7197
2121 1 0.109497 -0.0470263 14.3298
2629 2 1.95922 1.84013 14.2888
3113 2 1.94838 -0.0748397 12.4891
43 3 3.78337 1.72212 12.7026
605 2 7.29422 1.73454 12.4011
1625 2 7.07946 -0.00958675 14.3745
2123 1 3.73083 0.199955 14.311
3128 1 5.60821 1.92925 14.2676
3605 2 5.44685 0.0452181 12.6316
606 3 10.7608 1.55829 12.5217
1627 1 10.7572 0.012975 14.3496
3129 1 8.61739 1.79367 14.3223
3606 3 8.96863 -0.113359 12.46
1117 3 14.2645 1.77704 12.619
2632 2 14.2916 -0.137273 14.3557
3131 2 12.4933 1.72327 14.381
3114 3 12.4793 -0.0809028 12.6161
44 3 16.0227 0.0210716 12.6656
501 2 17.7684 0.0711778 14.3319
2614 1 18.0005 1.72804 12.3864
3132 1 16.0995 1.62126 14.2714
607 3 1.98296 3.59011 12.4534
1119 2 1.90501 7.07167 12.6192
1118 1 0.0157721 5.52103 12.4361
2634 1 0.208146 6.97778 14.2285
2633 3 0.0959091 3.68519 14.2352
3624 1 1.94279 5.39121 14.1478
60 3 7.29552 7.29379 14.2672
608 2 5.26578 3.63556 12.5153
1612 2 7.0915 5.01891 12.5629
1611 3 5.43256 7.23914 12.6918
1610 2 3.71387 5.44458 12.4714
2128 1 7.26494 3.63389 14.2377
2126 2 3.56934 3.4629 14.3679
3136 2 3.83585 7.19094 14.298
3626 3 5.53993 5.4386 14.2503
1613 3 10.6094 5.32681 12.5833
2114 2 9.23285 7.21086 12.8673
3137 1 10.7422 3.48546 14.2567
3629 3 8.98671 5.3374 14.357
3628 2 10.8412 7.11702 14.5185
3610 3 9.19819 3.42886 12.5766
610 3 12.5735 3.79493 12.5862
1614 2 14.3758 5.62111 12.6129
2617 3 12.4617 7.10011 12.3858
3138 2 14.3824 3.74128 14.6116
3631 3 14.3081 7.21611 14.4327
3630 1 12.4297 5.32017 14.4954
47 2 17.905 5.43669 12.4602
65 1 16.1215 5.41449 14.3273
1138 3 17.85 3.38866 14.2358
1121 3 16.0221 3.65012 12.6515
2618 3 16.2113 7.24831 12.6918
3140 1 18.0296 7.23177 14.2815
67 3 1.85887 9.05713 14.3873
611 2 1.76209 10.573 12.4849
2115 1 -0.00746294 9.01091 12.4743
2636 2 0.0957007 10.6231 14.212
69 1 7.15639 10.7631 14.3083
70 2 5.38535 9.09471 14.1904
1616 2 5.33481 10.6423 12.3097
2116 2 3.59604 9.00078 12.4538
2619 1 7.1886 9.18611 12.7144
3633 2 3.49398 10.6253 14.1113
71 3 9.1774 9.1024 14.2194
2117 3 9.0389 10.9929 12.4861
2620 3 10.6983 8.90049 12.4226
3141 3 10.6782 10.8291 14.2931
510 3 12.5134 8.87176 14.1643
1617 2 12.6167 10.7237 12.4141
3122 3 14.3079 8.91915 12.8114
3635 3 14.3622 10.7095 14.3857
511 1 16.2256 8.89222 14.4273
615 3 17.9592 8.93099 12.5479
1639 1 17.7879 10.829 14.6201
2118 3 16.2731 10.6243 12.6852
513 3 0.0973094 14.291 14.2824
514 1 1.81954 12.5235 14.0613
2621 3 0.104017 12.3781 12.4007
3123 1 1.80953 14.2955 12.5462
72 3 7.31454 14.2373 14.2147
515 3 5.46278 12.3974 14.1413
516 1 3.45811 14.4568 14.2708
3125 3 7.24622 12.5156 12.4847
3124 3 3.53928 12.5623 12.446
3614 3 5.40758 14.2413 12.7806
73 1 11.144 14.3051 14.0927
1145 1 9.15129 12.6244 14.2379
3616 2 10.8964 12.6175 12.3078
3615 3 8.87544 14.2785 12.4312
1147 1 12.6743 12.5468 14.1399
1146 1 14.0098 14.3953 14.3277
2622 3 12.7451 14.2245 12.2506
3617 2 14.536 12.4748 12.6629
1149 1 15.9162 12.5419 14.4641
1622 1 17.8354 12.6798 12.6791
3146 1 17.975 14.2162 14.305
3618 1 16.0884 14.2973 12.6321
52 1 0.0643778 16.2926 12.403
518 1 -0.143939 17.9257 14.2946
1150 3 1.86604 16.3602 14.2066
2623 3 1.87786 17.7891 12.4132
53 3 3.53869 16.0631 12.378
618 1 7.0397 15.9862 12.3477
1151 3 3.66172 18.1544 14.4231
1642 2 5.28786 16.3211 14.0578
2142 1 7.09288 17.8762 14.1979
2624 1 5.11022 17.8222 12.4401
54 1 10.7814 16.0993 12.5208
1643 1 8.92921 16.0233 14.1429
2649 2 10.667 17.7625 14.3137
3619 3 8.90124 17.7788 12.4492
55 3 12.4998 17.9427 12.4536
620 3 14.2806 16.0663 12.4854
1646 3 12.5052 16.3074 14.2718
1644 3 14.3502 17.9419 14.2665
56 3 15.9736 17.808 12.5664
1647 2 15.9939 16.0421 14.2778
2627 1 17.8296 16.1433 12.5865
3644 1 17.8014 17.7952 14.4557
57 3 1.81813 0.108377 16.0287
621 1 0.18774 1.83475 15.8594
1128 2 0.0599411 0.325055 17.5212
2122 2 1.96274 1.91121 17.5701
58 1 5.62458 -0.114013 16.1186
1132 1 7.20175 0.107623 17.8313
1131 3 7.35207 1.88671 16.1768
1130 3 3.80216 0.0100506 17.6937
1129 1 3.85296 1.99947 16.0482
2630 2 5.47472 1.93884 17.7654
1133 3 10.4524 1.80793 15.9878
1626 2 10.8232 -0.0317165 17.8524
2631 2 8.98435 2.01827 17.9536
3621 1 8.85721 0.0858886 16.1391
59 3 12.6348 -0.132997 16.0934
1134 3 14.4872 1.81629 16.076
2124 2 14.4199 -0.120168 17.8898
3130 3 12.3734 1.80459 17.6945
502 2 16.1494 -0.209428 16.0395
3133 2 16.3874 1.69046 17.8213
3623 3 18.0746 -0.0328117 17.8504
3622 3 18.0509 1.65028 16.0792
503 3 1.71004 3.71017 16.0261
504 3 1.67012 7.07021 16.0488
1628 1 0.0729221 5.16968 16.2686
2125 3 -0.0471204 3.43357 17.7927
3134 1 -0.0392322 7.16056 17.7969
3625 2 2.01996 5.56647 17.934
61 3 5.46749 3.69001 15.943
505 1 3.8395 7.23459 17.788
1135 3 7.10357 7.33358 17.7971
1631 3 5.70347 7.20376 16.0128
1630 1 3.73928 5.29691 15.9262
1629 2 7.14888 5.3694 16.2202
2127 1 3.59062 3.64582 17.7205
3135 3 7.45282 3.73164 17.8512
3627 2 5.26488 5.51331 17.8247
62 2 8.93906 5.55215 17.9192
63 2 10.7718 7.24838 17.7684
506 3 9.12008 3.77589 16.0884
1632 3 10.8314 5.49064 16.1718
2129 3 8.99147 7.26825 16.2118
2635 2 10.9778 3.56767 17.8109
64 2 12.6519 5.60937 17.9246
1137 2 14.4565 7.21012 17.8489
1136 1 12.4533 3.55541 15.9028
2131 1 14.4007 5.50457 16.3707
2130 3 12.5826 7.39799 16.291
3139 1 14.2605 3.54696 17.8847
66 3 17.9522 5.40489 16.0284
507 3 16.2731 5.33041 17.8981
1140 1 18.2025 3.51683 17.8012
1139 1 16.3269 3.40849 16.19
1634 2 17.945 7.20422 17.9634
1633 1 16.0792 7.30247 16.1552
508 3 1.77788 8.94218 17.8875
1141 3 1.73393 10.8857 16.1561
2132 2 -0.0381745 8.97808 16.0446
3632 3 -0.231326 10.7112 17.9494
68 2 3.65529 10.9121 17.7213
509 1 7.20235 10.9315 17.6717
1142 2 5.35592 9.05074 17.8936
1635 3 5.43855 10.8324 15.9453
2134 3 7.26699 9.08524 16.1112
2133 1 3.80496 8.96633 16.3095
1143 1 9.10139 9.1424 17.7398
1636 3 9.01157 10.9129 16.0097
2637 3 10.7763 9.23053 16.1221
3634 2 10.7147 10.7622 17.9933
1144 3 12.4768 10.8727 16.0524
1638 1 12.5243 9.22533 17.8366
1637 2 14.2308 10.7189 17.7871
2638 2 14.2398 9.01269 16.1501
512 3 17.9158 8.95165 16.2242
1640 2 16.1353 8.99563 17.8388
2135 2 16.1053 10.7162 16.2338
2639 2 18.0189 10.6818 17.779
2137 1 0.109058 14.5158 17.6609
2136 2 1.73197 12.4359 17.8822
2641 3 1.82208 14.1198 16.019
2640 2 -0.113201 12.4957 16.0072
2140 1 6.81491 14.3526 17.8927
2139 3 3.75833 14.2501 17.8627
2138 1 5.25194 12.4834 17.7648
2643 3 5.45179 14.2741 15.5985
2642 3 3.58639 12.5596 15.8147
3142 2 7.22889 12.5669 15.9574
2141 3 8.96912 14.3029 16.0774
2645 3 9.01979 12.5319 17.7661
2644 3 10.8207 14.4038 17.9919
3143 2 10.9135 12.5881 15.954
2647 2 12.5581 14.3458 16.0392
2646 3 12.504 12.61 17.7463
3145 1 14.3405 14.3963 17.8212
3144 1 14.2885 12.2566 16.0393
517 3 17.711 14.5009 17.9632
1148 3 17.7189 12.7029 16.2376
3148 1 15.9791 14.4548 16.0969
3147 1 16.1535 12.474 17.8633
2648 2 1.54466 17.957 16.0111
3150 1 2.02983 16.0936 17.5653
3149 1 0.0891563 15.8197 15.897
3636 1 -0.028871 17.7335 17.8025
1641 3 3.58889 17.8601 17.7061
2143 2 7.23051 17.9437 17.7165
3640 1 5.46269 17.9882 15.9883
3639 2 7.24957 16.0735 15.7676
3638 3 5.46135 16.2944 17.7599
3637 2 3.75948 16.0609 16.0303
74 2 8.85687 17.9561 15.9379
519 1 10.6732 17.8822 17.8082
3642 3 8.88713 15.9039 17.981
3641 3 10.7384 16.0556 16.1406
75 3 12.3346 16.1735 17.9884
76 3 12.5233 17.8592 15.9907
1645 3 14.1234 17.9436 17.817
3643 2 14.1316 15.984 16.1729
77 2 15.819 16.1948 17.9249
2144 2 17.8234 16.057 16.0822
2650 1 17.915 17.8301 17.8458
3645 2 16.0306 17.775 16.0605
520 1 0.294461 0.121051 21.4551
78 3 0.109698 1.92184 19.5695
2145 1 1.97997 1.92033 21.2791
3151 3 1.83513 -0.0349591 19.3787
521 1 3.66559 -0.2693 21.2321
80 2 3.86612 1.94327 19.5185
79 2 7.34635 2.03025 19.3935
2147 2 5.56392 2.04239 21.3195
2146 2 7.29059 0.0989123 21.2814
2651 1 5.33368 -0.0370044 19.6399
81 3 10.777 1.80997 19.4983
1648 1 10.803 0.0708029 21.415
2652 2 9.11414 1.8634 21.4012
3152 3 8.95166 -0.00321701 19.6261
522 1 14.2867 1.67335 19.4857
1649 1 14.2933 0.0361758 21.3448
2653 1 12.6843 1.88341 21.1709
3646 1 12.4318 -0.300286 19.4616
82 1 17.842 0.230548 21.5042
2654 2 18.0802 1.739 19.5719
3153 1 15.9615 1.84911 21.3215
3647 1 16.3238 -0.0354605 19.6387
523 2 0.105465 5.20019 19.4773
84 1 1.76002 7.30402 19.6445
83 2 0.144452 7.069 21.2485
1650 3 0.0936748 3.61028 21.5112
3155 1 1.95126 5.38556 21.3003
3154 2 1.85062 3.59804 19.6511
524 3 3.63055 5.4511 19.4919
525 1 7.13142 5.7315 19.7452
526 3 3.89818 7.21448 21.3873
1153 3 7.17758 7.55787 21.3859
1152 2 5.4646 7.17186 19.4554
2655 1 3.97986 3.6913 21.2451
3156 3 7.28691 3.72706 21.193
3649 2 5.67558 3.83561 19.6667
3648 2 5.51347 5.36126 21.4625
86 1 10.8769 7.25327 21.542
85 1 9.04524 3.59058 19.613
1155 3 10.9672 5.47293 19.7103
1154 1 8.98483 7.1143 19.5537
2656 3 10.9547 3.50307 21.4535
3650 3 9.04187 5.49188 21.5089
527 3 12.4356 7.28237 19.4556
88 1 12.6462 5.4052 21.3441
87 3 12.5835 3.51648 19.6194
1156 3 14.5285 5.43037 19.6584
2148 3 14.3418 7.20437 21.3017
2657 1 14.3359 3.66513 21.4891
528 1 17.9874 3.44531 21.2495
89 3 16.2263 5.3038 21.3995
1157 3 16.1644 7.25817 19.6462
3158 3 17.9887 5.21363 19.6813
3157 3 17.8985 7.34995 21.5111
3651 1 15.9746 3.51247 19.6226
529 2 1.79068 8.9305 21.5178
530 1 1.8956 10.7218 19.4926
1158 3 -0.0230843 8.89888 19.7119
3652 2 0.309964 10.8648 21.1853
531 3 5.37615 9.13127 21.1432
532 3 5.39552 11.0105 19.5571
533 2 7.11332 10.8751 21.037
1159 1 3.61385 9.06548 19.627
1651 1 7.15474 9.34468 19.365
3653 2 3.59706 10.8417 21.5232
90 2 9.0265 10.7123 19.5624
1161 3 9.01496 8.88341 21.3777
1160 2 10.7115 10.6919 21.3761
1652 3 10.8284 8.90073 19.6456
534 1 12.5729 10.9914 19.6751
1162 3 12.6416 8.81675 21.285
1654 3 14.2 10.7063 21.3055
1653 3 14.1757 8.98523 19.7278
1656 3 15.9605 10.7174 19.5967
1655 2 15.9657 9.08958 21.3253
3159 1 17.9117 10.847 21.3502
3654 2 17.8455 9.071 19.6475
1660 1 0.130688 14.3255 21.3618
1659 3 1.93142 14.2969 19.3103
1658 3 1.88039 12.5328 21.3399
1657 3 -0.0435526 12.5278 19.5243
1163 1 5.25122 14.5275 19.6369
1661 1 3.69932 14.3497 21.5455
2151 2 7.50849 12.5558 19.445
2150 3 5.54281 12.7331 21.2219
2149 3 3.72268 12.6141 19.6548
3160 1 7.24398 14.3403 21.2614
1662 1 9.06104 14.2636 19.6198
2153 2 8.97554 12.4973 21.5256
2152 3 10.724 12.5328 19.7142
2658 1 10.7255 14.1583 21.5952
2155 1 14.2795 12.6979 19.4532
2154 3 12.5762 14.292 19.292
2660 1 14.2051 14.4175 21.5007
2659 3 12.5378 12.7969 21.3864
535 2 17.6662 12.6152 19.6195
1164 2 17.9335 14.2327 21.4376
2156 2 15.9234 14.4704 19.682
2661 3 15.8896 12.5777 21.2243
1165 1 0.144307 17.8332 21.1695
2157 2 1.82306 17.7881 19.6098
2662 1 0.310023 15.9227 19.4661
3161 2 1.85989 15.9387 21.3553
1664 1 6.9967 18.0616 21.3294
1663 1 3.66755 17.9394 21.2752
2664 2 3.44586 16.0454 19.5074
2663 2 7.1766 16.209 19.6735
3163 3 5.31433 15.9156 21.4579
3162 1 5.32199 17.8294 19.5154
536 2 10.5727 17.8131 21.4867
2665 2 10.725 16.2697 19.7348
3164 3 8.87457 17.8548 19.7354
3655 2 8.82393 16.1377 21.2856
2666 3 12.558 17.8293 19.7596
3166 1 14.1532 16.2366 19.6942
3165 2 14.2426 18.1079 21.5545
3656 3 12.421 16.2523 21.4969
92 2 16.0908 16.2157 21.4734
91 1 17.7314 17.8834 21.4422
1166 2 17.7296 16.3198 19.5748
3167 1 15.787 18.0723 19.605
93 2 1.98919 1.80609 24.8925
1665 2 1.87785 -0.0189081 23.1682
2667 1 0.269163 0.148446 25.0324
3168 1 0.228602 1.92608 23.5009
2158 3 5.5902 0.0990468 23.103
2670 2 3.77606 -0.0411251 24.8961
3170 2 7.32864 1.81801 23.0412
3169 2 3.53494 1.73951 23.1551
3659 1 7.222 0.274619 24.8579
3658 1 5.40543 1.80735 25.0805
537 3 8.98031 1.86585 24.8797
2671 3 8.98011 0.149457 23.0639
3171 1 10.9356 0.0231168 25.0425
3660 3 10.8669 1.85152 23.2594
2673 1 12.5603 0.0420814 23.0797
3663 1 14.2679 1.8859 23.0772
3662 1 14.2499 -0.0500116 25.151
3661 2 12.5351 1.83842 24.9067
539 2 15.8686 1.91716 24.9314
1167 2 17.9439 0.0746837 25.1513
1668 1 17.9819 1.89936 23.2682
2160 1 15.8627 0.0075377 23.3424
99 3 2.11144 5.36231 24.8289
98 1 2.06505 7.19872 23.112
97 2 0.0642596 7.08223 24.868
96 3 0.288007 5.44515 23.0375
3173 1 1.64779 3.70796 23.2626
3172 3 0.346836 3.75016 25.2137
540 2 3.60892 7.33043 24.8219
541 1 5.52008 7.36963 23.292
542 1 7.20174 5.62941 23.0276
543 3 5.63074 5.4307 25.0546
101 1 7.02035 7.2339 25.0705
100 3 3.75546 5.26292 23.0492
2675 3 7.26893 3.6834 24.8462
3175 1 3.87561 3.45676 24.779
3665 1 5.8217 3.45374 23.1407
546 2 8.87206 7.35456 23.1277
547 3 8.98756 5.37231 24.9259
102 3 10.7056 5.39815 23.0983
1170 2 10.5334 7.2807 24.8199
3177 3 10.5415 3.52507 25.0492
3666 1 8.98671 3.44225 23.0733
548 1 14.4027 5.48395 23.0348
549 2 12.4852 5.51212 24.7813
105 1 14.3058 3.73144 24.9278
1670 2 12.5638 7.28768 23.0531
3179 2 12.573 3.85186 23.2598
3667 1 14.3691 7.04106 24.8955
1172 2 16.0329 5.34274 24.8743
1672 3 17.814 3.66995 25.1155
1671 2 15.796 7.33949 23.1687
2678 1 17.6455 7.21194 24.9823
2677 1 17.8577 5.58601 23.2774
3668 2 16.2292 3.62955 23.0449
550 3 -0.00358156 8.86502 23.1728
106 3 1.92616 10.6571 23.1203
1175 1 1.82056 8.88481 24.8005
3669 3 -0.0814543 11.0043 25.0111
108 2 5.21756 10.9479 23.0866
1180 3 7.17578 10.9061 24.9623
1178 2 7.0568 9.39424 23.0723
1177 2 3.70431 8.98286 23.1647
1176 1 5.39479 9.1565 24.9071
3670 2 3.68854 10.7832 24.9093
551 1 10.6777 10.6672 24.9178
552 3 9.05028 10.7009 23.0459
1181 2 8.77398 8.97661 25.2059
1674 3 10.971 8.96582 23.111
1182 2 12.4202 10.8136 23.1753
1676 3 12.5608 8.93838 25.0505
1675 1 14.1438 8.96583 23.1363
2163 3 14.2006 10.7777 24.941
1183 3 15.9745 9.06486 25.0237
1677 3 15.8827 10.7963 23.2387
2165 2 17.7419 10.7196 25.0899
3671 2 17.622 8.90492 23.2684
555 1 0.0136144 14.153 24.875
1184 2 1.7593 14.3113 23.2379
1678 3 1.76805 12.6158 24.9801
2166 3 -0.0208818 12.3635 23.0722
113 3 7.08233 14.359 25.0901
1185 3 5.23514 12.5212 25.1222
2170 1 5.50262 14.2567 23.1513
2169 3 3.4515 12.6433 23.4153
2168 2 3.66805 14.4511 25.1301
2167 1 7.15162 12.439 23.2698
1680 1 10.6915 14.2021 24.7416
2171 2 10.7786 12.4917 23.1798
2682 1 8.96539 14.2712 23.1099
2681 1 8.9018 12.6354 25.124
114 2 14.1766 14.5096 24.9527
1681 3 12.4938 12.7049 24.9662
2684 2 14.1801 12.3543 23.1583
2683 3 12.5401 14.4915 23.2747
557 1 17.8502 12.6878 23.2579
2173 1 15.9348 14.2405 23.0728
2685 2 15.9008 12.5832 24.7149
3183 1 17.7697 14.3925 25.0406
1684 1 1.84571 16.1331 24.9299
1683 2 1.80533 17.7288 23.2029
2688 3 0.0693976 15.9867 23.1679
2687 2 0.202693 17.8075 25.0068
2175 1 6.92529 17.7623 24.8784
2174 2 5.36306 18.0564 23.032
2689 2 3.62481 17.931 24.9183
3187 1 5.34729 16.4522 25.0011
3186 1 6.97821 16.1051 23.1246
3185 3 3.57153 16.0687 23.3956
1687 3 8.94949 18.0927 23.2677
1686 3 9.06408 16.1142 24.9828
2177 2 10.6688 18.1185 25.0288
3675 1 10.5509 16.2544 23.2115
2178 2 14.2979 17.9755 25.0246
2690 3 12.4842 17.9554 23.3757
3188 1 12.5025 16.2046 24.8479
3676 1 14.3531 16.0987 22.9079
1187 1 17.9681 16.2244 23.2136
1186 2 17.7509 17.91 24.9561
1689 1 15.7194 16.1653 24.7788
3189 1 16.1688 18.0937 23.1013
1188 3 -0.101748 0.13798 28.5175
2180 3 1.9193 1.74375 28.4706
2668 2 1.94311 -0.173408 26.881
3657 1 0.0269277 1.77406 26.8502
559 2 7.04469 0.246843 28.5431
94 1 7.19549 1.9148 26.853
1189 1 3.43942 0.0249794 28.6041
1666 3 5.43842 0.0425792 26.655
2181 1 5.45104 1.80079 28.6832
2669 2 3.73077 1.78553 26.8269
560 3 10.6532 0.273328 28.4345
95 3 8.94151 0.0988911 26.6437
2182 3 8.82014 1.75591 28.5911
2672 3 10.7846 1.80828 26.6815
538 1 14.2994 1.75973 26.7676
1667 2 12.5548 0.0625206 26.8403
2184 2 12.666 1.93607 28.5558
2183 2 14.4705 -0.0113415 28.6073
2159 2 17.6124 1.85634 26.8281
3193 2 15.9131 2.10811 28.5742
3679 1 17.7315 -0.142218 28.5478
3664 1 16.1007 0.101694 26.7403
1168 3 1.97639 3.55611 26.7496
1669 1 1.65979 7.09382 26.5748
2186 1 -0.0608006 7.11529 28.4912
2185 1 0.398048 3.69439 28.3404
2674 2 -0.0665877 5.53772 26.8203
3194 3 1.92 5.61369 28.6824
544 1 3.68488 5.56084 26.7265
563 3 7.19386 7.0733 28.6935
1691 3 7.24594 3.72753 28.362
1690 3 3.62358 3.62428 28.5985
2676 1 7.12591 5.40518 26.6944
3196 2 3.55151 7.34058 28.5357
3195 1 5.48518 5.47627 28.5945
3176 1 5.29897 3.63794 26.9296
3174 2 5.28599 7.31703 26.5781
545 1 10.7717 5.42047 26.6297
1171 1 8.91477 3.46005 26.7575
1169 1 8.75714 7.1002 26.6327
2694 1 10.7253 3.37118 28.4671
3197 3 9.00944 5.31177 28.4006
3681 2 10.8302 7.11525 28.4004
104 3 12.5119 3.73338 26.643
103 1 14.0203 5.46365 26.6505
2695 2 14.2498 3.67437 28.3196
3178 3 12.4403 7.18884 26.6524
3684 1 14.0103 7.36818 28.5241
3683 2 12.5572 5.60567 28.3699
622 1 17.7918 3.8791 28.7404
1004 2 17.7634 7.36939 28.4704
1174 1 15.7245 7.1914 26.745
1173 2 17.7495 5.70905 26.7582
3180 2 16.1078 3.73413 26.8326
3685 2 16.0111 5.5707 28.5499
1673 2 0.101949 8.99189 26.6858
2161 2 1.8109 10.7082 26.7323
2696 3 -0.025995 10.9333 28.5682