ITEM: TIMESTEP
5000
ITEM: NUMBER OF ATOMS
4000
ITEM: BOX BOUNDS pp pp pp
1.2211673363090014e-01 3.5611943266369082e+01
1.2211673363090014e-01 3.5611943266369082e+01
1.2211673363090014e-01 3.5611943266369082e+01
ITEM: ATOMS id type x y z
1 2 0.210551 1.94409 1.90426
1563 2 0.118599 0.148229 0.169596
2064 2 1.88279 1.99399 0.134047
3561 1 1.99137 0.12035 1.81277
564 3 3.91055 1.83132 1.7278
565 1 7.09004 1.84779 2.06089
1565 3 7.3922 0.0410262 0.133028
2065 2 3.59366 0.174931 0.0107445
3061 2 5.53712 1.5699 0.133795
3562 1 5.48309 0.0948834 1.87765
566 3 10.8016 1.80159 1.87811
1070 2 10.8058 -0.149193 0.159276
3063 1 8.96959 0.149399 1.98302
3062 3 9.23545 1.82484 0.30072
567 2 14.2801 1.84769 1.74711
2566 2 14.3541 -0.0696038 0.0649458
3064 3 12.5183 1.65996 -0.0132801
3563 1 12.5183 -0.0485748 1.87369
2 1 18.0537 0.231505 0.170768
3 2 16.0996 0.0966793 1.7315
3066 3 17.9961 1.88988 1.84267
3065 2 16.1286 1.90106 0.149415
4 1 1.87467 5.51398 0.105328
5 3 1.96738 3.77627 1.92696
6 3 1.93186 7.25503 1.79246
1071 2 0.0158673 5.53086 1.79324
3067 2 0.269067 3.66932 0.0990751
3565 2 0.0856235 7.43526 0.150829
7 3 5.40351 5.46627 0.180788
8 1 3.78184 7.3209 -0.0520616
1072 3 7.3628 5.37999 1.85751
1075 1 5.3666 7.23843 1.86508
1074 2 3.77813 5.58379 1.773
1567 3 7.17252 7.28536 0.0886454
2570 3 7.09296 3.52282 0.251781
2569 3 3.83698 3.57225 0.00531922
3569 2 5.42835 3.61062 1.90907
9 3 8.87407 5.27345 0.173215
10 3 9.04294 3.4919 1.91193
1077 2 10.8038 7.14512 0.153681
1076 3 10.6842 5.39501 1.92923
1568 1 9.0217 7.20426 1.96333
3068 1 10.839 3.56611 0.273312
11 2 12.527 5.40559 0.145005
12 2 14.3656 3.52865 0.245941
570 1 12.5604 3.38353 1.91409
1571 3 14.3828 7.07835 0.184589
1570 1 14.4353 5.29044 1.89276
1569 2 12.6006 7.20077 1.99597
572 1 16.124 3.6018 1.7998
1081 1 16.2266 7.26296 1.9217
1079 2 17.8504 5.38502 1.73053
1078 2 16.0816 5.32484 -0.000614183
1573 3 17.9638 3.58768 0.134028
2070 2 17.7643 7.21914 0.136477
575 3 1.75651 10.7266 2.02673
1082 3 2.05202 8.97606 0.0725386
1574 2 0.142911 9.03133 2.01381
3070 3 0.287081 10.6914 0.0800094
576 2 3.76795 10.7842 0.155543
1085 3 5.43642 9.09644 0.0970143
1083 1 5.23981 10.8074 2.0375
1577 1 7.29181 10.7674 0.232689
1576 2 7.09956 9.0282 1.83839
1575 2 3.89997 9.0951 1.93042
14 3 10.6223 10.7662 0.204361
1087 1 9.04592 10.7726 1.92735
1086 3 9.10813 8.94491 0.0720765
2071 2 10.9296 9.00288 2.00145
580 3 12.4789 10.787 1.89645
1088 3 14.165 10.7823 0.186638
2073 3 12.4039 8.7967 0.0686347
2074 1 14.3551 8.96424 1.85393
15 1 18.0021 8.97361 1.88564
1581 1 16.3147 10.7096 1.92111
2076 2 17.6464 10.8042 0.12357
2075 2 16.0694 9.00596 0.0737316
2079 3 1.8869 12.5372 0.155576
2078 1 2.02431 14.4404 1.89559
2077 3 0.31745 12.5006 1.99972
2572 3 -0.0731916 14.2621 0.24173
2082 1 5.34815 14.3757 1.90733
2081 3 3.55193 12.4965 1.8768
2080 3 5.37082 12.6245 0.1647
2576 2 7.3862 14.2099 0.337949
2575 3 7.19776 12.5376 1.94524
3071 2 3.64776 14.2277 0.272192
1583 3 9.15779 14.3828 1.99457
2084 2 10.8604 14.3174 0.117455
2579 2 10.732 12.5772 1.89565
3073 3 9.01742 12.5706 0.127995
2085 1 12.5107 14.261 1.93945
2580 3 14.519 12.594 1.87018
3074 3 12.607 12.5295 0.138363
3574 3 14.2992 14.2434 0.263413
581 3 17.9215 12.6375 1.89677
1089 1 17.8828 14.2759 0.125913
2583 3 16.0605 14.3796 2.06773
3075 1 15.8314 12.5083 0.154664
16 1 0.158457 17.9279 0.201845
2086 2 1.86191 17.817 1.9381
2584 3 0.0666268 15.9688 1.8432
3076 3 1.87199 15.9695 0.0698278
17 1 5.34956 16.0931 0.0415651
1090 2 3.59522 17.7714 -0.035744
2585 2 7.35329 17.9104 0.20748
3079 3 5.47999 17.9651 1.76884
3078 1 7.26417 16.1619 1.79733
3077 2 3.70334 16.24 1.84558
18 2 9.07046 16.0313 0.133097
1585 2 10.6494 17.7597 0.12829
3080 3 10.7695 16.0607 1.94827
3578 2 9.02674 17.7264 1.89323
19 1 12.5534 16.0758 0.356724
2088 2 14.4188 17.7587 0.123665
3081 2 14.2009 16.1861 2.03405
3581 3 12.5267 17.7475 1.81925
20 1 16.1757 16.0498 0.27157
1586 2 17.8721 16.1388 2.07544
3083 2 16.1569 17.9806 2.03302
3082 2 17.8529 17.6996 0.177884
584 1 1.93254 2.06669 7.29064
1564 3 0.217638 0.190699 3.68061
2588 1 1.93824 0.0707691 5.44782
2563 2 1.95051 1.85544 3.54816
3084 1 0.234619 -0.0917963 7.08276
3583 2 0.182571 1.9751 5.44364
22 1 5.4266 1.91938 7.12189
1069 2 3.62121 0.0580864 3.564
1566 1 7.18348 0.0794609 3.674
2089 1 5.37552 0.0562186 5.43031
2590 1 3.6514 0.243517 7.11486
2564 2 5.45393 1.82448 3.67375
3085 1 7.26617 0.138723 7.26634
3585 3 3.64594 2.01412 5.36095
3584 3 7.14069 1.76204 5.30835
586 3 8.91577 1.89477 7.27756
2066 3 10.8155 -0.0521268 3.6491
2593 1 9.02647 0.179592 5.43721
2565 3 9.22294 1.77147 3.69385
3086 3 10.85 -0.00622502 7.16575
3586 3 10.8941 1.9 5.57494
23 2 12.6443 1.79328 7.3125
24 3 14.427 0.00183796 7.27103
25 1 14.3354 1.73868 5.38624
2568 2 14.448 0.157024 3.65106
2567 1 12.551 1.71717 3.7788
3087 3 12.66 0.0417856 5.3673
568 3 17.8864 0.251856 3.59001
588 2 16.0864 2.05743 7.21772
1587 1 17.7968 0.182249 7.18635
3088 1 16.3041 0.0507464 5.379
3588 1 17.8301 2.00894 5.35391
3564 3 16.1102 2.04223 3.68861
27 1 1.81071 5.40015 7.13761
28 3 1.74425 7.22418 5.39643
589 2 0.0801705 5.50974 5.44634
2067 1 0.319188 3.76665 3.59707
3090 2 1.72004 3.82027 5.36695
3590 2 0.318464 7.38794 7.36782
3589 1 0.0333081 3.72664 7.19102
3567 1 -0.00869095 7.05267 3.58696
3566 2 1.96991 5.55468 3.59321
29 1 3.75308 3.6542 7.12601
593 3 3.63972 7.11514 7.1949
592 1 7.11164 5.52476 5.3968
591 2 7.19839 7.1735 7.19395
590 2 3.78739 5.33859 5.50221
1095 3 5.4852 5.46227 7.22247
1094 2 5.34258 7.32041 5.46354
1073 2 3.78891 7.17731 3.77291
2068 1 7.26586 7.08195 3.84463
2069 2 3.73716 3.73321 3.68612
3593 2 5.57052 3.62271 5.40636
3592 1 7.09196 3.61244 7.23752
3570 2 5.44963 5.51952 3.53201
3568 2 7.35258 3.61525 3.63625
31 1 8.92408 3.60554 5.50954
569 1 10.8132 7.1253 3.56973
594 1 10.839 5.31709 5.40932
1097 2 9.09245 5.42676 7.15293
1590 3 8.95981 7.11773 5.44821
1589 3 10.7338 7.25554 7.33339
3594 2 10.7595 3.62285 7.20999
3572 1 10.7909 3.76421 3.56287
3571 2 8.84776 5.21779 3.54513
33 2 12.5557 3.79813 5.29055
35 1 14.1457 3.71057 7.16173
571 3 12.6874 5.32883 3.45232
595 2 14.2696 7.14589 7.16124
1100 1 14.2694 5.47168 5.53177
1099 3 12.4447 5.4577 7.17279
1592 3 12.5096 7.1764 5.32166
1572 1 14.5004 7.10008 3.66573
3069 1 14.5127 3.61175 3.69584
573 3 16.145 5.44089 3.69364
1080 2 17.8383 3.6974 3.626
1595 3 16.2044 7.23413 5.54688
1594 3 16.1513 5.43698 7.23552
2094 3 17.9491 6.94228 7.28622
2092 1 17.8871 3.66634 7.14197
2571 3 17.9788 7.17919 3.72713
3092 1 18.0101 5.27737 5.48205
3595 2 15.8566 3.7098 5.56229
13 3 -0.0793902 10.7378 3.67331
597 1 0.301654 10.6608 7.40035
596 1 1.73526 10.6465 5.48231
574 3 1.8558 8.98613 3.70782
1102 1 2.06295 9.05022 7.08656
1101 3 0.00474582 8.99779 5.55968
38 1 3.60038 10.9666 7.06103
578 2 3.67729 10.7197 3.7075
577 3 5.40162 8.94031 3.76569
1106 1 7.08952 10.8449 7.4432
1104 3 5.5647 10.8313 5.4181
1103 3 3.75047 9.00571 5.51307
1084 2 7.36209 10.6284 3.54253
1597 3 7.17527 8.91266 5.60903
1596 1 5.37755 9.17114 7.30816
39 1 10.7825 10.8169 7.21747
599 3 8.89275 10.743 5.55313
579 3 10.9557 10.7177 3.64553
1107 1 8.95545 8.91919 7.29587
1578 3 9.05656 9.01734 3.7566
2097 3 10.9205 8.9777 5.53336
1108 1 12.534 10.7698 5.45992
1598 2 12.6129 8.84152 7.25869
1579 3 12.604 8.9306 3.66341
2072 3 14.3885 10.7414 3.69269
2099 1 14.2464 10.6166 7.25446
2098 2 14.4756 8.90948 5.4445
1599 3 16.0966 8.93199 7.2847
1580 2 16.182 9.09806 3.61488
2100 2 16.1596 10.7362 5.54893
3093 2 17.944 10.8031 7.44256
3597 2 17.749 8.89665 5.67236
3573 3 17.9671 10.7356 3.77065
1110 3 0.131835 14.3323 7.31096
1582 2 1.96711 12.6405 3.64722
2103 3 1.76474 12.6314 7.12336
2102 3 1.84298 14.3452 5.47949
2101 3 0.169684 12.6025 5.42365
2573 1 0.174798 14.432 3.67257
1112 3 7.1951 14.3024 7.14254
1600 2 5.55356 12.4309 7.2153
2104 2 5.51597 14.3073 5.38785
2083 2 3.70208 14.3077 3.66115
2601 3 7.2382 12.6073 5.46802
2600 1 3.8533 12.5735 5.30426
2599 2 3.69816 14.4106 7.31817
2577 2 7.23625 14.2369 3.65067
2574 2 5.39119 12.578 3.6569
2604 2 9.14716 14.1797 5.3719
2603 3 10.7884 14.2537 7.18672
2602 2 10.7141 12.4011 5.40986
2578 1 8.89893 12.532 3.5757
3097 2 8.89657 12.4521 7.18951
3072 1 10.8725 14.2281 3.75526
602 2 14.3246 14.248 7.32722
1603 2 12.7971 12.4675 7.23784
2605 3 14.253 12.4526 5.45521
2581 3 12.6443 12.5416 3.6722
3098 1 12.4751 14.1364 5.52659
3575 1 14.2423 14.3421 3.58037
1114 2 18.0941 12.4316 5.48864
1584 3 17.8031 14.2909 3.8444
2582 1 16.0588 12.458 3.75935
3100 2 16.1183 14.4373 5.55073
3099 2 16.0704 12.4922 7.20013
3599 2 17.8387 14.3316 7.14511
582 3 0.059254 17.8808 3.58805
1605 3 1.80467 18.0966 5.33582
1604 3 1.8868 16.0207 7.22151
3104 1 0.183145 16.0793 5.37294
3103 3 0.175026 17.8829 7.26747
3576 3 2.02528 16.1707 3.65443
2087 3 3.77508 17.8796 3.68941
2607 1 5.3949 17.9311 5.61339
2586 2 7.10831 17.9778 3.74504
3107 3 7.18478 17.8416 7.28619
3106 2 5.48011 16.1291 7.11076
3105 1 3.60327 17.8572 7.23708
3602 2 3.67846 16.0988 5.37979
3601 1 7.33563 15.9268 5.4386
3577 2 5.56697 16.0518 3.71932
1091 1 10.6869 17.8088 3.69891
2107 3 9.01094 16.0282 7.16111
2608 1 8.90241 18.0164 5.42857
3109 1 10.6603 18.0248 7.34134
3603 2 10.8361 16.1996 5.40521
3579 3 8.77851 16.1594 3.67966
41 1 14.1682 16.1668 5.55427
2610 2 12.4666 17.8211 5.40215
2609 1 14.3338 17.8144 7.07884
2587 1 14.1343 17.8614 3.60888
3604 3 12.4642 16.1003 7.19993
3580 2 12.5695 16.0058 3.69698
583 2 16.0662 16.2346 3.74926
1606 2 17.9141 17.9786 6.99775
2109 1 16.2844 16.2271 7.10006
3112 3 16.2879 17.989 5.37608
3110 2 17.9418 16.0964 5.43879
3582 3 18.0408 17.9192 3.6826
21 1 0.107435 2.02139 9.08493
604 1 0.171695 0.0068141 10.7829
2110 2 1.80618 1.95331 10.8802
2589 2 1.95047 0.0850176 8.92882
585 2 7.31514 1.74893 8.87059
1092 2 5.44509 0.149307 8.99337
1608 1 7.28722 -0.0778791 10.7967
1607 2 3.72817 0.312664 10.9964
2111 3 5.55752 1.85053 10.6678
2591 3 3.64054 1.95493 9.07015
1116 1 10.9048 0.127313 10.7243
2612 2 8.94645 1.90852 10.8715
2592 1 10.7518 1.84435 8.84692
3587 3 8.98066 0.113852 9.13462
587 3 14.3836 1.79935 9.08562
1609 2 14.3117 0.100321 10.7705
2090 1 12.5724 0.195778 8.95825
2613 3 12.4935 1.83057 10.9375
26 2 16.1534 0.0927253 8.98434
2594 2 17.9563 1.72546 9.01606
3116 3 16.06 1.93718 10.7891
3115 3 17.7636 0.0836921 10.757
1093 1 1.90204 7.2249 9.10613
2091 3 1.75531 3.7932 9.06657
2615 2 0.0758858 3.81634 10.8495
3118 3 0.0229383 7.02803 10.7205
3117 1 1.80466 5.52095 10.7037
3089 1 -0.053562 5.45128 8.87072
30 3 5.5054 3.54057 8.93259
45 1 7.25218 7.11187 10.5841
1096 3 3.68481 5.50369 9.168
2112 3 7.21507 3.5859 10.6749
2616 3 3.76372 3.54943 10.9023
3091 2 7.32455 5.31959 8.79849
3608 3 3.72087 7.22426 10.7617
3607 2 5.53198 5.22275 10.6976
3591 1 5.52819 7.13386 8.95843
46 2 10.676 7.30321 10.7137
1098 1 10.9148 5.34768 8.98177
1591 1 9.03503 3.56543 8.93137
1588 1 8.94207 7.13502 9.06043
2113 1 10.7002 3.55877 10.8576
3609 2 9.12067 5.28209 10.7945
32 2 12.7024 7.17555 8.95718
34 1 12.4748 3.53428 8.875
36 2 14.3888 5.30514 8.8707
609 3 14.3625 7.11691 10.7695
3119 1 14.2979 3.53392 10.7339
3611 3 12.6063 5.37077 10.7489
1120 3 17.8174 3.69642 10.7874
1615 3 17.8276 7.09711 10.6646
1593 1 17.938 5.32361 9.07069
2093 3 15.9401 7.18647 8.90941
2595 1 15.9801 3.62147 9.0074
3612 2 15.9238 5.22434 10.8631
48 1 2.01421 9.09454 10.7285
2095 3 0.094045 8.93389 9.21255
2596 1 1.94686 10.9184 9.11828
3120 2 0.0928122 10.7057 10.7519
37 1 3.69636 9.09043 9.03997
49 1 5.25944 9.01767 10.6903
612 1 7.08656 10.7588 10.8383
1105 2 5.32168 10.9119 9.04492
2096 3 7.25922 9.07426 9.2264
3121 2 3.7639 10.7531 10.8795
613 3 9.06485 9.199 10.7537
598 2 10.5709 9.12352 8.86636
3613 3 10.8189 10.7073 10.7407
3596 1 8.93699 10.8597 8.86523
50 2 14.4167 10.6039 10.8624
614 3 12.5659 9.08168 10.7379
2598 3 12.5946 10.7837 8.922
2597 3 14.4881 9.02424 9.13931
51 3 17.9682 10.7565 10.7143
600 3 17.7701 8.82491 9.00026
1122 3 16.0951 8.86703 10.9368
1109 2 16.0392 10.7473 8.86221
616 3 0.180634 14.3088 10.7609
601 2 0.157387 12.5834 8.95704
1123 2 1.98724 12.5163 10.7334
3094 1 1.74747 14.3665 9.00838
1124 2 5.47802 12.5675 10.7532
1111 1 5.56078 14.3913 8.92919
1619 2 7.39381 14.2745 10.8553
1618 2 3.54826 14.4569 10.7621
1601 2 7.15984 12.612 9.17775
3095 3 3.71489 12.6357 9.00526
617 2 10.6221 14.2655 10.6026
1125 2 8.97586 12.4621 10.7497
3096 3 8.87514 14.2581 8.93782
3598 2 10.6604 12.3884 8.88061
1126 3 14.384 14.2539 10.7591
1113 3 12.6139 14.4093 9.0583
1620 3 12.5642 12.4838 10.7251
1602 1 14.56 12.4332 9.12705
1621 2 16.069 12.4838 10.768
3126 3 17.7638 14.4116 10.8196
3102 2 16.0794 14.2964 8.97196
3101 1 17.8341 12.615 9.10456
1623 2 0.21492 18.0001 10.9042
2119 1 1.84384 16.3051 10.9548
2606 2 1.8498 17.8751 9.04165
3600 2 0.0558793 16.0419 8.99597
40 1 7.07747 16.0844 9.00202
619 2 3.67812 18.0734 10.8195
1127 3 7.24456 17.82 10.5832
2120 2 5.51121 15.9948 10.7662
2106 1 3.56122 16.0471 9.2074
2105 1 5.26326 17.8892 9.06395
1624 2 10.7494 17.9247 10.7209
2108 2 10.7002 16.0857 9.01954
2625 3 9.06651 16.1181 10.7911
3108 1 9.1757 17.8134 8.88772
603 1 14.3614 16.0943 8.96211
1115 2 12.4958 17.8155 8.81307
2626 3 12.6099 16.3037 10.7999
3620 3 14.3285 17.9242 10.4837
2628 3 16.0397 16.197 10.5998
2611 3 17.8735 16.0191 8.99816
3127 3 17.7872 17.9638 10.7804
3111 3 16.2369 17.9535 8.95786
42 2 0.0519321 1.72776 12.4738
2121 2 0.119803 0.126866 14.3323
2629 1 1.73599 1.83908 14.4645
3113 1 1.89839 0.0908937 12.5268
43 2 3.6059 1.85547 12.7186
605 2 7.28471 1.93552 12.5241
1625 2 7.43757 0.0963188 14.301
2123 2 3.51135 0.0642274 14.3439
3128 3 5.57837 1.8714 14.3854
3605 3 5.47695 0.227311 12.5841
606 2 10.9209 1.87297 12.5103
1627 1 10.7173 -0.0174775 14.4594
3129 1 8.9134 1.88819 14.2756
3606 1 9.0635 0.349516 12.499
1117 3 14.5377 1.78527 12.6021
2632 2 14.2352 0.087795 14.4223
3131 1 12.53 1.70551 14.3958
3114 2 12.7428 0.213435 12.5893
44 1 15.9734 0.0810145 12.6895
501 1 17.9125 0.116842 14.4176
2614 2 17.7127 1.87013 12.6078
3132 3 15.9189 1.90133 14.4412
607 3 1.91711 3.6761 12.6926
1119 1 1.84926 7.14489 12.5884
1118 3 0.122825 5.46724 12.6075
2634 3 0.00363176 7.16988 14.3293
2633 1 0.0963684 3.7796 14.3927
3624 1 1.98081 5.52295 14.33
60 1 7.263 7.27671 14.3056
608 1 5.48158 3.69035 12.6157
1612 1 7.12133 5.31543 12.498
1611 1 5.57633 7.06557 12.4122
1610 3 3.69702 5.47922 12.3798
2128 2 7.12784 3.67829 14.3402
2126 2 3.5656 3.73052 14.3273
3136 1 3.77586 7.24003 14.1852
3626 3 5.53501 5.37329 14.4363
1613 3 10.8593 5.38996 12.5617
2114 1 8.954 7.08384 12.4034
3137 1 10.8712 3.762 14.3657
3629 3 8.93052 5.42659 14.2552
3628 1 10.6365 7.21326 14.2398
3610 2 8.91207 3.6616 12.5465
610 1 12.6327 3.6389 12.6352
1614 2 14.3361 5.33143 12.4283
2617 3 12.6271 7.21387 12.4283
3138 3 14.2612 3.79761 14.4268
3631 2 14.4516 7.34714 14.3168
3630 3 12.7202 5.57599 14.1516
47 1 17.9262 5.41937 12.3941
65 2 16.0171 5.36882 14.3178
1138 1 17.8347 3.5204 14.1287
1121 1 16.0785 3.65121 12.7662
2618 3 16.2086 7.15783 12.5943
3140 3 17.9722 7.25302 14.148
67 3 1.80763 8.96692 14.1248
611 3 1.89108 10.8352 12.4819
2115 3 0.0054146 8.85455 12.4123
2636 1 0.29409 10.7853 14.2751
69 3 7.19156 10.8524 14.1353
70 2 5.5824 8.77902 14.1881
1616 2 5.57077 10.5904 12.4499
2116 3 3.86592 8.99115 12.556
2619 2 7.31422 8.78927 12.3975
3633 2 3.82617 10.7946 14.244
71 1 9.17446 9.00709 14.2489
2117 3 9.01624 10.7098 12.4953
2620 2 10.7499 8.85381 12.3131
3141 2 10.74 10.9372 14.4618
510 3 12.5672 8.81118 14.1558
1617 1 12.5646 10.7151 12.612
3122 3 14.4036 9.01855 12.5735
3635 3 14.3149 10.7099 14.2898
511 1 16.1218 8.79633 14.2735
615 1 17.8544 8.8814 12.5295
1639 2 17.8541 10.8295 14.366
2118 3 16.1687 10.8921 12.5626
513 3 0.177582 14.3973 14.342
514 1 1.96485 12.6782 14.3647
2621 2 0.203916 12.4875 12.4447
3123 2 1.87208 14.3659 12.5385
72 2 7.43468 14.5161 14.1496
515 3 5.45013 12.568 14.1854
516 2 3.79353 14.372 14.2239
3125 2 7.37309 12.459 12.6099
3124 3 3.61347 12.6074 12.4489
3614 2 5.48316 14.3604 12.6053
73 1 10.7812 14.246 14.3519
1145 2 9.15347 12.6002 14.3527
3616 2 10.7928 12.5203 12.5463
3615 2 9.2146 14.2695 12.4257
1147 3 12.5509 12.7233 14.2568
1146 3 14.3789 14.3013 14.3501
2622 2 12.587 14.3624 12.498
3617 1 14.2054 12.3369 12.444
1149 1 16.1445 12.5369 14.2429
1622 1 18.0466 12.7344 12.4505
3146 1 17.8584 14.2897 14.1972
3618 3 16.0708 14.3771 12.5939
52 2 0.0918806 16.1798 12.4293
518 1 0.0595024 17.8498 14.2724
1150 1 1.89576 15.9588 14.1133
2623 2 1.8904 18.0651 12.7149
53 1 3.5596 16.0655 12.3725
618 2 7.21011 16.1882 12.4405
1151 2 3.86025 17.758 14.1898
1642 1 5.41214 16.0545 14.1087
2142 3 7.22663 17.8626 14.3591
2624 1 5.49937 17.9945 12.4104
54 2 10.907 16.1358 12.56
1643 1 9.11362 16.1309 14.2372
2649 1 10.9292 18.0939 14.2477
3619 1 9.1382 17.784 12.4117
55 2 12.517 18.0618 12.5725
620 1 14.2302 16.1686 12.4775
1646 3 12.5953 16.0664 14.4473
1644 1 14.2613 17.8416 14.3229
56 3 15.9989 17.6976 12.3851
1647 1 15.9705 16.0309 14.3288
2627 1 17.7902 16.1669 12.5213
3644 3 17.8732 17.8613 14.3356
57 1 1.78653 0.0304515 16.0577
621 3 0.0293811 1.75932 16.1208
1128 1 0.248582 0.0148664 17.9623
2122 1 1.93509 1.93696 17.895
58 3 5.335 0.0940295 15.9355
1132 3 7.17362 0.0325067 17.7164
1131 2 7.11537 1.7692 16.0977
1130 3 3.54287 0.0864185 17.9161
1129 3 3.66986 1.86211 15.9851
2630 2 5.36112 1.7696 17.8804
1133 1 10.812 1.92675 16.0333
1626 3 10.7331 0.0638057 17.7201
2631 3 9.04006 1.84889 17.8416
3621 2 8.94332 0.0890961 16.0875
59 2 12.5385 0.128664 16.1945
1134 1 14.3123 1.85365 16.2079
2124 1 14.3561 0.147118 17.8717
3130 1 12.5346 1.9364 17.9238
502 1 15.8377 0.0872132 16.1058
3133 2 16.176 1.85515 17.91
3623 2 17.8211 0.0888672 17.672
3622 1 17.8144 2.05382 16.0711
503 2 1.85362 3.557 16.1517
504 1 1.96483 7.15066 16.0335
1628 3 0.0722499 5.36234 16.0721
2125 3 0.169944 3.58913 17.8479
3134 2 0.0382042 7.29197 17.871
3625 2 1.85698 5.44184 17.7631
61 2 5.49445 3.60052 16.1212
505 3 3.53128 7.24873 17.685
1135 3 7.18888 7.24398 17.8456
1631 1 5.40872 7.26513 16.126
1630 3 3.66218 5.45759 16.1534
1629 1 7.3124 5.34972 16.1519
2127 1 3.6585 3.67709 17.8588
3135 2 7.19298 3.65952 17.9639
3627 1 5.41367 5.54552 17.9165
62 3 8.94359 5.43475 18.044
63 3 10.7295 7.2013 17.9594
506 3 8.98175 3.5479 16.2211
1632 2 10.7182 5.48466 16.1191
2129 3 9.11545 7.2227 16.0949
2635 1 10.8304 3.77372 17.7759
64 1 12.5933 5.52615 17.8797
1137 1 14.3463 7.17377 17.8669
1136 3 12.5707 3.7606 16.1154
2131 2 14.3365 5.53207 16.2583
2130 2 12.4284 7.18295 15.9825
3139 2 14.3488 3.69505 17.9329
66 3 18.0351 5.38598 15.9325
507 3 16.0298 5.43531 17.9409
1140 3 17.9001 3.71482 17.9137
1139 3 15.9687 3.6927 16.21
1634 1 17.7823 7.23422 17.8202
1633 2 16.134 7.32602 16.1848
508 1 1.74137 9.01269 17.8788
1141 3 1.93767 10.7895 16.0349
2132 1 0.262065 8.91982 16.0638
3632 1 0.0406385 10.8781 17.6891
68 1 3.65329 10.7341 17.774
509 3 7.18691 10.811 17.9233
1142 2 5.39731 9.00728 17.785
1635 1 5.53071 10.8016 16.1022
2134 3 7.38271 8.95504 16.0308
2133 1 3.6186 9.00752 15.9817
1143 3 9.12397 8.97752 17.9981
1636 2 8.85995 10.7994 16.1578
2637 2 10.9964 9.00359 15.9453
3634 1 10.8726 10.7065 17.9543
1144 1 12.5626 10.6974 16.0404
1638 3 12.5041 8.92461 17.9313
1637 2 14.1996 10.8812 17.7935
2638 2 14.2632 9.07147 16.1094
512 2 17.8528 9.05683 16.0297
1640 2 15.9184 9.14119 17.9181
2135 1 16.2062 10.9085 16.0367
2639 1 17.8488 10.7148 17.8693
2137 1 0.228222 14.3522 17.8824
2136 3 1.96531 12.4447 17.8876
2641 3 2.06348 14.3853 16.0102
2640 1 0.10955 12.4466 16.1261
2140 1 7.16786 14.3489 17.8693
2139 2 3.68447 14.2679 17.7851
2138 3 5.47797 12.5042 17.9571
2643 1 5.36438 14.1745 16.0897
2642 3 3.68569 12.4878 16.0752
3142 3 7.14922 12.6213 16.0782
2141 3 9.05271 14.297 16.1133
2645 1 8.96443 12.4242 17.9147
2644 3 10.7817 14.3091 18.0469
3143 2 10.7724 12.4596 16.2535
2647 3 12.478 14.3502 16.1309
2646 2 12.5355 12.5722 18.0234
3145 2 14.3542 14.2783 17.9692
3144 2 14.2434 12.5021 16.1005
517 3 17.8034 14.3835 17.9563
1148 1 17.8814 12.6681 16.1236
3148 1 15.983 14.1445 16.0652
3147 2 16.1042 12.579 17.8932
2648 1 1.85194 17.7799 15.8684
3150 3 1.91387 16.0681 18.0532
3149 2 0.205082 16.0427 15.9534
3636 1 -0.0563978 17.7709 17.8758
1641 2 3.67328 17.8421 17.9541
2143 3 7.21725 17.7636 17.6653
3640 3 5.48368 17.7672 16.0879
3639 2 7.08748 15.911 16.0358
3638 2 5.50753 15.9491 17.8013
3637 3 3.7381 15.9992 16.001
74 1 8.94741 17.7841 16.0098
519 3 10.7674 17.8219 17.853
3642 3 8.93439 16.0694 17.8241
3641 3 10.7133 16.0526 16.2117
75 2 12.5185 16.0814 17.8399
76 2 12.6785 18.0055 16.0304
1645 1 14.117 18.0344 17.8173
3643 1 14.2009 16.074 16.046
77 1 15.8867 16.1666 17.6519
2144 3 17.7378 16.0119 16.0009
2650 2 17.6106 17.793 17.7451
3645 3 16.0851 17.7175 15.9101
520 3 0.127707 0.17303 21.5331
78 3 0.315423 1.98864 19.7656
2145 3 1.92402 1.86985 21.6309
3151 3 2.03933 0.0301255 19.7752
521 2 3.67672 0.0544937 21.473
80 2 3.56216 1.98769 19.782
79 2 7.23173 1.80273 19.703
2147 2 5.3227 1.87352 21.3944
2146 3 7.18153 0.120507 21.4173
2651 1 5.40951 0.217915 19.5788
81 2 10.8696 1.95019 19.6994
1648 3 10.7513 0.0937528 21.3478
2652 1 8.91845 1.90495 21.4035
3152 3 9.11226 0.204478 19.7131
522 1 14.1633 1.96199 19.6238
1649 1 14.3027 0.264171 21.4026
2653 2 12.5132 1.95898 21.4476
3646 3 12.5876 -0.0964963 19.6364
82 3 17.833 0.174013 21.2435
2654 1 17.8371 1.95998 19.6744
3153 3 16.1467 1.90789 21.5079
3647 2 16.0943 0.188014 19.5718
523 2 0.159274 5.44406 19.5818
84 3 1.81134 7.15079 19.6069
83 3 0.00110147 7.25154 21.429
1650 2 0.299922 3.69079 21.4497
3155 3 1.91859 5.56036 21.6712
3154 2 1.96451 3.8033 19.7611
524 1 3.6908 5.39715 19.3721
525 3 7.21835 5.4186 19.8322
526 1 3.48134 7.30595 21.5128
1153 1 7.23253 7.19265 21.5993
1152 3 5.33806 7.18856 19.6417
2655 2 3.61436 3.72037 21.4289
3156 3 7.10719 3.58716 21.3992
3649 2 5.40439 3.60822 19.5904
3648 1 5.20506 5.42498 21.4437
86 3 10.7568 7.08385 21.6108
85 3 8.96606 3.71103 19.6217
1155 3 10.7956 5.46406 19.7003
1154 3 8.80848 7.16541 19.6918
2656 2 10.7622 3.78264 21.4132
3650 2 9.02321 5.47285 21.5581
527 3 12.5422 7.13924 19.751
88 2 12.6156 5.42929 21.4824
87 2 12.3937 3.80976 19.6707
1156 2 14.3345 5.45674 19.6365
2148 1 14.3948 6.98025 21.5869
2657 3 14.3248 3.76696 21.5117
528 3 17.8457 3.82453 21.4746
89 2 16.1287 5.38822 21.6136
1157 3 16.0566 7.24481 19.6315
3158 1 17.7671 5.64964 19.7753
3157 1 17.8957 7.21867 21.4451
3651 1 16.1282 3.83197 19.7959
529 1 1.87699 9.00329 21.4239
530 3 1.97651 10.7447 19.6437
1158 3 0.0490901 9.07716 19.639
3652 3 0.182114 10.8735 21.3447
531 2 5.46013 9.12729 21.4798
532 2 5.54408 10.7743 19.6938
533 1 7.31989 10.7773 21.4508
1159 3 3.70305 9.03215 19.4335
1651 1 7.1305 8.88463 19.6381
3653 1 3.90986 10.7173 21.535
90 1 8.92424 10.661 19.7123
1161 3 9.03471 8.81835 21.3118
1160 1 10.738 10.7512 21.4794
1652 1 10.8067 8.69432 19.7221
534 1 12.6375 10.6539 19.8369
1162 3 12.4767 8.96722 21.579
1654 3 14.3799 10.8066 21.4996
1653 2 14.3151 8.94672 19.616
1656 3 16.0681 10.7877 19.7186
1655 2 16.0731 8.95673 21.501
3159 1 17.9924 10.8417 21.4038
3654 3 17.7989 8.9238 19.5205
1660 2 0.195839 14.1743 21.3401
1659 2 1.91052 14.2933 19.7094
1658 2 2.00829 12.5539 21.3234
1657 3 0.207334 12.4632 19.4559
1163 2 5.33425 14.3715 19.7159
1661 1 3.63591 14.4811 21.5905
2151 1 7.19283 12.5381 19.7002
2150 1 5.35643 12.7037 21.2961
2149 1 3.66336 12.5071 19.6009
3160 2 7.04942 14.2903 21.3492
1662 3 8.99074 14.3019 19.6787
2153 1 8.76592 12.6254 21.3291
2152 2 10.7323 12.595 19.8061
2658 3 10.7512 14.4417 21.4303
2155 3 14.2536 12.5844 19.7174
2154 2 12.6013 14.2464 19.8008
2660 3 14.2846 14.307 21.4534
2659 2 12.4831 12.5422 21.5145
535 2 18.0125 12.5146 19.5796
1164 3 17.9123 14.1964 21.3659
2156 2 16.1009 14.4968 19.5979
2661 1 16.1556 12.3997 21.3436
1165 3 0.124231 17.8242 21.5157
2157 3 1.89521 17.8626 19.593
2662 1 0.159938 16.0785 19.7968
3161 2 1.92879 16.0598 21.577
1664 2 7.16261 18.0069 21.4406
1663 1 3.48904 17.7624 21.3021
2664 3 3.65117 16.0711 19.5384
2663 3 7.13408 16.0841 19.5924
3163 1 5.4191 16.1495 21.3641
3162 1 5.38561 17.8818 19.6164
536 3 10.7522 17.8066 21.227
2665 2 10.7567 16.1214 19.5082
3164 3 9.0756 17.844 19.4813
3655 2 8.7928 16.2835 21.4129
2666 2 12.5496 17.7967 19.4724
3166 2 14.432 16.0683 19.6423
3165 3 14.1995 17.8559 21.3119
3656 2 12.421 16.0942 21.3446
92 3 16.147 16.1437 21.3585
91 1 17.8892 17.8442 21.4663
1166 1 17.7789 16.1673 19.6653
3167 1 15.8849 17.8722 19.6376
93 3 2.00295 1.94101 25.0653
1665 2 2.01085 0.215598 23.2916
2667 3 0.152301 0.143701 24.8771
3168 2 0.151439 1.99504 23.379
2158 2 5.52962 -0.0139135 23.3127
2670 1 3.71301 0.137844 24.9979
3170 2 7.0637 1.82137 23.2528
3169 2 3.71972 1.68349 23.3032
3659 1 7.31922 0.104887 25.0703
3658 3 5.4666 1.77476 25.0338
537 1 8.96084 2.10445 24.9322
2671 2 8.87565 0.20955 23.3522
3171 1 10.6927 0.155666 24.8084
3660 3 10.5547 1.88045 23.0907
2673 3 12.4425 0.0807993 23.1343
3663 1 14.357 1.9315 23.1039
3662 2 14.2073 0.214711 24.9861
3661 1 12.4875 1.81831 24.9047
539 2 16.0568 2.06706 24.9736
1167 1 17.8393 0.133342 25.1073
1668 1 17.8376 2.01745 23.2065
2160 3 16.0624 0.0546877 23.2065
99 3 1.88387 5.50686 24.971
98 1 1.88425 7.28998 23.3258
97 1 0.311729 7.24126 24.9735
96 1 -0.0149169 5.55343 23.2599
3173 2 1.92428 3.64108 23.3854
3172 2 0.181866 3.72202 25.0463
540 1 3.56492 7.1778 24.9836
541 1 5.55763 7.21863 23.1876
542 1 7.12519 5.33917 23.2497
543 2 5.51679 5.46375 24.9812
101 2 7.16789 7.22758 24.9472
100 2 3.86349 5.51942 23.3755
2675 3 7.07907 3.64309 24.9328
3175 1 3.59662 3.74397 24.9528
3665 3 5.47938 3.59077 23.2954
546 1 8.89167 7.18525 23.2019
547 1 9.07436 5.39495 24.9549
102 2 10.9067 5.38954 23.3133
1170 2 10.619 7.2273 25.0286
3177 3 10.9294 3.58552 25.0205
3666 1 8.90004 3.83754 23.1726
548 3 14.1902 5.46633 23.2803
549 3 12.4817 5.52988 25.0244
105 2 14.2559 3.74223 25.1368
1670 3 12.5062 7.25658 23.2418
3179 1 12.5961 3.58789 23.3796
3667 3 14.3373 7.29324 25.0678
1172 1 15.9958 5.36838 24.9621
1672 2 17.8882 3.83738 25.1177
1671 3 16.2108 7.21232 23.1993
2678 1 17.8029 7.28972 25.0102
2677 3 17.8423 5.48266 23.1287
3668 2 16.1042 3.69061 23.3769
550 3 0.263816 9.06836 23.1485
106 2 1.8861 10.7988 23.0799
1175 2 1.85866 9.18168 25.0325
3669 1 0.22023 10.7162 24.9981
108 2 5.41164 10.8162 23.3347
1180 2 7.24532 10.7704 24.9979
1178 2 7.30767 9.06378 23.2067
1177 3 3.66391 8.98541 23.1052
1176 1 5.52132 9.11782 25.0525
3670 1 3.67645 10.706 24.8417
551 2 10.7577 10.8625 24.7627
552 2 8.96299 10.8141 23.1545
1181 1 9.08195 9.0684 24.9577
1674 1 10.6398 9.02936 23.277
1182 1 12.6969 10.7877 23.2897
1676 3 12.479 8.81822 24.9454
1675 3 14.3721 8.91671 23.1795
2163 1 14.2868 10.6961 25.022
1183 2 16.0861 8.98567 24.9332
1677 3 16.1499 10.6785 23.0455
2165 3 17.8977 10.7052 24.9439
3671 3 17.9682 9.0629 23.1467
555 3 0.224254 14.3635 24.9652
1184 2 1.88621 14.3157 23.2673
1678 3 1.91091 12.5376 24.8289
2166 3 -0.00935214 12.5687 23.0748
113 2 7.23312 14.2212 25.0121
1185 3 5.34905 12.5447 24.9289
2170 1 5.6522 14.3421 23.2413
2169 3 3.71843 12.5913 23.1551
2168 1 3.69088 14.417 25.0467
2167 3 7.19732 12.5635 23.2235
1680 1 10.8537 14.2867 24.8244
2171 1 10.7228 12.5617 23.0965
2682 3 8.84153 14.3568 22.9919
2681 1 8.93618 12.607 24.9201
114 3 14.2504 14.3161 24.8571
1681 2 12.6245 12.3382 24.8375
2684 2 14.3612 12.5288 23.2653
2683 2 12.3736 14.3556 23.1465
557 1 17.7367 12.4042 23.1279
2173 3 16.034 14.2985 23.1347
2685 2 16.0872 12.5544 24.9052
3183 2 17.9231 14.2145 24.8876
1684 3 1.98243 16.0939 24.9283
1683 2 2.04811 17.9944 23.2243
2688 2 0.139222 16.0379 23.1503
2687 1 0.168439 17.9112 24.9485
2175 3 7.24823 17.9207 25.0951
2174 1 5.3283 17.9292 23.3183
2689 1 3.61811 17.8029 24.9319
3187 3 5.32712 16.0281 25.2129
3186 1 7.0996 16.194 23.2669
3185 2 3.68883 16.1194 23.3075
1687 3 8.88728 18.0083 23.1556
1686 1 8.92169 16.0622 25.1014
2177 1 10.6848 17.9805 25.0835
3675 1 10.6627 16.2325 23.2567
2178 2 14.3047 17.7393 24.794
2690 3 12.4541 17.7186 23.2212
3188 3 12.4471 16.0577 24.9756
3676 3 14.242 16.0647 23.0363
1187 1 17.906 16.0084 23.2507
1186 2 17.917 17.852 24.9661
1689 1 15.9707 16.0746 24.6827
3189 1 16.129 17.7645 23.3745
1188 3 0.114568 0.257184 28.6023
2180 3 1.85379 1.97038 28.4257
2668 3 1.82872 0.0803903 26.706
3657 3 0.125678 1.86436 26.6962
559 3 7.2198 0.188905 28.3816
94 3 7.15452 1.91747 26.6434
1189 3 3.72001 -0.130723 28.4663
1666 1 5.38717 0.0193728 26.8151
2181 2 5.56987 1.82818 28.437
2669 3 3.57271 1.82231 26.9515
560 3 10.7553 0.0994927 28.4634
95 2 8.988 0.319812 26.7407
2182 1 8.9702 1.96507 28.4499
2672 1 10.9334 1.85443 26.8869
538 1 14.1447 1.91709 26.6766
1667 2 12.319 0.18213 26.6597
2184 3 12.5411 1.99097 28.5446
2183 3 14.3098 0.152422 28.4505
2159 2 17.9738 2.05059 26.6006
3193 3 16.2428 1.92662 28.262
3679 2 18.0136 0.137454 28.4064
3664 1 16.1004 0.0461689 26.6705
1168 1 1.84323 3.82577 26.8746
1669 2 1.93434 7.23161 26.8566
2186 3 0.189476 7.32475 28.6527
2185 1 0.215606 3.74011 28.4622
2674 3 0.038505 5.58153 26.8326
3194 1 1.92258 5.60641 28.5512
544 2 3.75583 5.54797 26.7527
563 2 7.12284 7.2964 28.4708
1691 1 7.05219 3.65566 28.5204
1690 1 3.76104 3.72324 28.6406
2676 1 7.02154 5.4587 26.6688
3196 1 3.65465 7.30987 28.6948
3195 1 5.46369 5.54394 28.5833
3176 1 5.48795 3.69285 26.8099
3174 2 5.48873 7.51357 26.7736
545 3 10.6885 5.49876 26.7888
1171 1 9.1211 3.83054 26.5946
1169 3 9.03203 7.157 26.7637
2694 2 10.6929 3.70286 28.4239
3197 2 8.83778 5.46832 28.4908
3681 2 10.7567 7.15514 28.5814
104 1 12.6023 3.92505 26.8502
103 1 14.2697 5.53052 26.8022
2695 1 14.2911 3.61991 28.5731
3178 2 12.4782 7.27805 26.8382
3684 3 14.2674 7.3607 28.5397
3683 3 12.506 5.47406 28.7788
622 1 17.8142 3.81792 28.5093
1004 1 17.86 7.29089 28.6806
1174 1 16.1849 7.1565 26.7947
1173 2 17.7098 5.54893 26.7616
3180 2 16.1162 3.71338 26.7123
3685 3 16.0215 5.36289 28.5449
1673 1 0.229788 8.99537 26.8575
2161 3 1.9241 10.8434 26.6759
2696 3 0.183468 10.6864 28.5725
3687 2 1.9809 8.85194 28.4839
122 2 7.2782 10.8536 28.4983
107 3 3.62912 8.94537 26.7289