ITEM: TIMESTEP
5000
ITEM: NUMBER OF ATOMS
4000
ITEM: BOX BOUNDS pp pp pp
1.5653914264017743e-01 3.5577520857359517e+01
1.5653914264017743e-01 3.5577520857359517e+01
1.5653914264017743e-01 3.5577520857359517e+01
ITEM: ATOMS id type x y z
1 1 0.197922 2.05084 1.89826
3645 3 16.2036 17.9381 16.0816
2064 3 1.98251 1.94542 0.0597121
3561 1 1.91638 0.0731872 1.85427
564 3 3.61193 1.8547 1.79398
565 3 7.327 1.92855 1.90932
1565 3 7.39436 0.0463169 0.212251
58 2 5.40507 0.241136 16.1499
2122 2 1.94941 1.89739 17.9028
509 1 7.45739 10.9203 17.7729
566 3 10.9808 1.92075 1.92388
2637 1 10.6656 9.06926 16.0958
3632 2 0.212917 10.6057 17.9528
3062 3 8.92471 1.93274 0.0759758
567 3 14.3653 1.97778 1.94087
3634 2 10.7961 10.7305 17.77
3064 2 12.6396 1.88908 0.196427
2132 2 0.336076 8.84802 15.9798
1141 1 1.86822 10.722 16.1147
3 1 16.3314 0.333631 1.97913
3066 2 17.9276 1.85934 1.98695
3065 1 16.2253 1.99779 0.0824551
4 3 1.95944 5.41259 -0.0168179
5 2 1.95918 3.81553 2.0226
6 3 1.91927 7.21833 1.8288
1071 1 -0.00728159 5.47011 1.97221
57 2 1.94435 -0.0472993 16.0831
1144 3 12.6686 10.7036 15.996
2627 3 17.7202 15.9785 12.389
1647 1 15.9311 16.1033 14.2017
1072 1 7.26238 5.39982 1.9274
1075 3 5.57676 7.20539 1.96249
1074 3 3.63218 5.40757 2.0073
1567 1 7.19264 7.16338 0.150055
1132 2 7.22627 0.128276 17.8595
1131 3 7.17768 2.08734 16.1245
3569 3 5.31942 3.74662 1.86447
1646 1 12.4918 16.0637 14.3478
10 1 9.12792 3.69824 1.8635
1077 2 10.7348 7.31054 0.233955
1076 2 10.8765 5.52871 1.72366
1568 2 9.03542 7.2498 1.90693
3068 2 10.7796 3.61569 0.184952
620 3 14.2432 16.0191 12.4907
1129 3 3.71373 1.83849 16.2199
570 2 12.6178 3.79769 1.87806
2649 2 10.7474 17.9419 14.4204
1570 1 14.4324 5.4595 2.0195
1569 1 12.5661 7.31335 1.92144
572 2 16.1253 3.68511 1.91349
1081 1 16.2627 7.38291 1.85848
3643 1 14.4545 16.1106 16.0322
1643 1 8.95372 16.1118 14.1847
1573 2 17.9222 3.59716 0.1329
54 2 10.7598 16.136 12.5463
575 3 1.92399 10.7993 1.8585
1082 2 1.94965 9.03225 0.202004
1574 2 0.0773889 8.80732 1.85006
3070 3 0.147402 10.7755 0.177286
576 1 3.77811 10.8243 0.110464
2624 3 5.58 17.8653 12.56
1083 2 5.60687 10.9356 1.94213
2142 1 7.27712 17.9421 14.3466
1576 1 7.29248 9.0247 1.87438
1575 1 3.64243 9.10114 1.81403
14 3 10.8181 10.7661 0.240369
1087 2 9.02141 10.7327 2.01033
1086 3 9.06866 8.98013 0.183376
2071 2 10.7971 8.94818 2.02794
580 3 12.5661 10.7813 1.88809
1642 3 5.39759 16.1547 14.3033
2073 3 12.5167 8.97621 0.162712
2074 3 14.4561 9.18349 1.82015
15 2 18.0405 9.06499 1.95243
1581 2 16.1122 10.768 1.79613
1151 2 3.77918 18.0148 14.2779
2075 2 16.2307 8.95649 0.159531
618 1 7.27511 16.0741 12.5063
2078 2 2.00478 14.3357 2.00433
1633 1 16.0209 7.18524 16.1015
2572 3 0.140136 14.3545 0.236773
2082 2 5.43557 14.3607 2.01881
2081 3 3.67011 12.6267 2.06654
53 3 3.64652 16.13 12.5883
2576 2 7.18628 14.3973 0.291967
2575 2 7.32887 12.5452 2.07579
1150 2 1.9681 15.9896 14.3183
1583 2 9.03789 14.336 1.94503
1638 3 12.5464 9.04991 17.915
2579 3 10.7467 12.6173 1.87771
52 2 0.174234 16.0377 12.5354
2085 2 12.5679 14.5841 1.92497
2580 3 14.3931 12.7159 1.85734
3618 2 16.0381 14.1991 12.4932
3146 3 17.7575 14.3656 14.2859
581 2 17.9686 12.5826 1.94566
1089 3 17.9875 14.1968 0.140524
2583 1 16.0929 14.3134 2.0056
1622 1 17.9009 12.683 12.407
75 3 12.6049 16.1476 17.7574
1634 1 17.7068 7.19657 17.7315
2584 2 0.112993 16.0891 2.02571
1149 1 15.9119 12.5703 14.4332
3617 3 14.2805 12.4548 12.4008
1090 2 3.66514 17.8285 0.10779
2585 1 7.29129 17.9288 0.288482
3079 2 5.37123 17.8328 1.92399
3078 3 7.24667 16.1478 2.00932
3077 3 3.71934 16.0452 2.00118
2622 3 12.4651 14.2378 12.5167
1139 1 15.9265 3.66612 16.1038
3080 3 10.7351 16.0648 1.89854
3578 2 9.19258 17.8201 1.91858
19 1 12.4489 16.2673 0.170596
2088 2 14.2765 17.7928 0.166548
3081 1 14.3551 16.1424 2.03308
1635 2 5.49849 10.7979 16.1724
1146 2 14.2757 14.247 14.0663
3641 2 10.8674 16.1261 15.9097
3083 3 16.1039 17.8346 1.9671
1147 3 12.5466 12.4736 14.3129
584 3 1.97557 1.85503 7.20079
507 3 16.0375 5.38886 17.8208
2588 2 1.93068 -0.053205 5.33183
2563 2 1.84629 1.93128 3.70609
519 1 10.9019 17.7195 17.7546
74 3 8.94016 17.9247 16.2138
22 2 5.32649 1.72927 7.30059
1069 2 3.69541 0.144184 3.77906
2134 3 7.2498 9.05665 16.144
3139 2 14.1289 3.63696 17.984
2590 1 3.65485 0.157113 7.383
2564 3 5.25889 1.84424 3.65737
3085 1 7.27544 0.0698364 7.25563
3585 3 3.71617 1.86465 5.47738
3584 1 7.09607 1.8257 5.35545
586 2 8.93468 1.86789 7.23887
2066 2 10.8684 0.0851139 3.76843
2130 3 12.4267 7.2877 16.0503
2565 1 9.14934 1.89781 3.66618
2131 2 14.2225 5.46236 15.9926
3586 3 10.8316 1.92899 5.48149
23 3 12.5624 1.85256 7.2138
24 1 14.4367 -0.0709869 7.35979
25 3 14.3625 1.87178 5.59747
1136 2 12.5916 3.60669 16.0762
2567 2 12.5632 1.99354 3.66494
1137 1 14.2801 7.42829 17.9174
64 2 12.5354 5.44351 17.8657
588 3 16.0952 1.96803 7.2688
3615 1 9.0411 14.1843 12.4279
3088 3 15.9376 0.0835435 5.56936
3637 1 3.78851 16.1348 16.0504
3564 3 16.0859 1.92392 3.75702
27 3 1.95125 5.51823 7.27627
28 1 1.89626 7.18654 5.47194
589 3 0.272089 5.47274 5.56697
2067 1 0.161384 3.67696 3.72593
3090 1 2.00714 3.56868 5.48073
3616 2 10.7982 12.5353 12.5849
3589 1 0.15838 3.78777 7.15193
3567 3 0.110485 7.21011 3.66624
3566 1 1.86882 5.4085 3.66661
29 3 3.81643 3.66017 7.29626
593 2 3.729 7.26115 7.03417
592 3 7.13607 5.39003 5.46464
591 2 7.21225 7.351 7.12128
590 2 3.70045 5.54833 5.34641
1095 3 5.36153 5.5387 7.21742
1094 2 5.54098 7.27712 5.39189
1073 1 3.54445 7.31794 3.65473
2068 3 7.35175 7.2803 3.67624
2069 3 3.71182 3.60797 3.79684
3593 2 5.5525 3.65192 5.47386
3592 1 7.22106 3.54017 7.07358
3570 1 5.50861 5.37138 3.73457
3568 1 7.20267 3.58027 3.68038
31 1 8.92125 3.68963 5.34093
569 3 10.7948 7.15321 3.78174
594 2 10.9051 5.47055 5.53543
1097 2 8.97237 5.46987 7.17565
1590 2 9.0614 7.14901 5.44763
1589 3 10.8247 7.2452 7.13142
3594 1 10.7356 3.69727 7.11219
3572 3 10.896 3.72129 3.60595
3571 3 9.14173 5.41433 3.58323
33 1 12.6517 3.78233 5.38347
35 3 14.3846 3.67174 7.48506
571 2 12.6103 5.51609 3.63584
595 3 14.3291 7.19249 7.18624
1100 2 14.2371 5.48685 5.30537
1099 1 12.566 5.37923 7.29044
1592 1 12.6329 7.45959 5.30503
1572 2 14.3971 7.33047 3.57691
3069 2 14.3306 3.69479 3.67467
573 1 16.2036 5.4289 3.6711
1080 2 17.8878 3.6765 3.71346
1595 1 16.0374 7.06976 5.49974
1594 2 15.9457 5.46738 7.22836
2094 1 17.8188 7.2682 7.39818
3639 1 7.24222 16.0943 16.0736
2571 3 17.8782 7.25211 3.79206
3092 1 17.825 5.27516 5.35538
3595 1 16.1026 3.74159 5.52629
2129 1 8.896 7.23792 16.0706
2143 2 7.12232 17.9698 17.8576
596 1 2.00319 10.8331 5.42613
574 1 1.95315 8.95095 3.53174
1102 1 1.93195 8.99568 7.18285
1641 1 3.65148 17.9109 17.8839
38 2 3.55942 10.6503 7.21657
578 2 3.83433 10.6577 3.69355
577 3 5.5148 9.02321 3.51101
1106 3 7.28329 10.6406 7.13639
1104 3 5.43349 10.7031 5.37275
1103 1 3.69692 8.96671 5.5131
1084 3 7.22067 10.8198 3.75921
1597 3 7.34666 9.00134 5.3052
1596 2 5.415 9.09595 7.16825
39 1 11.0113 10.6312 7.23873
599 1 9.13398 10.7512 5.43496
579 2 11.026 10.9268 3.61847
1107 1 9.00828 9.05546 7.12755
1578 1 9.11313 8.95985 3.6843
2097 1 10.9544 8.93709 5.35621
1108 1 12.635 10.8075 5.49001
1598 2 12.5671 8.8594 7.22856
1579 2 12.7121 9.04913 3.59823
2072 3 14.4914 10.8854 3.60939
2099 2 14.2275 10.712 7.2334
2098 2 14.2893 9.00483 5.40277
1599 2 16.0289 9.1019 7.09438
1580 1 16.092 9.08612 3.72412
2100 2 16.1049 10.8754 5.43041
3093 3 17.8311 10.6563 7.12716
1145 3 9.02802 12.5641 14.3035
3573 1 17.931 10.6939 3.67003
2648 2 2.0194 17.7613 15.9641
1582 3 1.81751 12.5658 3.66535
2103 3 1.98663 12.5408 7.177
2102 3 1.95148 14.1253 5.50174
73 3 10.7217 14.1512 14.248
2573 1 0.0352897 14.3458 3.74409
1112 1 7.50133 14.2945 7.28411
1600 1 5.45962 12.5645 7.10321
2104 1 5.59502 14.3753 5.56004
2083 3 3.66579 14.3595 3.88754
2601 1 7.22621 12.6046 5.54985
2600 3 3.69204 12.5566 5.48408
2599 2 3.65467 14.3086 7.26889
2577 2 7.26812 14.2921 3.86474
2574 3 5.50794 12.5904 3.78295
2604 1 8.98748 14.2907 5.53275
2603 3 10.8598 14.2713 7.48567
2602 1 10.9037 12.5027 5.53236
2578 1 9.11493 12.5661 3.64457
3097 3 8.99451 12.4387 7.36743
3072 1 10.9524 14.3411 3.64201
602 3 14.1621 14.2791 7.2807
1603 1 12.5844 12.5141 7.34967
2605 1 14.438 12.5952 5.29972
2581 1 12.5071 12.7478 3.55832
3098 1 12.4308 14.2103 5.56237
3575 1 14.3255 14.366 3.55776
1114 2 17.9254 12.573 5.54307
1584 3 18.0649 14.3294 3.6613
2582 3 16.3159 12.5153 3.64379
3100 3 16.2693 14.3868 5.32779
3099 1 16.0944 12.5438 7.21992
3599 3 17.8312 14.2206 7.2474
582 2 0.22555 17.8561 3.78664
1605 2 1.85175 17.7942 5.64497
1604 2 1.87102 16.0011 7.42127
3148 2 16.0358 14.2587 16.0038
1148 2 17.9445 12.5614 16.2098
3576 3 1.99308 16.0588 3.80676
1632 3 10.7342 5.35469 16.1086
2607 1 5.50715 17.8653 5.50735
2586 2 7.20746 17.8787 3.68444
3107 2 7.3763 17.8636 7.37891
3106 3 5.65602 16.1225 7.39397
506 2 9.0529 3.6924 16.0515
3602 3 3.59718 16.0596 5.51638
3601 2 7.3899 16.0633 5.60916
3577 2 5.42575 16.1531 3.74162
63 3 10.7526 7.35467 17.882
2107 1 9.23641 16.1471 7.51324
3614 1 5.50239 14.2611 12.669
3124 3 3.69591 12.4307 12.6372
3603 2 10.6771 16.0288 5.49855
3579 1 9.03767 16.1084 3.72982
41 3 14.2863 16.087 5.54972
2610 2 12.4955 17.8781 5.52401
3135 2 7.23237 3.80262 17.9989
2127 1 3.88114 3.69275 17.9176
3604 2 12.4993 16.1375 7.41504
3580 1 12.5831 16.1491 3.7278
583 3 15.9927 16.2317 3.81036
3144 2 14.3445 12.4998 16.2203
2109 1 16.0846 16.0111 7.21118
1629 1 7.29917 5.28957 16.1289
3110 3 17.8626 16.2752 5.48112
3145 3 14.3549 14.3946 17.8203
3125 1 7.20622 12.5579 12.5014
1630 3 3.62567 5.5554 16.101
2110 3 1.75645 2.00067 10.7439
2589 2 2.00289 0.0272954 9.21754
585 3 7.28008 1.93782 9.05644
1092 3 5.55655 0.13908 9.09038
1631 2 5.49292 7.34604 16.128
1607 2 3.6659 0.0994786 10.7371
2111 3 5.41997 1.91159 10.7918
2591 1 3.53659 1.93691 9.05987
516 2 3.86696 14.2005 14.3092
2612 2 8.97972 1.91782 10.7008
2592 1 10.7019 1.81382 8.89615
505 3 3.70061 7.18309 17.7871
587 1 14.1597 1.87438 9.05226
61 2 5.45024 3.85982 15.9257
515 3 5.50067 12.4163 14.1706
2613 3 12.4911 1.9672 10.8545
2133 3 3.62292 9.03929 15.9659
2594 2 17.7901 1.83148 9.02584
3116 2 15.9853 1.87172 10.9569
2647 3 12.5904 14.2938 16.1513
1093 1 2.03761 7.17248 8.94173
2091 2 1.88644 3.77676 9.17921
2615 3 0.126121 3.6092 10.816
3118 2 0.28967 7.28368 10.7521
3117 1 1.94627 5.52611 10.8784
3143 1 10.7465 12.4153 16.0144
30 3 5.49733 3.77376 9.01935
45 3 7.34502 7.37808 10.7073
1096 2 3.72378 5.62982 8.98099
2112 1 7.33294 3.61419 10.6644
2616 1 3.66488 3.88898 10.7092
3091 1 7.289 5.57275 8.70804
3608 3 3.72395 7.29777 10.8692
3607 3 5.65602 5.45651 10.6886
3591 1 5.57539 7.28284 8.83394
46 1 10.5683 7.27013 10.7536
1098 1 10.6124 5.34966 8.91999
1591 3 9.04449 3.59106 8.89275
1588 2 8.82749 7.3153 8.96106
2113 1 10.6078 3.72194 10.8095
3609 1 8.85221 5.46884 10.7171
32 3 12.5341 7.23161 9.06155
34 3 12.4039 3.55292 8.9622
36 1 14.2957 5.54203 8.97545
609 1 14.227 7.32549 10.769
3119 3 14.2075 3.76411 10.7602
3611 1 12.3862 5.34585 10.5873
1120 1 17.7292 3.61277 10.8073
2644 2 10.7643 14.4572 17.7871
2645 1 9.159 12.6647 17.9146
2093 1 16.1791 7.18737 9.00658
2595 3 16.1667 3.58432 9.1396
3612 3 16.0549 5.42635 10.8087
48 1 1.99667 9.02451 10.7449
2141 2 9.07641 14.4007 15.9671
2596 2 1.86779 10.6443 9.08698
3120 1 0.118569 10.7173 10.8348
37 2 3.74357 8.89374 8.94624
49 2 5.49055 8.9703 10.6974
612 1 7.17412 10.8375 10.7716
1105 2 5.5598 10.8445 8.89123
2096 2 7.29663 9.11114 8.9563
3121 1 3.74724 10.6657 10.6594
613 3 8.85961 9.18042 10.6411
598 3 10.746 8.87297 8.96339
3613 1 10.8326 10.5627 10.8396
3596 2 9.21234 10.6428 8.85538
50 2 14.3131 10.6205 10.8238
614 3 12.657 8.92044 10.8973
2598 2 12.6567 10.6147 8.96926
2597 2 14.396 8.94288 9.00387
51 2 17.8816 10.6901 10.8442
600 1 17.8726 8.96682 9.13546
1122 1 16.0489 8.91495 10.959
1109 3 16.0767 10.6302 9.02794
3142 3 7.12639 12.5134 16.0846
601 3 0.331291 12.449 8.94333
1123 3 2.0217 12.3782 10.7045
3094 2 1.99205 14.2648 9.11669
1124 3 5.35973 12.5469 10.8886
1111 1 5.62586 14.177 8.95978
1619 2 7.17485 14.3376 10.7642
1618 3 3.70809 14.283 10.8145
1601 1 7.3087 12.4997 9.0333
3095 3 3.75804 12.5416 9.00253
617 3 10.9061 14.3391 10.8554
1125 2 9.15011 12.5055 10.6937
3096 2 9.16269 14.3682 9.04931
3598 3 10.8109 12.3483 9.03808
1126 2 14.3101 14.349 10.6834
1113 2 12.6011 14.3134 9.02238
1620 2 12.5307 12.4619 10.7973
1602 2 14.2987 12.4161 8.9237
1621 2 16.0904 12.5003 10.7657
3126 1 17.9638 14.3603 10.6763
3102 3 16.014 14.3122 8.96688
3101 3 17.8348 12.4863 9.11606
1623 2 0.0767959 17.86 10.7512
2119 3 1.96232 16.084 10.8696
72 1 7.271 14.3301 14.1748
2642 2 3.72508 12.6766 16.0794
40 3 7.3022 16.0986 9.0778
619 1 3.76506 17.9314 10.8022
1127 3 7.31608 17.9408 10.7402
2120 2 5.55165 16.1678 10.8265
2106 1 3.78174 16.2442 9.08858
1636 2 8.98287 10.6572 16.0661
1624 2 10.8492 18.0189 10.7689
2108 2 10.8015 16.2273 9.02515
2625 2 9.06535 16.0393 10.7156
504 3 1.97661 7.2011 16.0408
603 2 14.472 16.1303 9.08639
503 1 2.03869 3.74818 15.9874
2626 3 12.6753 16.129 10.8616
3622 3 17.8884 1.9161 16.0948
2628 1 16.0093 16.1013 10.6906
2643 3 5.57344 14.2796 16.1011
3123 1 1.89139 14.2346 12.549
3133 1 16.097 1.97536 17.839
1637 1 14.2614 10.7534 17.7902
2121 3 0.25996 -0.0277223 14.4199
2629 2 1.8516 1.86906 14.3465
3113 3 1.83262 0.17829 12.6247
43 1 3.72964 2.13809 12.4112
605 1 7.04254 1.95051 12.5789
514 3 1.98267 12.6643 14.35
2123 2 3.7293 0.246699 14.3665
3128 1 5.50147 2.08427 14.4268
3605 1 5.36156 0.077473 12.5771
606 2 10.6791 1.80327 12.4759
1627 2 10.7307 0.159146 14.2519
3129 1 8.93157 2.08899 14.3239
1134 2 14.3125 1.98103 16.0654
1117 3 14.3773 1.89967 12.6983
59 1 12.4595 0.24932 16.1248
3131 3 12.4081 1.8503 14.4057
3621 2 9.03437 0.380933 16.0927
513 2 0.226855 14.341 14.3604
1133 2 10.759 1.78647 16.039
2118 3 16.2318 10.7807 12.4445
3132 3 16.0314 1.88179 14.3357
607 3 1.97113 3.60923 12.6441
1119 1 1.83205 7.29767 12.6549
1118 2 0.149712 5.33537 12.6499
2640 2 0.251744 12.5911 16.0901
2641 1 2.08059 14.3131 16.0904
3624 1 1.84082 5.34366 14.1562
60 3 7.14101 7.25977 14.3593
608 1 5.41145 3.74254 12.3631
1612 3 7.22001 5.57303 12.5206
1611 3 5.43538 7.19908 12.5087
1610 1 3.76581 5.4284 12.697
2128 2 7.20558 3.76808 14.2288
2126 2 3.6164 3.75352 14.3412
3136 2 3.76279 7.27647 14.2208
3626 2 5.41212 5.55722 14.4493
1613 1 10.61 5.482 12.5325
2114 3 8.88446 7.27433 12.5358
3137 1 10.7665 3.69522 14.3042
3629 2 8.94448 5.43269 14.2542
3628 1 10.6869 6.92313 14.2346
3610 2 8.87814 3.82009 12.499
610 1 12.5047 3.69297 12.6017
1614 2 14.2303 5.31594 12.6049
2617 1 12.4536 7.26298 12.537
3138 2 14.1766 3.69049 14.2676
3631 1 14.2339 7.27214 14.386
3630 2 12.4328 5.4347 14.2968
2136 1 1.8865 12.6117 17.754
65 2 15.9667 5.45888 14.2975
2639 3 17.8069 10.6904 17.961
1121 3 16.1175 3.76101 12.5208
2618 1 16.0099 7.1991 12.6857
3140 2 17.7447 7.24756 14.2615
67 2 1.92912 8.99345 14.2967
611 3 1.93032 10.6633 12.5644
2115 2 0.149361 9.02028 12.5904
2135 2 16.1534 10.7656 16.1349
69 1 7.2738 10.7093 14.3631
70 2 5.54088 9.14331 14.2677
1616 3 5.52967 10.6461 12.5042
2116 2 3.7756 9.02462 12.5372
2619 3 7.24877 9.12915 12.6013
3633 2 3.62326 10.8394 14.2787
71 2 9.07872 9.03259 14.1604
2117 2 9.04602 10.8224 12.4974
2620 3 10.7368 8.93916 12.5349
3141 3 10.8313 10.7967 14.2335
510 2 12.4995 8.75554 14.2264
1617 2 12.4694 10.6293 12.5285
3122 2 14.3013 9.00103 12.6332
3635 3 14.3976 10.8419 14.2109
511 1 16.0785 9.07001 14.3198
1640 2 15.9471 8.94325 17.8841
2638 2 14.2652 8.92607 16.0523
520 3 0.145621 0.193914 21.4321
78 1 0.150296 1.84978 19.67
2145 1 1.95226 1.90044 21.3746
3151 2 1.95316 0.210423 19.6925
139 2 15.9702 9.10926 31.8348
80 3 3.69128 1.85115 19.6703
79 1 7.15481 1.92187 19.5959
2147 2 5.39628 1.94322 21.4034
2203 1 14.4264 9.0945 33.8366
2651 2 5.45192 0.0340905 19.6162
81 3 10.7524 1.9456 19.6667
1648 2 10.7115 0.0763037 21.3658
2652 2 9.0215 2.02018 21.4544
3152 2 8.85665 0.353854 19.6583
522 1 14.2673 2.03375 19.6167
1023 1 12.7013 10.7034 34.0114
2653 1 12.5382 1.92441 21.4224
136 1 14.4249 10.7435 31.9999
137 1 12.7238 9.20624 32.1407
2713 1 10.8389 10.9935 32.0438
3153 2 16.0147 1.92055 21.4145
3647 3 16.1556 0.143861 19.6914
523 1 0.187487 5.62735 19.6153
84 1 2.17885 7.35389 19.7321
2202 3 10.7642 9.06629 33.8434
1650 2 0.143693 3.72158 21.3739
3155 1 2.01431 5.48884 21.303
3154 1 1.85955 3.53269 19.5912
524 3 3.76035 5.51425 19.634
525 3 7.27538 5.63473 19.6149
526 1 3.88089 7.24165 21.55
1153 1 7.18066 7.40647 21.4194
1152 2 5.52751 7.21807 19.5831
2655 2 3.67439 3.69707 21.3632
3156 3 7.25234 3.77047 21.5778
3649 1 5.54709 3.8593 19.8771
3648 2 5.4976 5.63787 21.4547
86 2 10.8743 7.37677 21.4436
85 1 8.85204 3.46717 19.7036
1155 3 10.7376 5.483 19.8698
1154 2 9.10369 7.26589 19.708
2656 2 10.6917 3.69136 21.5063
3650 1 8.95954 5.53803 21.4807
527 3 12.4581 7.34921 19.7026
88 1 12.5328 5.34817 21.5306
87 3 12.3845 3.67396 19.7428
1156 3 14.2833 5.36986 19.5623
2148 1 14.3522 7.14403 21.4956
2657 2 14.3008 3.7059 21.4375
528 2 17.7747 3.7458 21.4575
89 2 15.9892 5.42298 21.4877
1157 1 16.0054 7.20058 19.6052
1717 2 16.2601 16.0901 31.9281
1718 3 17.7993 16.2051 33.8554
3651 2 15.9541 3.49738 19.5261
529 2 1.9838 8.88226 21.4328
530 1 2.10294 10.636 19.4733
1158 1 0.164712 8.99918 19.6683
3652 1 0.283995 10.6514 21.3949
531 3 5.53424 9.1074 21.3721
532 1 5.65217 10.9472 19.4869
533 3 7.2072 10.8854 21.4906
1159 3 3.83506 8.9523 19.5488
1651 2 7.1905 9.06085 19.4983
3653 1 3.72096 10.7482 21.2746
90 2 8.93554 10.8438 19.7689
1161 2 9.08454 8.99185 21.4822
1160 3 10.812 10.9103 21.4881
1652 2 10.6236 9.11604 19.6631
534 2 12.3629 10.8343 19.5776
1162 2 12.3875 9.07058 21.4688
1654 2 14.3053 10.791 21.4946
1653 3 14.2761 9.03703 19.8348
1656 3 15.8962 10.7095 19.7208
1655 1 16.1071 9.13006 21.6282
3710 1 14.35 16.1174 33.6909
3218 2 12.6049 17.94 33.6886
1716 2 12.527 16.0546 31.9122
1659 3 1.91767 14.3645 19.6087
1658 3 2.00798 12.4701 21.3115
1657 2 0.275646 12.3117 19.7119
1163 2 5.42815 14.3606 19.5225
1661 3 3.68157 14.4589 21.5676
2151 2 7.22857 12.6403 19.6444
2150 1 5.46639 12.6905 21.3565
2149 3 3.65705 12.6395 19.5302
3160 2 7.2783 14.4611 21.437
1662 2 9.07264 14.3905 19.6407
2153 3 9.05095 12.7389 21.5172
2152 1 10.7836 12.5883 19.7018
2658 3 10.8634 14.3533 21.4273
2155 2 14.2976 12.5081 19.6353
2154 2 12.497 14.3239 19.4199
2660 3 14.3514 14.3356 21.423
2659 3 12.6178 12.5875 21.3564
135 2 8.95946 9.16159 32.1935
1164 2 17.7748 14.2451 21.4029
2156 2 15.9819 14.3148 19.5687
2661 3 16.0148 12.6328 21.5992
3217 1 10.7037 16.2686 33.8028
2157 1 2.02905 17.8725 19.5691
1029 3 8.91079 16.1025 32.0352
3161 3 1.85257 16.1364 21.3973
1664 3 7.34747 17.8539 21.4087
1663 2 3.83958 17.8911 21.3107
2664 2 3.66231 16.2134 19.6478
2663 1 7.14862 16.039 19.6453
3163 2 5.48307 16.0392 21.3508
640 2 9.02139 10.9111 34.0047
3211 1 3.5187 10.7278 32.1824
2665 3 10.7953 16.2737 19.5633
3164 1 8.90581 17.9172 19.593
3655 2 9.01613 16.1445 21.2067
3212 1 7.18297 10.8034 32.0744
3166 1 14.4935 16.1859 19.592
3165 1 14.4167 17.8619 21.3907
3656 2 12.6578 16.0361 21.4307
92 3 16.1498 16.0957 21.4472
2201 2 7.22409 9.11853 33.8708
1166 3 17.8565 16.0261 19.6441
1712 3 3.61128 8.9881 33.9278
93 2 1.88574 1.91161 25.0028
1022 2 5.42661 10.8364 33.8265
134 2 5.4405 9.06279 32.184
3168 1 0.15701 1.88612 23.2405
2158 3 5.32973 0.218644 23.2117
3706 3 1.88166 8.93206 32.0795
3170 3 7.27807 1.94974 23.1529
3169 3 3.66724 2.03674 23.1568
3659 3 7.34451 0.207227 24.9003
3658 1 5.57756 1.95052 24.9372
537 1 8.98485 1.98828 25.0052
3210 1 0.237439 10.7546 32.0729
1710 2 1.85695 10.8193 33.8867
3660 2 10.787 1.84566 23.1565
138 3 17.8758 9.00027 33.7941
3663 2 14.231 1.90805 23.1773
3662 2 14.1498 0.041434 24.8376
3661 2 12.3608 1.91731 24.9964
539 3 16.0992 1.8644 24.8856
647 2 10.7346 17.9848 32.0761
3704 2 16.1507 5.28739 31.9392
2160 1 15.968 0.210337 23.1478
99 2 2.11788 5.46691 25.0013
98 1 2.13689 7.16788 22.9344
97 3 0.35697 7.18897 24.7228
3215 3 7.12675 16.1088 33.8328
3173 3 1.86145 3.71501 23.1431
3216 3 3.64256 16.0098 33.7815
540 3 3.69837 7.31603 24.8613
541 2 5.63922 7.27867 23.2063
542 2 7.24032 5.59249 23.1874
543 2 5.46885 5.64705 24.9494
101 3 7.30923 7.18749 25.0835
100 3 3.67591 5.38385 23.2279
2675 1 7.2908 3.83558 24.9008
3175 3 3.78793 3.59004 24.8933
3665 3 5.55747 3.84579 23.0816
546 1 9.16904 7.33917 23.2325
547 1 9.02965 5.41942 24.9215
102 1 10.6612 5.51871 23.2312
1170 3 10.6897 7.38196 25.0882
3177 1 10.8871 3.63811 24.982
3666 3 9.01883 3.72487 23.276
548 2 14.2021 5.42337 23.3871
549 1 12.4697 5.36379 25.0681
105 1 14.3168 3.648 25.0703
1670 3 12.5586 7.2022 23.3783
3179 3 12.4649 3.61035 23.1872
3667 1 14.2774 7.32326 25.0261
1172 1 16.0615 5.56594 24.844
3705 2 17.9958 5.40978 33.76
1671 1 16.081 7.33558 23.1402
1715 2 7.25308 17.9232 32.1268
2677 3 17.7319 5.47617 23.1645
3668 2 15.9874 3.69468 23.2842
550 2 0.295951 9.11022 23.1371
106 1 2.06809 10.8875 23.1693
1175 1 2 9.07186 24.8807
1027 2 5.54493 16.2099 32.1786
108 2 5.50505 10.9319 23.2483
1180 3 7.21666 10.7328 25.0015
1178 2 7.28545 9.15877 23.3191
1177 3 3.79493 9.06962 23.1297
1176 1 5.64089 8.99644 24.8353
3670 3 3.73435 10.7366 24.9306
551 3 10.7474 10.8715 24.973
552 2 9.12041 10.8636 23.2449
1181 3 9.12047 9.08298 25.0041
1674 2 10.8821 8.96311 23.1781
1182 2 12.4792 10.9843 23.2222
1676 1 12.5567 9.18792 24.8809
1675 1 14.1489 9.11757 23.1183
2163 2 14.3613 10.94 25.0465
1183 1 16.1337 9.08386 24.882
1677 1 16.1823 10.9258 23.3063
3214 1 0.170935 16.0818 33.8167
3671 3 17.9972 9.02895 23.101
1709 2 16.1884 7.04905 33.939
1184 1 1.82962 14.1022 23.2517
1678 2 1.95582 12.5435 24.9819
2166 1 0.239781 12.2974 23.1371
113 3 7.25553 14.2613 25.0268
1185 2 5.55969 12.5305 25.0318
2170 2 5.54718 14.4383 23.1392
2169 2 3.86095 12.6324 23.3066
2168 1 3.73065 14.253 25.1117
2167 1 7.17361 12.5508 23.1668
1680 3 10.803 14.4899 24.951
2171 2 10.8601 12.6888 23.0521
2682 3 9.01642 14.4862 23.1232
2681 2 9.10845 12.8139 24.8853
114 3 14.3659 14.403 24.9686
1681 1 12.6732 12.6637 25.0202
2684 3 14.2629 12.8148 23.2934
2683 2 12.5176 14.3499 23.2322
557 2 17.9276 12.703 23.089
2173 2 15.9853 14.4056 23.1852
2685 1 16.1199 12.4959 24.9189
3183 2 17.7871 14.3456 24.9425
1684 3 1.93519 16.119 24.943
133 2 16.1055 3.66201 33.7662
2688 1 0.222034 16.0924 23.2406
2714 2 16.1858 10.6604 33.7574
2175 2 7.26162 17.8537 25.0333
641 2 1.75146 12.4733 32.0677
3703 2 12.5173 5.48925 31.9991
3187 1 5.38074 16.0777 24.9203
3186 1 7.06939 16.3215 23.2431
3185 3 3.66521 16.2026 23.1918
1687 1 9.06001 18.0055 23.1988
1686 3 9.01614 16.1554 25.0608
2177 2 10.6768 17.8628 24.9898
3675 1 10.7638 16.3007 23.1026
3209 3 14.3607 7.27144 31.8994
2690 1 12.5473 17.8911 22.9623
3188 1 12.478 16.2037 24.8752
3676 2 14.5794 16.1023 23.1785
1187 3 17.8419 16.0641 23.2645
1026 2 1.84809 16.0625 32.0086
1689 2 16.1311 16.2365 24.9539
2200 3 14.2925 3.64786 31.9381
1708 2 14.3468 5.56477 33.7376
2180 3 1.95443 1.99857 28.4385
2668 1 1.90428 0.126404 26.8208
3657 2 0.231356 2.04426 26.6076
1021 1 12.6842 7.34169 33.8167
94 3 7.33269 1.90125 26.7474
1189 1 3.93196 0.164671 28.2712
637 3 12.4564 3.75481 33.8782
2181 3 5.52172 1.9803 28.4607
2669 1 3.55899 1.81912 26.7685
560 3 10.9086 0.12806 28.5151
95 1 9.15069 0.190203 26.7188
2182 2 9.09627 1.93369 28.5869
2672 1 10.7495 1.81543 26.8762
538 2 14.1025 1.88077 26.5665
3702 3 9.06567 5.45648 31.9439
2184 2 12.6534 1.92175 28.4781
2183 2 14.3637 0.083856 28.4852
2159 1 17.8486 1.85669 26.8263
3193 1 15.8816 1.90946 28.3901
2711 2 10.8782 3.58276 31.9586
3664 3 15.9558 0.24751 26.6811
1168 1 2.08184 3.70034 26.7121
1669 3 2.01528 7.22268 26.6183
2719 1 17.8894 14.4108 32.0424
2720 2 16.1171 14.3187 33.8835
1025 3 17.9586 12.5372 33.6455
3194 2 2.01133 5.53657 28.4973
544 2 3.75638 5.2983 26.6224
563 2 7.1562 7.3541 28.5242
1691 2 7.33368 3.67799 28.5561
1690 2 3.71988 3.82072 28.4413
2676 1 7.31138 5.57244 26.9284
3196 2 3.78942 7.20608 28.5428
3195 2 5.53315 5.51216 28.4492
3176 3 5.58471 3.69935 26.71
3174 1 5.3811 7.2904 26.6559
545 1 10.513 5.60321 26.8487
1171 2 8.94965 3.68138 26.7153
1169 1 8.98246 7.33131 26.8941
2694 1 10.7288 3.75464 28.5564
3197 2 8.92786 5.52795 28.6743
3681 1 10.7504 7.35945 28.5591
104 1 12.5057 3.65783 26.9384
103 3 14.3425 5.61609 26.6099
2695 2 14.3485 3.71111 28.4509
3178 3 12.4449 7.30446 26.7436
3684 3 14.2351 7.30792 28.5401
3683 2 12.5053 5.51198 28.5378
622 1 17.8136 3.79196 28.4134
1024 3 16.116 12.5623 32.1568
1174 2 16.0755 7.44769 26.722
3213 1 12.4832 14.4861 33.6822
3180 1 15.9904 3.74496 26.7549
3685 2 15.9577 5.48629 28.4526
1673 3 0.136828 8.92749 26.6747
2161 2 1.92748 10.8791 26.8083
2696 3 0.286008 10.7781 28.4796
3687 2 1.96947 8.87593 28.5477
122 1 7.11078 10.714 28.6945
107 1 3.74093 8.9956 26.8494
1179 2 5.45523 10.7947 26.6089
2162 2 7.13746 9.12859 26.7444
3689 3 5.34479 9.15706 28.5044
3688 3 3.67842 10.8412 28.5513
625 2 8.89666 9.02089 28.5565
110 2 10.8286 9.17431 26.7748
109 3 8.91615 10.8746 26.6746
2698 2 10.7546 10.8548 28.3876
626 2 12.5546 9.09999 28.6161
2164 1 14.2657 9.05643 26.7162
3181 3 12.6158 10.8865 26.783
3690 1 14.4279 10.7607 28.5302
2718 3 14.319 12.5785 33.9822
554 1 16.1243 10.9095 26.5959
628 2 16.1548 8.98201 28.5132
1698 3 17.8023 10.972 28.3982
629 2 1.89233 12.8057 28.496
645 1 14.5086 14.3455 32.1634
1005 2 0.00912879 14.3891 28.4458
2679 1 1.97611 14.3491 26.7123
630 2 7.21658 14.3215 28.6483
112 2 5.58284 14.3783 26.7734
1006 1 5.51657 12.5121 28.4893
1007 3 3.78175 14.1954 28.5845
1679 1 7.32036 12.6241 26.8521
2680 3 3.7446 12.578 26.7306
124 2 10.9141 14.2502 28.611
1008 1 8.87339 12.5315 28.4982
2172 2 9.1107 14.3161 26.8615
3182 2 10.8289 12.683 26.8676
556 1 12.4833 14.4828 26.7698
1009 3 12.6725 12.6304 28.514
1699 3 14.439 14.4631 28.5278
1682 1 14.2622 12.7004 26.8064
1011 3 16.0732 12.6147 28.489
2686 3 17.7676 12.666 26.6386
3184 2 16.1459 14.5522 26.5694
3692 2 17.8477 14.3859 28.4956
2192 2 1.86515 16.0347 28.4265
2712 2 10.9422 7.34449 32.0463
646 3 12.7479 12.4213 32.0505
1706 1 8.83289 7.2879 33.8627
128 3 3.67513 17.7818 28.6304
1707 2 10.7916 5.68307 33.899
1020 1 8.92404 3.82963 33.7204
1685 2 3.75354 16.0818 26.7538
2193 1 5.39189 16.0433 28.534
3674 1 7.1937 16.006 26.741
1012 3 10.765 17.8007 28.4968
1688 2 10.8114 16.1011 26.7133
2194 3 8.98392 16.0439 28.416
2176 2 9.0241 17.9385 26.818
558 3 12.5216 17.8559 26.7483
116 2 14.1914 16.1354 26.689
1702 1 14.3384 17.7815 28.4879
2195 3 12.4875 16.1676 28.6573
2717 3 10.8318 12.6685 33.8988
3700 2 3.70278 7.10106 32.0164
2704 1 16.1819 16.0491 28.4372
3701 2 7.28254 7.251 32.0353
2207 3 9.06675 14.2816 33.8098
3208 1 5.5783 5.54154 32.0699
118 2 7.18602 2.00379 30.214
117 3 3.73909 1.93286 30.2318
3191 3 5.64174 0.0882563 30.1964
119 2 10.7734 1.98615 30.2014
2710 2 7.17559 3.6024 31.9279
561 2 14.3702 1.8206 30.2557
2199 2 5.55895 7.30011 33.7571
1705 3 3.73525 3.84983 31.9859
2692 2 17.8936 1.87611 30.1515
121 2 1.97503 7.19687 30.1793
120 2 2.01221 3.78582 30.1923
643 2 10.8164 14.3347 32.1374
1001 2 3.70456 5.51628 30.2671
1191 3 7.22334 5.6053 30.2898
1692 3 5.34264 7.31939 30.3481
3680 2 5.44403 3.83177 30.1018
1002 3 10.783 5.53464 30.3921
2693 1 8.9249 7.42095 30.288
3682 1 8.98976 3.6814 30.3262
1003 1 12.4926 3.7269 30.2048
1693 1 14.4043 5.39906 30.2169
2187 1 12.4606 7.27679 30.2721
623 2 16.1653 3.58812 30.1728
1694 1 16.1583 7.35524 30.1908
3686 3 17.7828 5.5181 30.2869
624 2 1.83294 10.7597 30.2577
1695 3 0.202144 8.86856 30.3803
1696 1 3.81776 8.98995 30.3717
2189 3 7.16043 8.99324 30.3212
2188 2 5.35703 10.9512 30.4612
1697 2 8.99726 10.9391 30.2934
2697 3 10.6538 9.21899 30.3319
627 2 12.4662 10.8172 30.1663
2699 2 14.3916 9.09584 30.0965
123 1 17.8346 9.11462 30.1537
2190 2 16.1802 10.8687 30.3435
644 1 9.05786 12.4978 32.0545
3691 1 1.84281 14.3537 30.2179
2700 3 3.54018 12.4596 30.2643
3199 2 7.31472 12.5195 30.2799
3198 3 5.45473 14.2278 30.3516
2701 1 8.92633 14.2534 30.291
3200 1 10.9432 12.5787 30.3076
2702 2 12.5526 14.2517 30.3812
3201 3 14.3905 12.6408 30.2853
125 3 16.2828 14.3804 30.1599
1010 1 17.988 12.5189 30.2748
1019 1 7.17684 5.36917 33.8955
3707 3 3.70026 14.153 32.0239
127 1 7.20844 16.046 30.3128
126 3 3.75481 16.0839 30.2775
2703 1 5.58736 17.8543 30.3042
3696 2 10.588 16.046 30.2926
3695 2 8.98412 17.7955 30.3301
129 3 14.4378 15.9944 30.2945
1013 1 12.5065 17.91 30.2384
3708 3 7.16988 14.3965 32.0539
1018 1 3.79699 5.59403 33.9082
2715 2 3.75069 12.5533 33.8784
2716 3 7.08646 12.6971 33.7746
2707 1 2.02273 2.07702 31.8067
3697 3 2.05087 0.371912 33.652
633 1 3.76113 1.93542 33.6328
632 3 7.31058 1.81859 33.7531
1014 2 3.90089 0.195778 31.7489
1015 3 7.29763 0.249699 31.8932
2708 1 5.45576 1.96851 32.0365
132 1 5.46523 3.68066 33.861
634 2 10.773 1.90796 33.7947
3699 3 1.98161 3.62451 33.7602
2709 2 8.96403 1.97383 32.0741
3698 2 8.98093 0.0281049 33.7915
635 2 12.6196 0.137292 33.7136
1016 2 14.4661 1.96685 33.6895
2197 2 14.3861 0.174767 31.9771
3204 3 12.6092 1.90189 31.9816
131 2 16.1814 0.148992 33.7504
130 2 17.8594 0.3324 31.906
1713 2 5.30106 14.3259 33.8748
3205 1 16.0872 1.96994 31.9184
636 2 1.82779 7.1626 33.7438
642 1 5.36267 12.5885 32.0965
2205 2 0.0945815 12.5862 33.8037
2206 2 1.86453 14.1791 33.7375
3207 1 1.91553 5.4522 32.0632
1142 1 5.45867 9.00619 17.8009
3061 3 5.51885 1.59393 35.5657
68 3 3.76108 10.8492 17.9243
2566 1 14.4665 0.317432 35.6328
2650 2 17.9265 17.9484 17.9514
77 2 16.2219 16.0548 17.6707
7 3 5.42815 5.44443 35.5402
8 3 3.88858 7.3178 35.5874
2570 2 7.30581 3.71757 35.5935
2569 2 3.73076 3.69098 35.4954
9 1 9.17545 5.51742 35.571
11 1 12.5584 5.59004 35.5769
12 1 14.3453 3.67351 35.4078
1130 3 3.653 0.224231 17.9113
1571 3 14.427 7.21874 35.7287
1078 1 16.1689 5.53011 35.5623
2070 1 18.0175 7.30861 35.5408
1085 1 5.62835 8.9819 35.7533
1577 3 7.30282 10.9507 35.653
1088 3 14.4349 10.832 35.6048
508 2 1.97685 8.86727 17.9939
2079 3 1.97148 12.6486 35.609
2080 1 5.48961 12.6255 35.636
3071 1 3.58327 14.226 35.5574
2630 3 5.56913 1.91866 17.9066
2084 1 10.8398 14.3801 35.5095