ITEM: TIMESTEP
5000
ITEM: NUMBER OF ATOMS
4000
ITEM: BOX BOUNDS pp pp pp
5.4184181388496455e-02 3.5679875818611364e+01
5.4184181388496455e-02 3.5679875818611364e+01
5.4184181388496455e-02 3.5679875818611364e+01
ITEM: ATOMS id type x y z
563 3 -0.000686657 0.0520198 -0.173431
1064 3 1.76924 1.92664 0.0441101
1563 1 1.9238 0.196528 1.63423
2064 3 0.0395682 2.00146 1.82144
1 1 3.73451 1.70121 1.53789
565 3 7.40454 -0.112203 0.00417874
2065 2 7.45588 1.85195 1.71567
2565 3 3.67917 0.246557 0.0114741
3064 3 5.68787 1.80686 0.118648
3564 2 5.62445 -0.0788808 1.75071
2 2 10.7317 1.99926 1.83055
1066 2 8.99475 1.74606 0.0767379
1564 2 9.05165 -0.0270087 1.75798
2566 3 10.7527 -0.231641 -0.00540922
567 2 14.3707 -0.211588 0.0831179
2066 1 14.2421 1.75032 1.73647
3066 2 12.4772 1.68647 0.016377
3565 3 12.584 -0.047246 1.79324
751 1 17.8389 0.101654 0.0631441
1068 2 16.0446 1.71752 -0.0111847
1565 3 16.2233 -0.0983864 1.70278
2001 3 17.9946 1.79423 1.75511
3 3 0.16443 5.60562 1.71529
573 3 0.0426522 7.33946 -0.0193753
1568 3 1.8555 7.32031 1.81734
2569 2 -0.0903217 3.72468 0.0799384
3068 1 1.8563 5.70017 0.0194221
3566 1 1.76458 3.69865 1.83384
4 1 7.29001 5.48437 2.02804
569 3 3.51079 3.75081 -0.110446
577 2 7.20727 7.18921 0.112616
1070 1 5.84335 5.5499 0.0674118
1566 1 5.55729 3.85154 1.90203
2067 2 3.67844 5.31775 1.73608
2576 3 3.74766 7.22624 -0.0709427
2571 2 7.23283 3.5776 0.0718565
3570 3 5.51774 7.24344 1.95386
570 2 10.7355 3.43534 0.216243
1570 3 8.99383 7.29327 1.78585
2068 1 10.9522 5.19813 1.83078
2578 2 10.8524 7.21479 -0.0803876
3070 2 9.17731 5.51877 0.0461402
3567 2 9.10938 3.678 1.97457
5 2 14.5061 5.29716 1.6808
581 3 14.2713 7.06326 -0.0466841
1072 1 12.5134 5.33406 0.132617
1567 2 12.7987 3.39538 1.56812
2573 2 14.379 3.61752 -0.0879511
3572 3 12.5732 7.17291 1.93563
253 1 17.8729 5.30974 1.85765
761 2 17.9818 7.05343 0.322289
1572 3 16.1582 6.9918 1.87478
2819 1 17.9229 3.46097 0.105097
3072 3 16.3087 5.40773 0.0112192
3568 3 16.2233 3.49426 1.59806
1074 2 1.81259 9.09983 0.00494127
2069 1 0.0399588 8.89261 1.97829
2574 1 0.249848 10.8234 -0.0575042
3569 2 1.70671 10.8351 1.98927
6 1 3.59806 9.19522 2.06754
575 3 3.64424 11.0226 0.0631795
1569 3 5.45224 10.9713 1.86548
2070 1 7.2265 9.11938 1.88108
2579 2 7.31115 10.6724 -0.0988035
3074 3 5.54792 9.12478 0.184568
7 1 11.0159 8.93274 1.99882
578 3 10.6813 10.8014 0.0292591
1076 2 9.07423 9.06437 0.0138487
3571 2 9.00392 10.718 1.8771
1571 2 12.442 10.8005 1.73576
2071 1 14.4963 8.76551 1.80881
2582 3 14.2442 10.7497 0.198409
3076 3 12.7309 8.95188 0.186969
1078 1 16.0081 8.85576 0.187562
2006 1 17.8979 9.16547 1.77712
2825 2 18.0246 10.7448 -0.0371397
3573 1 16.0445 10.743 1.98081
8 1 -0.0137003 12.6449 2.04314
583 2 0.0273328 14.2495 0.0101192
1573 1 1.78125 14.2182 1.74008
3078 1 1.8723 12.5908 0.0883642
9 1 7.2548 12.4639 1.63412
585 1 7.03714 14.2948 0.16803
1080 1 5.26952 12.6086 0.172973
2072 3 3.59208 12.4359 1.99387
2585 2 3.53516 14.2782 0.11171
3574 1 5.27968 14.2679 1.87719
1574 3 9.03896 14.2876 1.80078
2073 2 10.6721 12.5797 1.80687
2586 1 10.8184 14.1435 0.0482539
3080 1 8.9606 12.3731 -0.00397598
10 3 14.3718 12.5521 1.93874
587 1 14.4346 14.3268 -0.212876
1082 3 12.5613 12.5189 -0.189527
3575 1 12.5833 14.3439 1.77516
258 2 17.7721 12.4755 1.82182
771 2 18.1085 14.2062 -0.0919501
1575 3 16.2828 14.2828 1.55938
3082 1 16.1532 12.5301 0.061698
626 1 0.0975017 17.9299 0.182036
1084 2 1.68556 16.0188 0.0880976
1688 3 1.87777 17.869 1.8476
2074 3 0.0942399 16.1907 2.03513
11 3 3.63267 16.1935 1.81803
630 3 7.32055 17.7076 -0.058272
2075 1 7.05203 15.7882 1.65496
2691 1 3.4686 18.0127 0.173798
3084 1 5.29769 15.8267 -0.0214968
3690 3 5.2332 17.98 1.85097
12 2 10.7586 16.1019 1.74373
1086 2 8.9694 16.0349 -0.00899641
1690 2 9.05796 17.6455 1.89121
2693 3 10.7264 17.9317 0.0310593
634 3 14.2752 17.7436 0.255339
2076 1 14.3003 16.0292 1.97776
3086 2 12.55 16.0647 0.173451
3692 2 12.3956 17.7917 1.88808
876 2 17.7016 17.9963 -0.134115
1088 1 16.2705 16.1103 -0.00113631
1692 3 16.063 17.9043 1.73371
2011 2 17.9533 16.1953 1.79025
13 3 0.0564666 1.75339 5.19761
588 1 -0.0774589 -0.102611 7.04142
1089 3 1.92518 1.70192 7.07743
2564 1 0.194415 0.0808656 3.60878
3063 1 1.91253 1.93677 3.41938
3576 3 2.0106 0.0845703 5.23693
14 1 7.04134 1.94231 5.10935
564 3 3.80691 0.170886 3.34019
1065 2 5.4599 1.98587 3.15032
1577 3 3.80862 0.099541 7.24101
1576 1 5.5014 0.0368112 5.23946
2078 2 5.52664 1.87525 7.01866
2077 1 3.87303 1.71685 5.21806
2589 2 7.07183 0.221432 7.1144
2567 1 7.19554 0.180821 3.54768
566 3 10.6633 0.247452 3.72937
2079 2 10.508 1.94525 5.3259
3065 1 9.04763 2.21707 3.57878
3088 3 8.85309 1.72708 7.22649
3578 3 10.6477 0.0265281 6.9727
3577 2 8.89538 0.0980503 5.38768
15 3 12.5426 1.72601 7.14349
16 2 14.3897 1.83053 5.43441
589 1 14.3462 0.0266172 7.09224
1067 2 12.5941 1.8431 3.65455
1578 1 12.5853 0.0811189 5.17826
2568 3 14.3826 -0.0308982 3.68495
263 1 17.8306 1.48166 5.18899
776 1 17.7945 0.017118 7.19614
1090 3 16.1912 1.67784 7.25801
2815 2 17.9861 -0.143675 3.32054
3067 1 15.9725 1.80529 3.72561
3579 2 16.0111 0.0750812 5.3058
568 1 -0.0155574 3.70426 3.39515
1069 1 1.70644 5.67329 3.48294
1580 2 0.0375822 3.5308 7.05913
1579 1 1.57493 3.47945 5.29671
2081 3 1.66936 5.25076 7.27444
2080 1 -0.10895 5.31034 5.50066
2591 2 -0.0568674 7.08428 7.59198
2575 3 -0.0302713 7.19779 3.66778
3583 3 1.76815 7.14218 5.34671
17 1 3.20249 5.21941 5.52234
571 2 7.11278 3.60912 3.52497
592 3 7.44653 7.29163 7.16474
576 2 3.71194 7.04469 3.52225
1585 2 5.10297 7.37197 5.33637
2082 1 7.07408 5.45327 5.35383
2590 3 3.57769 3.43005 7.22362
2580 3 7.19877 7.19674 3.7298
2570 2 3.36625 3.89732 3.59716
3069 3 5.37051 5.31384 3.84092
3089 3 5.39412 5.48542 7.11268
3586 3 3.42428 7.14384 7.14449
3581 3 7.25821 3.7139 7.13506
3580 1 5.25781 3.49625 5.33231
18 3 10.8539 5.46294 5.30005
19 2 9.09651 5.36731 7.14321
590 3 10.6334 3.71643 7.1114
579 1 10.8828 7.09408 3.53041
1071 2 8.87028 5.30518 3.56068
1587 1 10.7958 7.21773 7.01593
1581 1 9.11541 3.65978 5.31877
2572 2 10.9566 3.65048 3.68794
3587 3 9.0226 7.06573 5.3612
572 3 14.2409 3.74949 3.62568
1091 3 12.7464 5.41131 7.10386
1589 1 12.6043 7.30069 5.26311
1583 1 14.428 3.7608 7.20014
2083 3 14.2928 5.56136 5.43599
2593 1 14.6256 7.15742 7.09882
2583 2 14.2495 7.23626 3.47287
3071 2 12.7448 5.45286 3.52555
3582 1 12.5835 3.52901 5.4051
757 3 17.6897 3.42126 3.70467
1073 1 16.0849 5.26308 3.62122
1768 3 17.8831 3.57973 7.01399
1582 2 15.9711 3.73046 5.42195
2084 2 16.3116 5.44118 7.06337
2017 1 17.7468 5.54012 5.31322
2841 3 18.0349 7.22259 7.09123
2826 3 17.9564 7.30909 3.51453
3589 2 16.3788 7.37662 5.31202
20 3 0.066381 8.87964 5.68495
574 3 0.1385 10.6876 3.68176
1584 1 1.89475 10.5666 5.65852
3073 1 1.6849 8.94465 3.55885
3090 1 1.8341 8.93591 7.18303
3584 3 -0.0160853 10.9616 7.36534
21 2 5.52477 9.18525 7.14658
22 1 7.09749 9.09328 5.34209
591 1 3.68476 10.6799 7.02224
580 1 7.11747 10.9673 3.56859
1075 1 5.43904 9.13866 3.52458
1588 2 7.38846 10.6738 7.07244
2085 1 3.47631 8.9319 5.1576
2577 1 3.39944 11.0067 3.82229
3585 2 5.25109 10.6345 5.32046
1092 1 9.30377 8.89251 7.10169
1586 2 8.81863 10.7479 5.29208
2086 1 10.7345 9.1145 5.17706
2592 2 10.8386 10.6303 6.98371
2581 2 10.7851 10.6537 3.52525
3075 1 9.04996 8.97249 3.62595
23 2 14.5141 9.02484 5.56689
582 3 14.3242 10.6496 3.49165
1077 1 12.7516 9.04137 3.60751
2087 1 12.5999 9.06557 7.12564
3590 1 14.4504 10.7106 7.10564
3588 2 12.6216 10.7824 5.35009
270 2 18.0732 9.0449 5.41514
764 2 17.8307 10.7744 3.48007
1590 3 16.2703 10.8705 5.29918
3091 2 16.0816 9.10394 7.15877
3077 1 16.2283 8.71873 3.38385
3835 1 17.9178 10.6272 7.04681
24 3 1.91702 12.4814 7.01992
593 1 0.0604246 14.3049 7.17329
1079 3 1.59014 12.6617 3.73524
2088 3 -0.0706395 12.6918 5.47838
2584 2 -0.149888 14.3837 3.67475
3591 1 1.68914 14.3354 5.57969
25 2 3.68455 12.4811 5.40769
584 3 3.68128 14.0277 3.71747
1093 3 5.56965 12.4559 7.25982
1592 2 3.69748 14.2067 7.18831
1591 1 5.35294 14.4691 5.64474
2089 1 6.94812 12.5411 5.56566
2594 2 7.23803 14.148 7.14401
2587 3 7.25696 14.1572 3.5428
3079 2 5.62336 12.4626 3.74276
26 3 10.6975 12.5067 5.47475
586 1 10.9082 14.0744 3.54571
1081 1 9.08099 12.5347 3.59272
2090 2 8.85387 12.4913 7.06515
3593 2 10.7236 14.2842 7.06496
3592 2 8.79401 14.2181 5.25945
594 2 14.1993 14.4784 7.12549
1593 1 12.5504 14.3103 5.31418
2091 3 14.4672 12.5842 5.3957
2588 2 14.1452 14.286 3.54026
3092 2 12.3379 12.571 7.12996
3081 2 12.6454 12.5197 3.67002
27 3 16.1227 12.5864 7.02799
781 2 17.785 14.4579 6.92981
1083 1 16.1038 12.6959 3.5701
2025 2 17.9225 12.4322 5.30632
2835 3 18.0839 14.3077 3.6125
3594 1 16.1052 14.1605 5.21548
28 2 -0.18775 16.0739 5.38998
651 3 0.0305782 17.8676 6.98583
1094 1 1.8327 16.0183 7.18791
2690 1 -0.0721471 17.9021 3.6306
3083 3 1.69078 16.0637 3.67928
3701 2 1.79078 18.0027 5.06027
29 3 7.19159 15.8607 5.3822
629 1 3.48889 17.975 3.77724
1085 3 5.62349 15.9325 3.70652
1704 3 3.67093 17.9008 7.13637
1703 1 5.51912 17.7949 5.46162
2093 1 5.459 16.0433 7.23316
2092 3 3.70432 16.1493 5.45933
2715 2 7.29361 17.8985 7.34646
2695 2 7.27472 17.7585 3.47428
632 2 10.7175 17.9547 3.70461
2094 2 11.017 16.0046 5.51156
3093 2 8.82998 16.1906 7.08977
3085 1 8.98771 16.0154 3.62267
3704 2 10.6647 17.8818 7.17697
3703 3 8.84885 17.8161 5.31692
30 1 12.4888 16.1892 7.41542
31 1 14.2618 16.3064 5.37933
653 2 14.3447 17.8234 7.32696
1087 1 12.5984 16.2106 3.53216
1706 2 12.5859 17.8531 5.62448
2698 2 14.2002 17.9255 3.62424
278 1 17.8727 16.1589 5.32728
901 1 17.8577 18.1014 7.07588
1095 1 16.0733 15.9657 7.18944
2878 2 17.9656 18.023 3.44627
3087 3 16.1132 16.1131 3.54859
3707 3 16.0217 17.8379 5.42417
1594 2 1.84641 -0.0669006 8.97932
2095 3 0.0460055 1.52242 8.68011
2595 1 0.0902263 -0.125683 10.6471
3094 2 1.77319 1.80933 10.6742
33 3 7.17105 1.77562 9.09666
595 2 3.64925 0.0195811 10.6381
1096 1 5.30437 1.90569 10.7105
2597 1 7.19282 -0.00684447 10.968
2596 3 5.4851 0.0373174 9.10408
3095 2 3.59829 1.73119 8.86994
596 2 10.8185 -0.100588 10.7105
1097 3 10.7424 1.89168 8.98505
3096 1 9.00286 1.78508 10.6903
3596 3 9.12702 0.0468428 8.96037
597 3 12.6245 -0.0834626 8.89285
1098 2 12.5259 1.67103 10.6441
2098 1 14.4592 1.77118 8.93935
2598 1 14.41 0.0422516 10.3869
1597 2 16.1169 -0.139696 8.80035
2032 2 17.9529 1.8852 8.89352
2845 1 17.9764 0.0595288 10.7619
3097 3 16.0764 1.62658 10.7393
598 1 0.0644001 3.39467 10.7103
1099 3 2.02075 5.3671 10.8176
2603 1 0.165176 7.10264 10.8978
2599 1 1.85875 3.42574 8.9906
3098 3 0.0980466 5.24668 9.09483
3602 3 1.7122 7.25378 8.96394
36 3 3.41439 5.33258 8.96309
605 3 3.59783 7.39771 10.6049
604 1 5.38365 7.16097 8.77882
600 1 7.2702 3.96404 10.7006
1100 3 7.34108 5.59605 8.94962
2606 2 7.15331 7.09289 10.5556
2600 3 3.70338 3.55947 10.6095
3099 2 5.38695 5.52865 10.52
3599 3 5.3733 3.56586 8.72371
606 2 11.0298 7.14943 10.7442
599 3 8.834 3.66586 9.0897
1101 1 9.2268 5.5715 10.6431
1605 2 9.1126 7.19413 8.97981
2100 1 10.8792 5.41719 8.78479
2601 1 10.8569 3.48283 10.6904
601 1 14.4475 3.6461 10.6751
1600 3 12.6068 3.70758 8.97092
2609 1 14.3295 7.25496 10.5077
2608 2 12.6309 7.25989 8.98521
3101 3 14.3948 5.46266 8.85945
3100 3 12.5449 5.38912 10.6979
786 2 17.8814 3.52168 10.7199
1102 2 16.1794 5.3576 10.6039
2853 1 18.0362 7.33823 10.7635
2602 2 16.2721 3.56619 8.95583
3348 1 17.7982 5.3561 8.85337
3608 1 16.1387 7.25233 9.02181
39 2 -0.017477 8.9103 8.9896
603 3 0.0166109 10.6362 10.8698
602 3 2.03262 10.9401 8.91059
3102 1 1.67444 9.0223 10.8201
607 3 7.09934 10.7124 10.8556
1104 1 5.38708 9.04689 10.572
1103 3 3.57792 9.17798 8.76213
1603 3 5.4089 10.8757 9.06025
2104 2 7.17322 9.0843 8.89681
2604 2 3.60239 10.9038 10.7323
2607 2 10.4898 10.7118 10.5418
2605 1 9.10536 10.7525 8.74347
3104 3 8.95281 8.93089 10.593
3103 1 10.8852 8.97508 8.85
42 3 14.486 8.98016 8.91702
609 1 14.5686 10.8667 10.6329
1105 1 12.5923 9.188 10.7426
3606 3 12.6281 10.7887 8.90285
289 2 17.9629 8.96605 9.03254
792 1 17.9207 10.9481 10.8318
608 3 16.381 10.7662 8.87317
3105 3 16.1347 8.83886 10.8491
1107 2 1.63411 12.4241 10.8773
1106 1 -0.305466 12.5726 9.0717
1609 2 1.74658 14.3734 8.81631
2610 2 0.0402182 14.3284 10.712
610 3 3.57418 14.2211 10.7296
2107 1 3.49851 12.5372 8.75613
2612 3 6.99334 14.2212 10.8716
2611 1 5.41569 14.423 9.01391
3107 1 7.42443 12.4657 8.84657
3106 2 5.23817 12.5757 10.6771
45 1 10.7673 12.4792 8.9891
611 2 10.8138 14.0832 10.5055
1108 3 9.00113 12.6056 10.7559
3611 1 9.03471 14.383 8.87897
612 1 12.6273 14.0592 8.79713
1109 3 14.4515 12.4187 8.80109
2613 3 14.1424 14.1033 10.6268
3108 2 12.3047 12.4696 10.8637
1293 3 17.9081 12.751 8.87066
1110 2 16.1267 12.5818 10.7147
1612 1 16.0827 14.1555 8.99777
2860 3 18.0674 14.4932 10.6508
1719 2 1.98356 17.8213 8.91734
2110 3 0.0146638 16.1 9.04948
2721 3 -0.031274 17.8207 10.837
3109 1 1.84886 15.9279 10.6195
48 1 7.37151 16.0335 9.14392
659 2 3.71864 17.7657 11.052
1111 2 5.30505 16.1164 10.8551
2724 2 7.1027 17.807 10.8018
2722 1 5.52531 17.6599 9.07017
3110 3 3.52147 15.951 9.01639
661 3 10.7596 17.6934 10.669
1112 2 10.7041 16.1 8.84324
3111 1 9.24232 15.9541 10.8134
3723 1 8.79483 17.8702 9.11802
663 1 12.4359 17.9505 9.06762
1113 1 12.4096 15.8341 10.5759
2113 3 14.4272 16.0176 9.02967
2727 2 14.2486 17.8895 10.7653
1725 1 16.0798 17.7943 9.18245
2047 3 17.8765 16.0606 8.71424
2908 2 17.8523 18.013 10.7458
3112 3 16.0692 16.1163 10.8067
32 2 0.106026 1.77901 12.4423
613 1 0.0418197 -0.0439378 14.1901
1114 2 1.92997 1.69867 14.3816
3595 3 1.91503 0.0895607 12.4882
34 1 7.13415 1.99814 12.5375
614 3 7.02509 -0.00692303 14.4753
1595 2 5.47392 0.136019 12.5559
2096 1 3.65098 1.71876 12.6375
2614 2 3.7134 0.177328 14.3856
3113 2 5.43978 1.83055 14.329
1115 2 8.66671 1.67732 14.3226
2097 2 10.7773 1.85096 12.332
2615 1 10.6355 0.00720263 14.4528
3597 1 8.90809 0.0405497 12.7901
35 2 14.3243 1.70239 12.399
615 1 14.2951 0.194751 14.3831
1596 3 12.5744 0.0570847 12.5638
3114 1 12.2168 1.85124 14.1989
282 2 18.0895 1.66387 12.5788
801 2 17.9164 0.112375 14.172
1116 3 16.0103 1.92715 14.2215
3598 1 16.1344 -0.0228403 12.5606
618 2 0.0785871 7.27236 14.2449
1598 1 1.8323 3.31534 12.5158
2099 1 0.211918 5.20535 12.5345
2616 2 0.0689412 3.61065 14.4809
3115 3 1.896 5.38769 14.3779
3603 3 1.84167 7.25478 12.5163
37 1 3.79573 5.53764 12.454
620 3 7.12268 7.23188 14.1426
616 3 3.78642 3.45221 14.3391
1117 3 5.47976 5.52006 14.2273
1604 1 5.31491 7.20882 12.4004
2101 1 7.21932 5.35657 12.4643
2620 2 3.46864 7.30962 14.4593
2617 2 7.19488 3.75789 14.2335
3600 3 5.31457 3.63764 12.5078
38 3 10.6928 5.54935 12.3616
617 3 10.7063 3.71096 14.1305
1599 1 8.95285 3.5666 12.3145
2621 2 10.7912 7.20934 14.4139
3116 3 8.77654 5.30636 14.2905
3605 2 9.0176 7.24561 12.4108
622 2 14.4066 7.41337 14.3963
1118 3 12.5282 5.56338 14.1589
1607 1 12.3619 7.39676 12.5414
2102 1 14.4302 5.36228 12.506
2618 3 14.218 3.51936 14.2206
3601 2 12.6286 3.56071 12.3597
806 2 17.9496 7.29243 14.4465
1601 1 15.9233 3.58626 12.3517
2036 1 17.8329 5.49846 12.5154
2866 3 17.851 3.51091 14.0149
3117 1 16.0904 5.36727 14.0409
3609 2 16.041 7.2628 12.5691
40 3 0.164791 8.98751 12.5712
1119 1 1.77214 8.99542 14.3704
1602 3 1.89847 10.8491 12.5651
2619 3 -0.0200553 10.769 14.1464
41 2 7.17346 8.90548 12.3958
619 3 3.54945 10.6526 14.3192
2103 1 3.53969 8.94761 12.4636
2622 3 7.14147 10.8117 14.4325
3118 1 5.30225 9.07328 14.3071
3604 1 5.19067 10.7436 12.4765
621 1 10.694 10.7915 14.3388
1120 2 8.93321 8.90865 14.1998
1606 1 8.74352 10.6727 12.5026
2105 2 10.568 8.97698 12.5374
43 2 14.2167 8.97537 12.4759
2623 3 14.39 10.8801 14.2973
3119 1 12.5742 9.17336 14.2605
3607 2 12.723 10.8354 12.3956
290 2 17.9152 8.90568 12.6146
1121 1 16.0329 8.79664 14.485
1608 3 16.0634 10.6489 12.5754
2870 2 17.7317 10.76 14.3854
623 2 -0.0896084 14.1881 14.4563
2106 2 -0.102191 12.6031 12.5901
3120 3 1.68346 12.639 14.1856
3610 3 1.87393 14.2821 12.6367
44 2 3.48055 12.3878 12.4794
624 1 7.06638 14.3237 14.3235
1122 2 5.27819 12.491 14.2878
1610 2 5.37778 14.0821 12.5545
2108 3 7.27757 12.4881 12.4635
2624 2 3.73244 14.3229 14.3903
46 3 10.772 12.4804 12.5468
2625 1 10.8022 14.281 14.3955
3121 3 9.01115 12.3963 14.2492
3612 3 9.10754 14.2432 12.6314
625 1 14.3671 14.1433 14.2705
1123 3 12.396 12.5435 14.3231
1611 2 12.5004 14.2326 12.4734
2109 1 14.343 12.6159 12.5439
811 2 17.8459 14.4331 14.4622
2044 2 17.7299 12.505 12.694
3122 2 16.0305 12.5807 14.4778
3613 1 16.2681 14.3214 12.4648
47 1 -0.0859003 15.9748 12.5823
676 1 -0.0758077 17.9893 14.2776
1124 3 1.92339 16.207 14.3671
3720 2 2.11133 17.8128 12.5451
49 1 7.42463 16.1072 12.4965
678 2 7.32984 17.7642 14.4142
1721 2 5.55916 17.6977 12.6176
2111 3 3.68624 15.8748 12.5836
2740 1 3.91426 17.9141 14.4682
3123 3 5.39868 16.0082 14.3977
1125 3 9.05749 15.9596 14.2921
2112 2 10.8399 16.0579 12.599
2741 3 10.7808 17.9354 14.2281
3724 1 9.05427 18.077 12.5536
50 3 14.3721 16.029 12.6088
680 3 14.4706 17.843 14.1379
1724 3 12.5784 17.8748 12.555
3124 3 12.7257 16.0014 14.2718
297 1 18.1209 16.0821 12.4368
926 3 17.9224 18.0199 14.1623
1126 3 16.1098 16.0818 14.4358
3726 2 16.2913 17.947 12.5744
1613 2 1.52212 -0.0258895 16.0925
2114 1 -0.104862 1.83423 16.0974
2626 3 -0.136214 0.0225364 18.0424
3125 3 1.86758 1.70162 17.9522
51 1 3.63012 1.54727 16.1326
502 2 3.51264 0.00322619 18.0355
1128 2 5.3585 1.91684 18.0234
2115 1 7.13433 1.94787 16.0477
2628 1 7.05201 0.328794 17.9309
3614 1 5.30581 0.267288 16.1227
52 2 10.672 1.93597 16.2437
503 1 10.6082 0.208598 17.8127
1614 2 8.98971 0.127863 15.9545
3127 2 8.93492 1.81507 18
1130 1 12.5381 1.92606 17.9542
2116 3 14.23 1.97954 16.0912
2630 1 14.2293 0.297175 17.8054
3615 3 12.5407 0.0705348 16.1432
1615 1 16.092 0.134466 15.993
2051 1 17.9446 1.83807 16.1098
2501 2 17.774 0.377259 17.769
3129 2 15.8952 1.77671 17.7411
53 1 0.0563654 5.33178 15.9291
506 3 -0.154512 3.63562 17.6937
1132 3 1.90081 5.49971 17.8723
1618 1 1.87587 7.29692 16.0972
2636 2 0.0494931 7.16337 17.852
3616 1 1.88194 3.56777 16.0351
54 3 7.16947 5.49735 16.0261
508 1 7.1967 3.57344 17.9126
513 1 3.6933 7.20357 17.9113
1616 1 5.43967 3.71358 16.0494
2117 1 3.6192 5.32093 16.042
2640 1 7.01336 7.23299 17.8419
2632 3 3.55092 3.62757 17.6011
3131 3 5.3603 5.46715 17.7634
3620 1 5.26664 7.22091 16.2062
515 2 10.7555 7.27632 17.9203
1134 3 8.86748 5.42154 18.0037
1620 1 8.88591 7.22346 15.7995
2118 3 10.7888 5.46944 16.1627
2633 3 10.6399 3.77966 17.9672
3617 2 9.00629 3.55304 16.0769
55 1 14.1789 5.30304 16.043
510 3 14.197 3.72593 17.9827
1617 2 12.3619 3.73635 16.0492
2644 2 14.3264 7.32373 17.8374
3133 3 12.5357 5.53853 17.7908
3622 1 12.7244 7.25336 15.9383
303 1 17.7315 5.47783 15.9628
819 2 17.7188 3.64358 17.8573
1136 1 16.0629 5.46617 17.642
1622 3 15.9595 7.15482 16.1463
2511 1 17.827 7.24995 17.8615
3618 1 15.9337 3.67924 16.0559
511 3 0.187559 10.8454 18.0072
2119 1 0.117832 8.84498 16.1233
3135 1 1.89152 9.0559 17.7105
3619 2 2.00472 10.6471 16.0747
56 3 3.71086 9.22798 16.1378
516 1 7.2519 10.671 17.7225
1138 2 5.29695 9.04442 17.8456
1619 3 5.27075 11.114 16.1961
2120 1 7.3367 9.01461 16.1269
2638 1 3.78401 10.8919 18.1068
57 1 10.65 8.87171 16.1213
2641 3 10.8347 10.8924 17.7715
3137 2 8.90958 8.86777 17.7451
3621 3 9.00736 10.747 16.2213
519 1 14.3595 10.7438 17.7803
1140 1 12.3954 9.0284 17.9753
1621 2 12.3931 10.5767 16.1354
2121 3 14.1609 9.03374 16.2182
825 2 17.9623 10.7137 17.7058
2056 2 18.0564 8.86909 16.1592
3139 2 16.1899 8.81936 17.5988
3623 1 16.1711 10.5195 16.0562
58 2 0.083457 12.5419 16.1312
1142 1 1.82056 12.5914 18.1585
1623 1 1.68217 14.4585 16.0146
2646 3 0.00459122 14.3663 17.8055
59 3 7.14533 12.4773 15.9657
522 2 3.58883 14.37 18.0183
2122 3 3.38794 12.579 15.9177
2648 1 7.1731 14.3094 17.6706
3141 3 5.42535 12.766 17.8361
3624 2 5.54049 14.3732 16.0725
523 3 10.8548 14.4067 17.9265
1144 1 8.95375 12.6046 17.912
1624 2 8.98128 14.167 15.953
2123 2 10.6954 12.6974 16.0373
60 1 14.4934 12.6597 16.2616
2650 2 14.4152 14.3755 17.9125
3143 1 12.5385 12.5484 17.7328
3625 2 12.6441 14.1924 16.0444
308 3 17.8442 12.4896 16.153
1146 1 16.1603 12.3822 17.8477
1625 2 16.2466 14.4953 16.3137
2521 2 17.9591 14.1254 18.0467
1738 3 1.92221 17.8165 16.2494
2124 2 0.062574 16.1256 16.0428
2751 1 0.0876974 17.6191 17.7717
3145 2 1.74491 16.0975 17.9627
61 1 3.72206 15.9275 16.0469
691 1 3.75028 17.9439 17.8223
1148 2 5.4862 16.1475 17.7986
2125 2 7.35217 16.2466 16.2487
2755 2 7.28907 17.969 17.7981
3740 1 5.60548 17.8412 15.9357
62 1 10.8341 15.9838 16.036
693 2 10.8725 17.8707 17.6096
1740 1 8.93545 17.8825 16.1559
3147 1 8.99011 16.0463 17.7601
1150 1 12.5397 16.1749 17.9622
2126 2 14.3142 15.9958 16.1129
2759 1 14.4972 17.8314 17.8497
3742 2 12.6195 17.8932 16.0037
1742 2 16.023 17.9373 16.0994
2061 3 17.8109 16.2156 16.2288
2938 3 17.842 17.9648 17.8921
3149 2 16.1804 16.0724 17.9303
501 1 -0.0314994 0.108091 21.3484
63 1 -0.0997471 1.76836 19.6843
1127 2 1.87222 1.63898 21.2586
3626 3 1.83746 0.00112761 19.5818
504 1 7.22503 0.205895 21.572
64 2 7.14485 1.87646 19.8201
1626 2 5.36179 0.25655 19.7592
2127 1 3.56001 1.97065 19.6476
2627 3 3.74313 0.0147979 21.4783
3126 2 5.39999 1.87788 21.5306
1129 1 9.33498 1.62242 21.4917
2128 2 10.8232 1.95374 19.4659
2629 1 10.6319 -0.157357 21.3101
3627 2 9.08534 0.00937862 19.5628
505 2 14.2578 0.0246121 21.6045
65 3 14.2833 1.83565 19.9096
1627 1 12.4055 0.130813 19.6237
3128 1 12.476 1.77535 21.5064
815 3 17.8433 0.272149 21.4698
313 1 17.6634 2.04346 19.5055
1131 1 15.991 1.96179 21.4423
3628 3 16.0726 0.0336484 19.8683
512 1 0.033426 7.20587 21.3422
1628 1 1.87012 3.69985 19.5876
2129 2 -0.00965222 5.28264 19.5644
2631 3 0.0607546 3.43618 21.3552
3130 1 1.78996 5.36533 21.3503
3631 1 1.81813 7.16673 19.9295
507 3 3.58143 3.76562 21.4328
517 2 7.16143 7.04486 21.3966
66 3 3.7194 5.43199 19.6331
1133 2 5.43619 5.39471 21.4392
1632 1 5.40116 7.29511 19.4751
2130 1 7.28054 5.24879 19.7402
2639 2 3.77687 7.04511 21.4743
2634 1 7.12335 3.52302 21.5671
3629 3 5.42165 3.69023 19.7716
509 3 10.7752 3.53531 21.3539
67 1 10.682 5.45279 19.7416
1629 2 8.85828 3.62693 19.9318
2642 1 10.6822 7.40846 21.2646
3132 1 9.15941 5.41839 21.5544
3633 1 8.90994 7.20872 19.5462
520 2 14.3499 7.19603 21.2407
1135 3 12.5236 5.37141 21.4529
1634 2 12.5907 7.27996 19.5706
2131 1 14.2713 5.54216 19.648
2635 2 14.2076 3.67166 21.6104
3630 2 12.5501 3.81069 19.6574
826 1 18.0298 7.00096 21.4933
1630 2 15.8925 3.7107 19.7683
2316 1 17.6967 5.48199 19.7183
2507 3 17.9017 3.77032 21.4249
3134 2 16.0537 5.51326 21.586
3635 2 16.0139 7.36625 19.7294
68 2 0.137066 9.06714 19.5713
1137 1 1.92642 8.85535 21.4088
1631 3 1.81736 10.8593 19.8711
2637 3 0.0792302 10.7637 21.5567
514 1 3.73418 10.8826 21.4094
69 2 7.09969 9.10616 19.5133
2132 3 3.72784 9.08273 19.7135
2643 3 7.06308 10.6715 21.3915
3136 3 5.45473 8.92104 21.4539
3632 2 5.41937 10.8065 19.5801
518 1 10.8377 10.7273 21.3412
1139 2 8.85844 9.00197 21.3741
1633 2 8.80013 10.5697 19.6782
2133 2 10.7264 9.14765 19.5729
70 1 14.4797 9.04275 19.6897
2645 3 14.3847 10.7592 21.4794
3138 2 12.5552 9.16114 21.4599
3634 2 12.5842 10.5907 19.4614
318 1 17.9005 9.07761 19.6058
1141 2 16.5038 9.02195 21.4452
1635 2 16.0092 10.6949 19.6563
2514 1 17.7967 10.9082 21.7056
521 3 -0.144168 14.2261 21.4532
2134 1 0.130954 12.5462 19.7557
3140 1 1.78718 12.6998 21.6019
3636 2 1.51632 14.5192 19.8477
524 2 7.11203 14.2268 21.4751
71 2 3.56252 12.6021 19.7164
1143 2 5.20479 12.614 21.3094
1636 2 5.36167 14.2754 19.6791
2135 2 7.16209 12.6846 19.6119
2647 2 3.64274 14.3808 21.1292
72 3 10.7883 12.5801 19.6163
2649 1 10.8177 14.2264 21.3348
3142 2 8.82786 12.5657 21.3244
3637 1 8.9181 14.4728 19.4835
525 3 14.2296 14.1982 21.3776
1145 3 12.5076 12.4569 21.5219
1637 1 12.6848 14.1334 19.5078
2136 3 14.28 12.6764 19.6288
835 1 18.089 14.4012 21.5298
2321 3 17.8737 12.4087 19.7138
3144 2 16.1249 12.6395 21.431
3638 1 15.995 14.2214 19.6667
690 2 0.0926979 18.0281 21.3145
73 2 -0.0196919 16.1881 19.7308
1147 3 1.64739 16.0856 21.5155
3751 3 1.78274 17.8794 19.618
695 3 7.04442 17.7893 21.5531
74 1 7.08193 16.2371 19.6793
1502 3 5.47219 17.9328 19.6508
2137 1 3.67931 16.0546 19.6291
2754 3 3.48337 17.805 21.4493
3146 2 5.40841 16.2606 21.3958
1149 3 8.88286 16.0434 21.5103
2138 3 10.6093 16.1325 19.6958
2757 3 10.7505 17.8101 21.4681
3753 1 8.92761 17.876 19.7441
698 1 14.3768 17.8084 21.4807
75 3 14.3625 16.1215 19.7378
1504 3 12.5395 17.825 19.7184
3148 3 12.547 16.1405 21.5609
941 1 17.8367 17.902 21.413
323 2 17.8297 16.0229 19.6567
1151 3 16.0354 15.9331 21.5287
3755 2 16.0584 17.8351 19.772
1638 1 1.78347 -0.0266003 23.3366
2139 3 0.0995753 1.66339 23.1024
2651 2 0.143153 -0.197547 25.0584
3150 1 1.819 1.81121 24.9905
526 1 7.22598 0.0709641 25.082
77 1 5.32828 1.74261 25.1579
76 2 3.45092 1.67874 22.9526
2140 2 7.03825 1.7699 23.2508
3640 3 3.7168 0.0101071 24.7769
3639 1 5.42609 -0.0836141 23.1585
78 2 10.8268 1.78266 23.2881
1152 3 8.86561 2.04073 24.999
1640 2 10.8919 0.151269 25.1199
1639 1 9.08643 0.0541327 23.4381
2142 1 14.3877 1.74356 23.3671
2141 1 12.604 1.73076 25.0339
2652 3 14.3365 -0.0208676 25.0609
3641 2 12.4631 0.0823764 23.2826
1641 3 16.2398 0.229709 23.3644
2326 1 17.7977 1.99341 23.2154
2526 1 17.8195 0.0997476 25.0486
3151 3 16.231 1.98639 25.2984
528 1 -0.208741 7.23151 24.7585
80 3 1.73748 5.53849 24.9936
79 3 -0.0460206 5.32422 23.1586
1645 1 1.84086 7.3177 23.315
3643 2 0.145115 3.46556 24.9114
3642 1 1.8593 3.5166 23.4671
527 3 3.7073 3.75478 24.91
81 3 7.35028 5.3493 23.1405
1153 3 5.43091 5.3878 24.8174
1648 3 3.62157 7.18307 24.8876
1643 1 7.26563 3.54667 24.8119
1642 3 5.31164 3.54304 23.1598
2143 1 3.67532 5.50697 23.16
2655 3 7.31067 7.20679 25.0085
3648 1 5.62279 7.19849 23.3529
1649 1 9.17206 7.39931 23.0932
2145 2 8.94216 5.65013 24.7746
2144 2 10.7042 5.54021 23.2614
2653 2 10.7032 3.61264 25.0868
3650 3 10.6718 7.13406 25.1622
3644 2 9.03095 3.61091 23.1928
530 3 14.3398 7.13329 24.9743
82 1 14.2859 5.31205 23.1912
1644 2 12.5247 3.55301 23.2911
3152 3 12.528 5.36229 25.1242
3652 3 12.4066 7.06924 23.2618
3646 2 14.1559 3.56562 24.9589
841 3 17.9355 7.05771 24.9564
329 1 17.7442 5.32535 23.1176
83 3 16.2049 5.37074 24.9405
1651 1 16.1713 7.06378 23.2684
3893 3 17.9695 3.70664 25.1342
3645 2 16.0511 3.46858 23.3341
1154 3 1.89498 9.05248 24.9826
1646 1 -0.316018 10.6333 25.0322
2146 2 -0.112169 9.09355 23.448
3647 3 1.97742 10.7767 23.28
84 3 3.60782 9.01731 23.0324
1647 3 5.32372 10.7994 23.4039
2148 2 7.31321 8.8089 23.2865
2147 3 5.29433 8.95436 24.837
2654 3 3.60128 10.8688 24.9272
3651 1 7.12946 10.8579 25.0115
529 1 10.9419 10.7245 25.0633
85 2 10.7885 9.10823 23.1467
3153 2 9.12039 9.08095 25.1063
3649 1 8.85074 10.7754 23.3055
86 1 12.5325 8.84479 24.9913
1652 2 14.1747 10.7935 25.0886
1650 1 12.7544 10.7042 23.2693
2149 1 14.3688 8.80063 23.2908
1155 3 16.1148 8.98866 24.9049
1835 1 17.861 10.5359 24.959
2333 3 17.8462 8.96612 23.2905
3653 2 16.0715 10.7139 23.1662
87 3 0.105947 12.4901 23.4317
1653 1 1.84725 14.5546 23.1446
2150 1 1.82197 12.3949 25.2015
2656 3 0.0867004 14.4076 25.0322
531 1 7.17651 14.3083 24.9513
88 1 7.17869 12.4362 23.1057
2151 2 3.60509 12.6515 23.387
3154 2 5.50987 12.6222 24.9031
3655 3 3.48375 14.2029 25.0121
3654 1 5.06734 14.2323 22.9503
89 1 8.93648 12.3628 25.0024
1655 2 10.6444 14.1911 25.0253
1654 3 8.96133 14.1805 23.1828
2152 3 10.7019 12.3865 23.2022
90 3 14.4091 12.6258 23.1351
1156 1 12.5948 12.4462 24.9292
2657 3 14.4804 14.356 24.9256
3656 2 12.43 14.1081 23.1127
337 3 17.9509 12.6386 23.2819
1656 1 16.1959 14.3889 23.1981
2153 1 16.0782 12.5643 25.1193
2531 2 17.7191 14.4746 24.9575
1513 3 1.70186 17.929 23.3035
2154 1 0.0136535 16.0197 23.3177
2776 2 0.0997666 17.8911 25.2077
3155 2 1.94372 16.1955 25.0931
715 3 7.14674 17.6716 24.8815
92 2 5.35204 15.9803 24.9921
91 3 3.54861 16.1214 23.1291
2155 1 6.90202 15.8396 23.2034
3767 1 3.54253 17.8114 25.0998
3766 3 5.3309 17.9247 23.1858
93 1 10.8102 16.1155 23.0334
1157 2 9.13734 16.0736 24.9721
1515 2 8.89395 17.8079 23.3966
1516 1 10.7794 17.8711 25.1197
2157 1 14.2686 15.8377 23.268
2156 3 12.4479 16.0218 24.8383
2778 3 14.3713 17.7093 25.0025
3769 2 12.471 18.0119 23.0796
1519 3 16.0038 17.9272 23.2228
2341 1 17.9509 16.1467 23.1834
2963 1 17.8955 17.9597 25.1061
3156 2 16.0597 16.1628 24.7193
532 1 0.0885379 0.152806 28.4393
94 2 0.0812037 1.85597 26.5434
1158 1 1.87994 1.83474 28.2826
3657 3 1.85209 0.0244617 26.6071
533 1 5.38743 0.0962659 26.6606
534 1 7.34401 0.184068 28.7547
1159 2 3.61825 1.6155 26.8217
2159 2 7.19289 1.9016 26.7799
2658 3 3.39277 -0.0287375 28.4516
3157 1 5.3052 1.65769 28.6034
1160 2 9.04353 1.99956 28.8717
1658 1 8.94214 0.361751 27.0356
2659 2 10.8605 -0.0986995 28.7341
3158 1 10.7754 1.86771 26.8584
535 2 14.3264 0.227948 28.7192
97 2 14.0851 1.68609 26.7209
2660 3 12.5623 -0.0717271 26.8684
3159 1 12.5569 1.81573 28.5876
845 2 17.9159 0.00136513 28.566
344 2 18.0996 1.73619 26.7824
1161 2 16.0313 1.88636 28.3977
3660 3 16.1177 -0.00835241 26.8243
536 3 1.88799 3.68945 26.4391
540 2 0.102424 7.32314 28.3695
1162 3 0.0210474 5.59953 26.7622
1664 1 1.6879 7.23166 26.7507
2661 1 0.34773 3.6502 28.3301
3160 3 1.94713 5.59079 28.5185
537 2 3.71306 3.53007 28.2634
543 3 6.96718 7.18418 28.4802
1163 2 5.56387 5.29265 28.4554
1661 1 5.45756 3.77509 26.8862
2162 1 3.61561 5.63894 26.8467
2668 2 3.82178 7.38244 28.5061
2667 1 5.40011 7.22559 26.638
2663 2 7.11029 3.54142 28.695
3161 3 7.28565 5.3627 26.7088
538 3 10.6925 3.63201 28.5777
99 2 10.6336 5.35911 26.8253
2669 3 10.8243 7.07066 28.564
2662 3 9.07364 3.55164 26.8352
3162 1 8.87967 5.37264 28.5437
3668 3 8.95997 7.20475 26.8081
545 2 12.6807 7.13182 26.7952
546 3 14.298 7.00094 28.4574
1165 1 14.3537 5.30415 26.7941
1164 1 12.5001 5.22797 28.4751
2664 2 14.4402 3.56058 28.3205
3663 3 12.4411 3.68693 26.7833
853 2 17.9756 7.34763 28.3724
539 1 16.1986 3.63109 26.8362
1349 1 17.8872 5.37493 26.9107
1670 1 15.8749 7.25677 26.7686
2536 3 18.0319 3.64658 28.4931
3163 2 16.0621 5.64209 28.5191
1166 3 1.89672 8.86429 28.6366
2165 3 -0.20337 8.87047 26.6896