ITEM: TIMESTEP
5000
ITEM: NUMBER OF ATOMS
4000
ITEM: BOX BOUNDS pp pp pp
9.0118124165119440e-02 3.5643941875834962e+01
9.0118124165119440e-02 3.5643941875834962e+01
9.0118124165119440e-02 3.5643941875834962e+01
ITEM: ATOMS id type x y z
1 1 -0.0224239 1.98858 1.9366
1563 2 -0.00199755 0.168455 0.010437
2064 1 1.61729 1.95619 0.0594148
3561 3 1.70859 0.325697 1.9932
564 1 3.73705 1.85549 2.13119
565 3 7.18279 2.00083 1.90223
1565 1 7.05048 0.190826 0.0924829
2065 2 3.6412 0.392627 0.248962
3061 3 5.43885 1.87315 0.17399
3562 2 5.36744 0.0791602 1.96384
566 2 10.759 1.86145 1.99982
1070 3 10.7182 0.16713 0.155776
3063 1 9.00307 0.162904 1.83123
3062 3 8.9931 1.90473 0.174317
567 3 14.1904 1.77489 1.75344
2566 3 14.3193 0.0197369 0.180471
3064 3 12.3996 1.81377 0.0782537
3563 3 12.3686 -0.123949 1.82829
2 2 17.7682 -0.0237958 -0.0261218
3 1 16.0873 0.0318251 1.84504
3066 1 17.7374 1.72438 1.72772
3065 1 16.0575 1.88797 0.171288
4 1 1.69203 5.50558 0.254486
5 2 1.77771 3.69585 1.74457
6 3 1.82401 7.08077 1.96771
1071 1 -0.0779884 5.48415 1.91422
3067 3 -0.0890736 3.7319 0.150601
3565 3 0.159152 7.25189 0.0211964
7 1 5.61573 5.29367 0.0355203
8 3 3.7318 7.1608 0.186986
1072 3 7.2829 5.4775 1.96128
1075 2 5.32806 7.10115 1.88221
1074 1 3.53712 5.27366 2.03472
1567 2 7.33392 7.35249 0.188921
2570 3 7.24331 3.64866 0.0641432
2569 3 3.62618 3.5624 0.0761218
3569 2 5.31441 3.63546 1.98728
9 2 9.01439 5.51307 0.279772
10 1 8.94906 3.7241 1.91749
1077 3 10.6528 7.08574 0.0778432
1076 3 10.7956 5.40572 1.89724
1568 1 8.93381 7.14875 1.9799
3068 1 10.6461 3.73415 0.218417
11 1 12.5261 5.41042 0.33032
12 3 14.1704 3.66658 0.103904
570 2 12.5248 3.77062 1.97134
1571 1 14.2996 7.0746 0.00731656
1570 2 14.4081 5.5306 1.99902
1569 3 12.6863 7.25372 1.9312
572 2 16.059 3.6032 1.86697
1081 1 16.0818 7.28727 1.85088
1079 1 17.7666 5.4422 1.72233
1078 3 16.0212 5.35701 0.0158308
1573 2 17.8935 3.66496 -0.0838047
2070 3 17.9135 7.23338 0.0320522
575 3 2.02103 10.7099 1.83664
1082 3 1.86901 9.0262 0.0653606
1574 1 -0.0242573 9.17703 1.75921
3070 2 -0.00923328 10.8985 0.167472
576 2 3.77778 10.7677 0.331859
1085 2 5.47222 9.1276 0.0609265
1083 1 5.39438 10.5372 1.93977
1577 2 7.17628 10.7192 0.335645
1576 2 7.15175 8.98294 1.87328
1575 2 3.76572 8.93792 1.97943
14 1 10.9425 10.7086 0.162047
1087 1 9.00069 10.5923 1.99024
1086 1 9.04706 8.87228 0.283336
2071 2 10.9579 9.16056 1.87704
580 3 12.5944 10.772 1.94884
1088 2 14.2369 10.9865 0.2411
2073 2 12.6521 9.01588 -0.0607447
2074 2 14.363 8.93925 1.87319
15 2 17.848 9.00651 1.88689
1581 3 15.9555 10.78 1.95115
2076 2 17.6911 10.6353 0.103349
2075 1 16.009 8.98939 0.216308
2079 2 1.7992 12.4692 0.0555432
2078 2 2.11384 14.4279 1.96028
2077 2 0.208617 12.6537 1.95066
2572 1 0.120537 14.1153 0.35418
2082 3 5.63306 14.2967 1.78086
2081 2 3.70272 12.6361 1.83815
2080 2 5.45078 12.5014 0.267718
2576 2 7.53169 14.3788 0.110304
2575 1 7.31296 12.3703 1.9634
3071 1 3.85514 14.2451 0.179847
1583 3 9.03311 14.3332 1.92094
2084 2 10.8395 14.3716 0.125073
2579 1 10.7509 12.7008 2.15609
3073 3 9.12546 12.5125 0.205576
2085 1 12.3928 14.1405 2.0324
2580 1 14.1669 12.6413 2.1149
3074 1 12.4874 12.6833 0.0222832
3574 3 14.2838 14.258 0.0302648
581 2 17.9806 12.3927 1.85107
1089 2 17.8384 14.2719 0.188521
2583 2 15.9781 14.1165 2.08344
3075 1 16.1434 12.4366 0.164769
16 1 0.0446116 17.7835 -0.0280208
2086 1 1.77699 17.695 1.97588
2584 1 0.0206572 16.1101 2.01814
3076 3 1.90028 16.092 0.271287
17 2 5.78935 16.0667 0.12775
1090 1 3.60576 17.8908 0.149599
2585 2 7.48233 17.9604 0.167753
3079 1 5.54266 17.8159 1.79626
3078 2 7.29502 16.2032 1.94914
3077 1 3.95255 16.1082 1.89219
18 2 9.01986 16.0242 0.250429
1585 2 10.7594 17.8095 0.108465
3080 1 10.7689 16.0486 1.99442
3578 1 9.0208 17.8349 1.88937
19 2 12.7963 16.0255 0.169559
2088 3 14.288 17.8651 0.152681
3081 3 14.4183 16.1382 1.84416
3581 3 12.5804 17.87 1.84134
20 3 16.1811 16.1677 0.217143
1586 3 17.9095 16.3144 1.93516
3083 1 16.1686 17.9571 1.94433
3082 1 17.8582 17.9305 0.0158192
584 3 1.55407 1.80412 7.37628
1564 3 0.0272243 0.369066 3.58487
2588 1 1.68544 0.237924 5.57185
2563 2 1.71758 1.97576 3.64271
3084 2 0.00783773 -0.0531076 7.30117
3583 2 -0.134493 1.75475 5.66778
22 3 5.3985 1.88534 7.30223
1069 2 3.38409 0.00377321 3.66603
1566 1 7.16882 0.323912 3.61572
2089 3 5.29247 0.140184 5.61769
2590 2 3.37446 0.0489085 7.30291
2564 3 5.25839 1.82164 3.74556
3085 1 7.25355 -0.0300256 7.20261
3585 2 3.34567 1.96139 5.6111
3584 2 7.12447 1.93106 5.50131
586 2 9.11918 1.66003 7.258
2066 2 10.7565 0.0736647 3.52694
2593 1 8.97385 0.233657 5.38916
2565 1 8.95342 1.88742 3.77745
3086 3 10.7949 -0.00754413 7.10867
3586 1 10.8258 1.76962 5.41676
23 2 12.6663 1.89664 7.22186
24 2 14.3639 0.0446833 7.11138
25 1 14.2123 1.82108 5.36222
2568 1 14.2974 0.008956 3.33784
2567 3 12.6452 1.84439 3.55783
3087 1 12.6548 0.11782 5.44514
568 1 17.9273 0.0772569 3.5944
588 1 16.3028 1.87396 7.24774
1587 1 17.7447 0.138131 7.07817
3088 3 16.1548 0.0839846 5.35076
3588 2 17.8546 1.7924 5.20866
3564 3 15.9709 1.83478 3.55721
27 3 1.91162 5.35422 7.23499
28 2 1.79558 7.09879 5.26283
589 3 -0.0185704 5.46204 5.64324
2067 1 0.00774061 3.524 3.6336
3090 2 1.68088 3.59641 5.67847
3590 2 0.374998 7.1791 7.37357
3589 2 -0.0802831 3.64403 7.32321
3567 2 -0.0588675 7.11632 3.72039
3566 2 1.69017 5.21433 3.76659
29 1 3.58327 3.5788 7.40661
593 1 3.49755 7.23068 7.24792
592 1 7.09571 5.49556 5.61326
591 2 7.11004 7.2312 7.37416
590 3 3.58417 5.29264 5.4331
1095 2 5.37983 5.35769 7.21149
1094 3 5.28171 7.1765 5.46534
1073 1 3.59781 7.09918 3.60059
2068 2 7.22455 7.20957 3.72501
2069 2 3.70461 3.52592 3.73354
3593 2 5.43938 3.59703 5.44665
3592 1 7.30376 3.50046 7.38393
3570 3 5.57529 5.46165 3.68896
3568 1 7.10941 3.58937 3.73751
31 3 8.96689 3.50902 5.56329
569 3 10.8008 7.21869 3.72276
594 2 10.7385 5.53221 5.44939
1097 1 9.28111 5.3885 7.37732
1590 3 8.81221 7.2075 5.49727
1589 3 10.7236 7.2443 7.18203
3594 3 10.7752 3.63717 7.03319
3572 3 10.7532 3.49487 3.81854
3571 2 9.00417 5.39902 3.95482
33 1 12.6563 3.70317 5.39229
35 1 14.334 3.75252 7.32123
571 3 12.6597 5.35659 3.67131
595 3 14.2957 7.12115 7.39243
1100 2 14.3796 5.36213 5.47098
1099 3 12.4447 5.27095 7.17298
1592 1 12.5289 7.09114 5.53976
1572 3 14.2881 7.16571 3.72884
3069 1 14.2709 3.49444 3.64125
573 3 16.0652 5.30079 3.63645
1080 3 17.8069 3.57467 3.62637
1595 2 16.1248 7.20304 5.58729
1594 1 16.1121 5.37109 7.16656
2094 2 17.894 7.16873 7.14811
2092 2 17.719 3.46322 7.15223
2571 2 18.0608 7.16338 3.65311
3092 1 17.9406 5.50189 5.51997
3595 2 15.8495 3.50952 5.41808
13 3 0.0787235 10.767 3.60355
597 3 0.164779 10.7663 7.09529
596 2 1.78842 10.8879 5.3137
574 3 1.82578 9.05562 3.7336
1102 1 1.84155 8.99975 7.39135
1101 3 0.277228 9.09 5.50979
38 1 3.80759 10.8318 7.33427
578 2 3.59049 10.7509 3.80611
577 1 5.5326 8.99209 3.74287
1106 3 7.0375 10.8547 7.30766
1104 1 5.41362 10.8454 5.5124
1103 2 3.66101 9.02801 5.58673
1084 2 7.2958 10.8089 3.71302
1597 3 7.1306 9.00104 5.50989
1596 1 5.24621 9.04563 7.42671
39 2 10.686 10.6171 7.1639
599 1 8.89432 10.6487 5.52724
579 1 10.5924 10.6559 3.67452
1107 2 8.97244 9.10118 7.19305
1578 1 8.93901 9.03666 3.7362
2097 3 10.6364 9.02237 5.39336
1108 2 12.461 10.6612 5.47667
1598 2 12.5352 8.91802 7.26639
1579 1 12.5546 8.93254 3.65894
2072 3 14.1328 10.6312 3.65955
2099 2 14.2102 10.7084 7.13964
2098 3 14.2201 8.88184 5.46616
1599 1 16.1684 8.95939 7.08326
1580 1 15.9232 8.98166 3.63792
2100 3 15.9159 10.7989 5.45896
3093 3 17.8016 10.7604 7.26846
3597 1 17.7356 9.01886 5.49135
3573 3 17.7359 10.471 3.61391
1110 2 0.148674 14.3494 7.09492
1582 3 1.87652 12.6859 3.58659
2103 2 1.82572 12.575 7.31496
2102 1 1.86674 14.3056 5.48232
2101 3 0.0504789 12.5805 5.34946
2573 1 0.170505 14.4794 3.51313
1112 3 7.30773 14.4904 7.13169
1600 3 5.27267 12.6541 7.1738
2104 3 5.50068 14.4369 5.47036
2083 2 3.67912 14.2503 3.67414
2601 2 7.28939 12.5518 5.3556
2600 3 3.53828 12.5292 5.52407
2599 2 3.48277 14.391 7.19059
2577 2 7.05903 14.1191 3.67329
2574 3 5.30246 12.4391 3.63957
2604 2 8.97178 14.3331 5.32718
2603 1 10.5368 14.3189 7.32133
2602 1 10.7116 12.2824 5.3754
2578 1 9.03332 12.5309 3.8798
3097 1 9.06341 12.7263 7.11365
3072 2 10.7678 14.1577 3.79398
602 2 14.395 14.3526 7.2895
1603 1 12.4736 12.5979 7.31729
2605 1 14.1791 12.5779 5.41189
2581 2 12.4358 12.4061 3.87736
3098 2 12.484 14.2808 5.42246
3575 1 14.1717 14.4869 3.81717
1114 1 17.7345 12.627 5.45037
1584 3 17.7222 14.2082 3.75951
2582 1 16.1128 12.4567 3.77067
3100 1 16.0236 14.315 5.6933
3099 2 16.2668 12.5983 7.42236
3599 2 17.9414 14.461 7.41223
582 2 0.106412 18.0594 3.66864
1605 1 2.07787 18.077 5.18539
1604 2 1.80635 16.1854 7.09825
3104 2 0.19155 16.339 5.32793
3103 1 -0.010269 17.8708 7.16601
3576 3 2.06894 16.0772 3.63263
2087 2 3.67186 17.929 3.52362
2607 1 5.38186 17.932 5.21138
2586 1 7.07536 17.933 3.52023
3107 3 7.26505 17.7769 7.14542
3106 3 5.39858 16.1141 7.04539
3105 2 3.62035 17.7823 7.24199
3602 3 3.65295 16.2195 5.39126
3601 1 7.18398 16.312 5.26915
3577 1 5.45444 16.0652 3.68134
1091 1 10.7112 17.7338 3.67281
2107 2 9.09813 16.1677 7.19442
2608 3 8.87646 17.9632 5.33605
3109 1 10.5767 17.8327 7.2362
3603 2 10.7988 16.1579 5.62145
3579 3 9.05637 16.0825 3.69418
41 1 14.364 16.0142 5.57209
2610 2 12.584 17.8483 5.57812
2609 1 14.3376 17.8123 7.11591
2587 2 14.2208 17.9732 3.46091
3604 3 12.5625 16.202 7.23587
3580 3 12.4354 16.1907 3.59331
583 2 16.1269 16.0603 3.85748
1606 3 17.8783 17.959 6.98994
2109 3 16.1845 16.0891 7.16038
3112 1 15.9129 18.0592 5.22294
3110 1 17.8763 15.8553 5.58286
3582 3 17.8579 17.9396 3.67221
21 3 -0.0575543 1.70584 9.08652
604 3 0.229499 0.19287 10.8664
2110 2 1.80517 2.04513 10.7363
2589 2 1.83917 -0.0547192 9.1365
585 2 7.24634 1.75904 9.08441
1092 3 5.48839 0.0610575 8.98327
1608 3 7.229 0.0535026 10.8302
1607 2 3.51829 0.171875 10.6872
2111 3 5.43496 2.02119 10.8886
2591 1 3.62112 1.78356 9.14966
1116 3 10.8576 0.0468107 10.7654
2612 3 8.93346 1.82893 10.785
2592 3 10.9433 1.70498 8.89212
3587 1 9.14159 0.112825 9.07841
587 2 14.3546 1.89217 8.95792
1609 1 14.2793 0.0655095 10.6982
2090 3 12.7182 0.11027 8.94403
2613 1 12.5195 1.89765 10.8719
26 3 16.1366 0.114107 8.97857
2594 1 17.8229 1.95354 8.88908
3116 3 16.0934 1.99052 10.7946
3115 3 17.8372 0.105619 10.8557
1093 1 1.99288 7.14671 8.97375
2091 2 1.92099 3.6824 8.95956
2615 1 0.043644 3.5774 10.6642
3118 2 -0.201643 7.16575 10.8489
3117 2 1.58718 5.3525 10.9199
3089 1 -0.0281246 5.32999 8.9795
30 3 5.35741 3.59574 8.98637
45 1 7.10408 7.13534 10.8297
1096 1 3.61552 5.39426 9.06165
2112 3 7.19513 3.5493 10.8585
2616 1 3.57483 3.64308 10.8001
3091 2 7.2846 5.35892 8.94801
3608 3 3.66061 7.0642 10.7637
3607 1 5.41243 5.29463 10.8301
3591 2 5.40952 7.07946 8.89898
46 3 10.7693 7.35104 10.8105
1098 1 10.6591 5.47924 9.14789
1591 2 8.99555 3.45393 8.83225
1588 3 8.86955 7.32711 9.14135
2113 3 10.9454 3.6226 10.5738
3609 2 8.99787 5.30311 10.8175
32 3 12.3449 7.35528 9.08597
34 2 12.5876 3.59061 9.03092
36 1 14.2034 5.55169 9.03876
609 1 14.4262 7.22739 10.6739
3119 3 14.2268 3.5835 10.6342
3611 2 12.6675 5.45847 10.658
1120 3 17.9782 3.54597 10.7977
1615 1 17.789 7.22654 10.7611
1593 2 17.9604 5.3029 8.7811
2093 3 16.1665 7.21958 9.03924
2595 2 16.1278 3.6369 9.08163
3612 2 16.1593 5.42699 10.8742
48 1 1.8827 8.80094 10.7873
2095 2 0.1631 9.04566 9.0776
2596 3 1.94706 10.7651 9.15481
3120 1 0.0393397 10.6964 10.9244
37 1 3.69599 8.94362 9.12152
49 2 5.53159 9.09601 10.4772
612 1 7.19003 10.8357 10.7645
1105 3 5.44195 10.8811 9.03147
2096 2 7.27646 9.15524 8.87351
3121 2 3.50568 10.8041 10.902
613 1 8.94071 9.15428 10.7454
598 3 10.5644 9.0134 9.01129
3613 2 10.8178 10.6721 10.8826
3596 3 8.75552 11.0063 8.9416
50 2 14.4047 10.7662 10.7886
614 1 12.5233 9.00878 10.7246
2598 1 12.6345 10.8003 9.18481
2597 1 14.5379 9.00384 9.03906
51 2 17.791 10.5892 10.7692
600 1 17.9137 9.05855 8.9972
1122 2 16.1532 8.96074 10.6628
1109 2 16.1356 10.8229 9.11362
616 3 -0.0235244 14.1338 10.4745
601 1 0.073192 12.4987 8.8075
1123 2 1.74944 12.3202 10.9503
3094 1 1.90577 14.4068 8.92714
1124 1 5.37831 12.5594 10.7665
1111 1 5.56668 14.3912 8.92981
1619 3 7.18817 14.3931 10.871
1618 2 3.51964 14.3287 10.6728
1601 1 7.02052 12.7952 8.98784
3095 3 3.58624 12.6149 9.01469
617 3 10.7495 14.2321 10.7695
1125 1 8.98877 12.6592 10.7934
3096 2 8.98612 14.3378 9.00982
3598 3 10.6508 12.3702 8.97488
1126 1 14.2952 14.1425 10.7067
1113 2 12.3587 14.3417 8.85903
1620 3 12.5268 12.5103 10.7917
1602 1 14.1703 12.2853 8.93945
1621 1 15.9248 12.7948 10.7541
3126 1 17.8176 14.3562 10.7856
3102 3 16.0655 14.3173 8.99504
3101 2 18.0895 12.5026 8.97269
1623 3 -0.0070098 17.892 10.559
2119 3 1.84746 16.266 10.7198
2606 2 2.07429 17.9933 8.8822
3600 2 0.0128927 16.1187 8.9977
40 1 7.24318 15.9905 8.96883
619 3 3.53788 18.0623 10.6625
1127 2 7.35547 17.9232 10.8354
2120 1 5.46013 16.1229 10.6979
2106 2 3.70163 16.0381 8.96587
2105 3 5.41552 17.8443 8.97455
1624 3 10.9069 17.9578 10.8421
2108 2 10.6571 16.2516 9.17476
2625 2 9.06168 16.1984 10.8874
3108 1 9.03407 18.0033 9.15297
603 2 14.2136 16.2039 9.0496
1115 2 12.4138 17.8452 8.92057
2626 2 12.6232 16.4018 10.7797
3620 2 14.3204 18.0197 10.7256
2628 1 15.9739 16.0266 10.6086
2611 1 17.9785 16.115 8.96189
3127 3 17.9747 17.8028 10.6991
3111 1 16.183 17.9331 8.94272
42 1 0.0773827 1.91242 12.7139
2121 2 0.15795 0.0317847 14.2401
2629 2 1.84549 1.96059 14.462
3113 2 1.85017 0.27476 12.6436
43 1 3.49147 1.94069 12.5719
605 1 7.30515 1.67282 12.566
1625 3 7.1823 0.056412 14.438
2123 3 3.50752 0.0663134 14.2928
3128 1 5.6059 1.9436 14.571
3605 3 5.34407 0.147116 12.6507
606 3 10.8154 2.15188 12.5464
1627 3 10.6106 0.0924463 14.4118
3129 2 8.84409 1.96624 14.3054
3606 2 9.05918 -0.103099 12.4684
1117 1 14.4261 1.593 12.5775
2632 1 14.3878 -0.0697609 14.2947
3131 1 12.5378 1.84155 14.3292
3114 2 12.4063 0.00565674 12.6128
44 3 16.0447 -0.0186419 12.4031
501 1 17.9471 0.0352201 14.4102
2614 2 17.8006 1.64007 12.6603
3132 1 16.071 1.82119 14.403
607 1 1.98267 3.58344 12.6116
1119 2 1.736 7.14772 12.6859
1118 2 -0.0182857 5.39827 12.5439
2634 3 -0.108395 7.2769 14.1261
2633 2 0.0540533 3.83893 14.3056
3624 1 1.7963 5.38314 14.2123
60 1 7.16639 7.31388 14.158
608 1 5.35182 3.67292 12.716
1612 2 7.26964 5.49798 12.5945
1611 2 5.45128 7.31804 12.2993
1610 2 3.55844 5.52324 12.7735
2128 3 7.29092 3.60031 14.3598
2126 3 3.69302 3.76392 14.5078
3136 1 3.75652 7.25923 14.3098
3626 2 5.32728 5.51767 14.3187
1613 3 10.9444 5.3001 12.4531
2114 1 8.92809 7.26642 12.6746
3137 3 10.5906 3.77436 14.3649
3629 2 9.04892 5.5787 14.3618
3628 1 10.8309 7.14299 14.0991
3610 3 8.82868 3.53958 12.4775
610 2 12.669 3.53262 12.444
1614 3 14.3745 5.35825 12.5629
2617 1 12.6736 7.32021 12.3844
3138 3 14.3964 3.63401 14.3314
3631 3 14.224 7.24404 14.3085
3630 2 12.6087 5.51772 14.1999
47 1 17.934 5.43046 12.4038
65 1 16.1142 5.60641 14.3952
1138 2 17.851 3.51761 14.3522
1121 3 16.0583 3.76701 12.6369
2618 3 16.0185 7.25847 12.5826
3140 3 17.8908 7.18107 14.2291
67 1 1.72617 8.99911 14.229
611 1 1.97667 10.6546 12.653
2115 3 -0.0250904 8.88274 12.4258
2636 1 -0.074828 10.597 14.4113
69 3 7.06382 10.8698 14.2313
70 2 5.27914 9.04951 14.2533
1616 1 5.39018 10.7349 12.3525
2116 2 3.77219 8.96672 12.3443
2619 1 7.01897 8.96888 12.5278
3633 3 3.66481 10.8056 14.3864
71 3 8.81141 9.1295 14.3067
2117 3 8.84163 10.9 12.4619
2620 3 10.7606 9.02642 12.6277
3141 3 10.7613 10.8394 14.2011
510 2 12.5839 9.0565 14.3481
1617 3 12.6204 10.8166 12.5294
3122 2 14.4341 9.00205 12.6556
3635 2 14.4351 10.8831 14.2409
511 3 16.1232 9.05001 14.1884
615 3 17.8215 8.98093 12.4331
1639 1 17.9671 10.7191 14.3233
2118 1 16.0451 10.7962 12.5141
513 3 0.248212 14.2961 14.2848
514 1 1.78977 12.4246 14.3757
2621 2 0.033932 12.4283 12.5278
3123 3 1.71455 14.3039 12.4627
72 3 7.27098 14.4751 14.4081
515 1 5.53134 12.6065 14.4191
516 3 3.48738 14.3206 14.1988
3125 3 7.16646 12.7348 12.4011
3124 1 3.80683 12.5198 12.4997
3614 3 5.31776 14.3208 12.5291
73 2 10.6371 14.1801 14.387
1145 1 8.92717 12.6294 14.418
3616 2 10.6737 12.6593 12.4964
3615 3 8.94386 14.2413 12.6332
1147 2 12.5231 12.53 14.2657
1146 1 14.3179 14.4983 14.1715
2622 3 12.4898 14.3198 12.5636
3617 2 14.342 12.6496 12.6011
1149 3 16.2635 12.5641 14.0853
1622 3 17.9159 12.38 12.4466
3146 2 17.9327 14.2531 14.5447
3618 2 16.1121 14.2903 12.436
52 1 0.0901969 16.1048 12.4279
518 3 0.0418421 17.904 14.3746
1150 1 1.91434 16.1774 14.2075
2623 3 1.86787 17.9473 12.3349
53 3 3.68193 16.1682 12.3429
618 2 7.23633 16.209 12.5955
1151 2 3.74067 17.7559 14.2542
1642 1 5.32734 15.9029 14.3292
2142 2 7.07886 17.9422 14.1175
2624 3 5.27696 17.9287 12.282
54 3 10.7477 16.1358 12.542
1643 3 8.90098 16.2251 14.1315
2649 2 10.8294 17.8802 14.5397
3619 2 8.92244 17.9813 12.5164
55 2 12.54 17.9472 12.4953
620 2 14.2802 16.1565 12.3497
1646 1 12.6345 16.1395 14.3603
1644 3 14.2078 17.9448 14.3461
56 1 15.9516 17.9485 12.4239
1647 1 16.068 16.1905 14.2695
2627 3 17.8086 16.0655 12.441
3644 2 17.8968 17.69 14.3276
57 3 1.85349 0.262592 16.0527
621 3 0.201521 1.88577 16.2939
1128 3 -0.13024 0.0219899 17.8906
2122 3 1.97493 1.9305 17.8929
58 2 5.39705 0.173978 16.2025
1132 3 7.20076 0.022649 17.9498
1131 1 7.16591 1.98205 16.2836
1130 2 3.58064 0.140274 17.7708
1129 1 3.81095 1.90569 16.0638
2630 1 5.28975 1.83367 18.0927
1133 3 10.693 1.96175 16.1429
1626 3 10.7541 0.0404262 17.8144
2631 3 8.97852 1.95195 17.8641
3621 3 9.02362 0.0335878 15.9382
59 3 12.5803 0.0358329 15.9801
1134 2 14.2636 1.74168 16.0063
2124 2 14.2104 0.0947237 17.802
3130 2 12.6041 2.0413 17.7194
502 3 16.1554 0.0610292 16.0382
3133 3 16.049 1.91909 17.8038
3623 2 17.9081 0.0981388 17.8423
3622 2 17.9676 1.87129 16.2347
503 2 1.88787 3.71749 16.1722
504 2 1.75213 7.35497 16.0727
1628 3 -0.0770812 5.64251 15.9452
2125 3 0.0176467 3.84554 17.8103
3134 2 0.109998 7.23658 17.7573
3625 1 1.93483 5.5004 17.9632
61 1 5.55391 3.82545 16.1329
505 1 3.88285 7.28681 17.9011
1135 1 7.20203 7.29983 17.7508
1631 1 5.28747 7.45963 16.0898
1630 3 3.68176 5.68906 16.0906
1629 2 7.32094 5.5618 15.8973
2127 1 3.73463 3.68577 18.0115
3135 1 7.35766 3.91331 17.7255
3627 3 5.52511 5.61213 17.7666
62 2 9.04412 5.60445 17.7502
63 1 10.8132 7.37099 17.6878
506 3 9.07159 3.81789 16.0969
1632 2 11.0881 5.42639 16.1305
2129 3 9.09007 7.32039 15.9891
2635 3 10.8182 3.72121 17.8482
64 2 12.741 5.6435 17.8541
1137 2 14.3034 7.19599 17.5239
1136 2 12.5581 3.51141 16.0221
2131 3 14.2133 5.37873 16.0112
2130 2 12.3976 7.34334 15.9959
3139 1 14.2872 3.56304 17.7544
66 3 17.8021 5.39194 16.0363
507 2 15.8913 5.29501 17.8377
1140 3 17.6294 3.60915 17.9941
1139 1 16.0284 3.74245 16.1254
1634 2 17.7276 7.25559 17.8883
1633 2 16.2173 7.23715 15.9738
508 1 1.72523 8.97732 17.858
1141 1 1.78224 10.7465 15.9948
2132 2 0.0469452 8.78178 15.9542
3632 3 0.0860328 10.6985 17.905
68 1 3.63645 10.8603 17.8829
509 2 7.19284 10.8604 17.9795
1142 3 5.51379 9.09563 17.8813
1635 3 5.50789 10.7787 16.1059
2134 3 7.17482 9.25872 15.9005
2133 3 3.56341 9.01691 16.2572
1143 2 8.93081 8.96846 17.9158
1636 2 8.84914 10.6962 16.2722
2637 1 10.7364 9.18925 15.941
3634 1 10.7265 10.6341 17.9097
1144 2 12.6795 10.8572 15.972
1638 1 12.5647 9.05324 17.7339
1637 1 14.4376 10.7311 17.7024
2638 3 14.3579 8.9603 15.9429
512 1 17.9576 8.85472 16.0185
1640 3 15.9894 8.83538 17.8158
2135 1 16.1825 10.8094 15.8537
2639 1 17.7788 10.7559 17.8381
2137 1 0.0242111 14.2523 17.8686
2136 2 1.76535 12.4489 17.9666
2641 3 1.90767 14.3037 16.2482
2640 1 0.0828534 12.5085 16.1961
2140 1 7.17845 14.2639 17.6879
2139 1 3.62786 14.2899 17.9436
2138 3 5.37839 12.4891 18.0634
2643 1 5.30795 14.496 16.1031
2642 3 3.75532 12.4776 16.1828
3142 2 7.14453 12.5748 16.1265
2141 2 8.97573 14.3492 16.1638
2645 3 9.04409 12.5395 17.9149
2644 1 10.9159 14.1466 17.9523
3143 3 10.5805 12.5318 16.0791
2647 2 12.6571 14.2649 16.0032
2646 3 12.6447 12.3044 17.8933
3145 3 14.2027 14.281 17.651
3144 2 14.3578 12.5654 15.9437
517 3 17.7594 14.0769 17.9513
1148 2 17.7603 12.4013 16.2412
3148 1 15.967 14.5284 16.0634
3147 2 16.107 12.5648 17.9268
2648 2 1.73894 18.0098 16.1434
3150 3 1.88859 16.1092 17.797
3149 3 0.23724 15.9936 15.957
3636 3 0.194612 17.9382 18.002
1641 3 3.68211 18.0027 17.779
2143 1 7.26514 17.8205 17.6412
3640 1 5.26195 18.0701 15.9555
3639 1 7.1382 16.3439 16.0242
3638 1 5.37465 16.1179 17.9131
3637 1 3.40878 16.2054 16.0399
74 1 9.01087 17.8399 15.9932
519 2 10.8172 17.7858 17.7942
3642 2 9.14244 16.1654 17.8039
3641 3 10.756 16.0053 16.1537
75 3 12.565 15.8729 17.9496
76 1 12.5706 17.8286 16.2029
1645 1 14.127 17.8759 17.9423
3643 2 14.3832 16.1658 16.1762
77 2 16.0813 16.0578 17.7988
2144 1 17.7265 16.1832 16.2245
2650 2 17.8207 17.9706 17.751
3645 2 15.8773 18.0125 16.0419
520 3 0.0634889 0.0310871 21.4749
78 2 -0.0124032 1.60142 19.5562
2145 2 1.79091 1.78886 21.3751
3151 3 1.77498 0.155245 19.5606
521 1 3.64688 0.278391 21.5345
80 1 3.86763 2.01986 19.6345
79 3 7.25825 1.82018 19.4325
2147 2 5.55464 1.98994 21.2674
2146 1 7.23179 0.192644 21.6057
2651 1 5.31629 0.0211301 19.6408
81 1 10.7814 1.82274 19.5835
1648 2 10.7756 0.0477884 21.5394
2652 2 9.09294 1.86591 21.3376
3152 2 9.14187 -0.0460873 19.6904
522 2 14.1077 1.93337 19.6023
1649 1 14.1578 0.255882 21.4342
2653 2 12.5286 1.78923 21.426
3646 3 12.5011 0.224292 19.6056
82 3 17.9276 0.0344282 21.4534
2654 1 17.7826 1.73129 19.5997
3153 1 16.0892 1.75504 21.4527
3647 1 15.9433 0.112769 19.4738
523 3 0.145224 5.4445 19.6068
84 3 1.94482 7.2632 19.6955
83 3 -0.0724988 7.24558 21.543
1650 3 -0.0166635 3.65871 21.519
3155 2 1.92968 5.25531 21.1889
3154 3 1.85577 3.53283 19.6547
524 1 3.70528 5.48422 19.6478
525 2 7.39318 5.68208 19.592
526 2 3.64185 7.26181 21.5372
1153 2 7.31246 7.28871 21.5292
1152 2 5.63595 7.33499 19.6934
2655 3 3.62654 3.50167 21.3438
3156 1 7.27596 3.60766 21.4056
3649 1 5.43176 3.9221 19.5938
3648 3 5.52922 5.49494 21.2922
86 3 10.9426 7.23111 21.5092
85 1 9.06744 3.75161 19.5401
1155 3 10.8169 5.54815 19.5478
1154 2 8.9275 7.38526 19.562
2656 1 10.7885 3.78791 21.2818
3650 3 9.08469 5.54195 21.3638
527 3 12.513 7.27758 19.5291
88 3 12.6103 5.35183 21.5889
87 2 12.3978 3.72119 19.7193
1156 3 14.1534 5.34931 19.6264
2148 1 14.2391 7.25733 21.397
2657 3 14.1974 3.53681 21.4915
528 2 17.6156 3.55958 21.2186
89 1 15.6748 5.43113 21.4579
1157 2 15.9795 7.19775 19.5503
3158 3 17.6078 5.37182 19.6191
3157 1 17.725 7.06096 21.5071
3651 1 15.8811 3.57819 19.7902
529 2 1.61053 8.92545 21.3354
530 1 1.90617 10.7428 19.839
1158 2 0.0482251 8.99285 19.6872
3652 2 0.142386 10.8262 21.427
531 3 5.4992 9.06451 21.6619
532 2 5.33188 10.7377 19.7235
533 2 7.16365 10.7262 21.5481
1159 3 3.78736 9.038 19.514
1651 1 7.10364 9.13024 19.6569
3653 1 3.66523 10.5522 21.4923
90 3 8.89099 10.7537 19.7505
1161 1 9.20905 9.08101 21.5367
1160 2 10.8596 10.8139 21.4593
1652 3 10.7864 9.09 19.6842
534 3 12.5225 10.7777 19.6719
1162 1 12.4775 9.21192 21.3245
1654 3 14.2704 10.7417 21.2635
1653 2 14.2294 9.01778 19.4606
1656 3 15.9688 10.6651 19.6677
1655 2 15.9939 8.81017 21.384
3159 3 17.5688 10.6527 21.3593
3654 1 17.7073 8.93493 19.7832
1660 2 0.284467 14.2984 21.4376
1659 1 1.88361 14.4656 19.5388
1658 1 1.96639 12.5825 21.5033
1657 1 0.143242 12.7379 19.4674
1163 1 5.32178 14.4444 19.5894
1661 2 3.41041 14.3425 21.4657
2151 1 7.17613 12.5466 19.7319
2150 3 5.31609 12.5874 21.4865
2149 2 3.54893 12.52 19.7861
3160 2 7.31094 14.2955 21.4253
1662 3 9.01872 14.3013 19.5411
2153 1 8.96906 12.4621 21.3206
2152 1 10.9533 12.4765 19.7562
2658 1 10.7741 14.2545 21.246
2155 3 14.3708 12.5362 19.6012
2154 2 12.6318 14.3629 19.7802
2660 1 14.0615 14.3172 21.7514
2659 3 12.544 12.5313 21.1999
535 2 17.7616 12.4926 19.5867
1164 3 17.7565 14.3437 21.3324
2156 1 15.9877 14.1942 19.7597
2661 1 16.0113 12.5264 21.4977
1165 2 0.133531 18.0292 21.4183
2157 1 1.9833 17.9332 19.6565
2662 3 0.194171 16.1656 19.4234
3161 2 1.87634 16.0545 21.3116
1664 2 7.35266 17.8772 21.3288
1663 1 3.6384 17.8322 21.2829
2664 2 3.60611 16.0816 19.5078
2663 3 7.10861 16.1085 19.5587
3163 1 5.27994 16.2183 21.3894
3162 1 5.43803 17.8715 19.6775
536 3 10.7202 17.8644 21.1703
2665 3 10.7774 15.9157 19.5557
3164 3 8.94527 17.842 19.5444
3655 2 9.07028 16.0607 21.1406
2666 2 12.5622 17.7765 19.5941
3166 3 14.3075 16.0312 19.6348
3165 2 14.1554 17.7364 21.5222
3656 3 12.4407 16.099 21.4375
92 3 15.878 16.1276 21.4209
91 1 17.8191 17.7655 21.4592
1166 1 17.7628 16.1692 19.5631
3167 1 15.9079 17.8709 19.6713
93 2 1.81591 1.80768 25.0093
1665 3 1.83064 -0.0750739 23.2886
2667 1 0.198456 -0.130771 25.1555
3168 1 0.20686 1.84567 23.0942
2158 1 5.61406 0.186413 23.0485
2670 1 3.59444 0.221373 24.9104
3170 1 7.385 2.07332 23.18
3169 3 3.62894 2.04304 23.2325
3659 1 7.23145 0.258214 24.7732
3658 2 5.33213 1.91139 25.0225
537 3 9.11425 1.8534 25.0438
2671 1 9.20001 -0.0256952 23.0756
3171 3 10.7301 0.125914 24.8092
3660 2 11.0709 2.07151 23.1679
2673 3 12.4955 0.0889592 23.3141
3663 1 14.3509 1.78076 23.2114
3662 1 14.3401 0.193814 25.1413
3661 2 12.607 1.83305 25.0801
539 1 16.1914 1.86325 24.9588
1167 2 17.8922 -0.0672185 24.9192
1668 3 17.7412 1.90865 22.8922
2160 1 16.2612 -0.000967636 23.253
99 3 1.82448 5.52449 25.1583
98 2 1.71536 7.02015 23.201
97 2 0.0412696 7.28751 25.1115
96 1 -0.015103 5.52665 23.3875
3173 1 1.77373 3.94467 23.196
3172 2 0.187371 3.62914 25.0708
540 2 3.73316 7.33796 25.0632
541 3 5.44969 7.44873 23.3623
542 2 7.34477 5.12886 23.1585
543 1 5.56958 5.5648 24.9107
101 2 7.42421 7.06483 24.8429
100 2 3.66825 5.77399 23.1385
2675 3 7.06776 3.77349 25.1507
3175 2 3.81885 3.70181 25.0445
3665 2 5.46471 3.81797 23.0024
546 2 9.11096 7.19872 23.1118
547 1 8.78052 5.43985 24.9609
102 2 10.7433 5.38661 23.2811
1170 2 10.6796 7.11582 24.9754
3177 3 10.7678 3.73668 25.1548
3666 2 9.18527 3.59841 22.9903
548 1 14.2843 5.46304 23.4748
549 2 12.5327 5.26445 25.0868
105 2 14.3394 3.73715 25.0949
1670 1 12.5609 7.14926 23.2216
3179 2 12.6642 3.80338 23.2744
3667 1 14.3332 7.30992 25.0603
1172 1 16.0511 5.47447 25.0116
1672 3 17.8614 3.52932 24.8729
1671 3 16.016 7.24814 23.3154
2678 3 17.7674 7.17006 25.0263
2677 2 17.552 5.32492 23.2451
3668 2 15.8799 3.57505 23.1279
550 1 -0.0359779 8.92451 23.4511
106 3 1.77252 10.7508 23.325
1175 2 1.82833 8.9411 25.1821
3669 1 0.0560629 10.8498 24.9805
108 1 5.38981 10.8815 23.2346
1180 3 7.13282 11.0398 25.1808
1178 3 7.20768 8.92443 23.2979
1177 1 3.42332 9.01726 23.3442
1176 3 5.38883 9.10558 25.1595
3670 2 3.43727 10.7594 24.9725
551 2 10.7378 10.9012 25.119
552 1 9.04534 10.8645 23.3426
1181 1 9.02696 9.09192 25.0116
1674 2 10.8155 9.11075 23.4775
1182 3 12.4853 10.7603 23.253
1676 2 12.4289 8.91955 25.0437
1675 3 14.2063 8.98697 23.0388
2163 3 14.177 10.6734 24.8519
1183 1 16.068 9.19348 25.0209
1677 2 15.9855 10.6887 23.0203
2165 1 17.7817 10.8909 24.8478
3671 1 17.7472 9.04528 23.3274
555 2 0.0910961 14.2449 24.8727
1184 1 1.91211 14.4228 23.1859
1678 2 1.91506 12.6091 25.0295
2166 2 0.256915 12.624 23.1577
113 1 7.02303 14.3738 25.1268
1185 3 5.27425 12.6356 25.057
2170 1 5.40311 14.3337 22.935
2169 3 3.56314 12.5502 23.2194
2168 3 3.54634 14.205 24.8346
2167 1 7.13391 12.6023 23.1174
1680 3 10.5584 14.3259 24.9895
2171 1 10.7646 12.5464 23.233
2682 3 8.98433 14.1956 23.115
2681 3 8.80644 12.6747 25.0468
114 3 14.171 14.2704 24.9912
1681 1 12.562 12.5093 25.1255
2684 2 14.0832 12.5554 23.0754
2683 2 12.3725 14.2354 23.323
557 2 17.769 12.3961 23.2252
2173 3 16.0702 14.2906 23.1106
2685 2 15.9763 12.644 25.0915
3183 2 17.7879 14.3014 24.9711
1684 1 1.85721 15.9165 24.9676
1683 1 1.82288 17.9307 23.144
2688 2 0.234836 16.0912 23.0265
2687 2 0.0380517 17.8008 24.8897
2175 1 6.91904 17.8012 24.8329
2174 2 5.42698 17.8682 23.0124
2689 3 3.64764 17.9113 24.898
3187 1 5.21041 16.0809 24.8751
3186 3 7.16515 16.0104 23.157
3185 3 3.59278 16.2628 22.9445
1687 2 8.83879 17.6731 23.2082
1686 1 8.83123 15.9527 24.7737
2177 3 10.668 17.8083 24.8091
3675 3 10.6599 16.0186 23.1162
2178 2 14.192 17.6677 24.7733
2690 3 12.4152 17.9855 23.1212
3188 1 12.347 16.0997 24.94
3676 2 13.9256 16.0684 23.2503
1187 2 17.99 16.1219 23.2419
1186 2 17.9017 17.8634 24.9043
1689 2 16.0112 16.0685 24.8961
3189 2 16.0603 17.8306 23.139
1188 3 -0.00681545 0.20811 28.638
2180 3 1.8291 1.80963 28.6706
2668 1 1.79029 0.230405 26.917
3657 2 -0.071835 1.84468 26.7796
559 2 7.28962 0.216872 28.5272
94 3 7.30925 1.90591 26.7539
1189 1 3.78001 -0.0235444 28.5308
1666 2 5.52747 0.101958 26.6847
2181 1 5.49095 1.99608 28.5072
2669 3 3.48352 1.93808 26.922
560 1 10.8389 0.300981 28.6874
95 3 8.83683 -0.000544848 26.8035
2182 3 8.88511 1.92856 28.666
2672 2 10.6347 1.83742 26.913
538 2 14.2759 1.89903 26.803
1667 3 12.4258 0.0982265 26.8561
2184 1 12.4352 2.05222 28.4821
2183 3 14.2775 0.0325527 28.4571
2159 3 17.6734 1.91239 26.7912
3193 2 16.2054 2.00585 28.5374
3679 2 17.8728 -0.000178786 28.4942
3664 1 16.0823 0.113551 26.849
1168 1 1.9118 3.62405 26.8275
1669 1 1.63621 7.20574 26.9437
2186 1 0.177826 7.2146 28.9157
2185 2 0.14879 3.65558 28.64
2674 1 0.13361 5.31991 26.8976
3194 2 1.73633 5.41795 28.6916
544 1 3.51296 5.49661 26.8269
563 2 7.27763 7.08804 28.6889
1691 3 7.18146 3.61476 28.5005
1690 3 3.5626 3.72068 28.6083
2676 2 7.20149 5.52407 26.8646
3196 2 3.42203 7.23244 28.5165
3195 1 5.36723 5.59084 28.6648
3176 3 5.48093 3.88713 26.9357
3174 2 5.41012 7.25301 26.7255
545 2 10.7076 5.41063 26.9688
1171 2 8.99961 3.62706 26.7647
1169 2 8.83882 7.30611 26.7568
2694 2 10.586 3.57228 28.6547
3197 2 8.85591 5.46076 28.5469
3681 1 10.7497 7.25306 28.581
104 2 12.424 3.63807 26.7981
103 2 14.1837 5.36205 26.7996
2695 1 14.2234 3.86432 28.5059
3178 2 12.529 7.12534 26.902
3684 2 14.3275 7.10636 28.6849
3683 2 12.391 5.41466 28.6367
622 1 17.9681 3.73191 28.4425
1004 3 17.805 7.09351 28.5235
1174 3 16.0969 7.2329 26.7512
1173 2 17.9297 5.24047 26.6136
3180 1 16.1807 3.63009 26.7355
3685 1 16.1711 5.37214 28.4653
1673 3 0.148296 9.25847 26.7495
2161 3 1.92251 10.8576 26.8235
2696 2 0.294162 10.8207 28.7086
3687 3 1.8139 9.048 28.6345