ITEM: TIMESTEP
5000
ITEM: NUMBER OF ATOMS
4000
ITEM: BOX BOUNDS pp pp pp
9.1994743832639614e-02 3.5642065256167001e+01
9.1994743832639614e-02 3.5642065256167001e+01
9.1994743832639614e-02 3.5642065256167001e+01
ITEM: ATOMS id type x y z
563 1 0.0979481 0.188242 0.224271
1064 2 1.69485 2.0044 0.096618
1563 1 1.77198 0.185256 1.73765
2064 2 0.0965772 1.98416 1.86597
1 2 3.48956 1.91503 1.85394
565 2 7.21811 0.197908 0.118137
2065 1 7.13725 1.91025 1.88143
2565 1 3.71173 0.26281 0.115041
3064 3 5.5526 1.8504 -0.142459
3564 3 5.29597 0.304725 1.90752
2 2 10.7013 2.02597 2.08162
1066 2 8.9175 1.8891 0.0737952
1564 1 9.19257 0.187734 1.89273
2566 2 10.8734 0.240194 0.173889
567 1 14.5215 -0.178828 0.205837
2066 3 14.283 1.97664 1.88232
3066 1 12.633 1.88712 -0.089607
3565 3 12.6366 0.190686 1.98653
751 3 18.0338 0.0937287 -0.000229093
1068 1 16.1608 1.87956 0.20609
1565 2 16.1668 0.183267 1.89321
2001 1 17.8408 1.78425 2.00748
3 3 0.046608 5.45781 1.91278
573 2 0.136609 7.33975 0.0296917
1568 1 1.78792 7.23402 2.00212
2569 2 -0.0035586 3.75349 0.0881552
3068 3 1.86156 5.64814 0.221
3566 1 1.9265 3.68675 1.74964
4 2 7.11321 5.38625 1.7113
569 2 3.64047 3.6226 0.116372
577 3 7.27553 7.1591 0.171267
1070 1 5.37393 5.40116 0.155125
1566 2 5.45841 3.62832 1.85256
2067 2 3.53014 5.46737 1.89267
2576 3 3.70731 7.32577 0.109178
2571 3 7.12126 3.57062 0.118687
3570 2 5.54416 7.10607 1.77534
570 3 10.7551 3.61071 -0.0483024
1570 1 8.96927 7.07296 1.88676
2068 2 10.6958 5.32248 1.89602
2578 3 10.7566 6.95324 0.17904
3070 1 9.03176 5.26919 -0.0167032
3567 3 9.01258 3.83439 1.81992
5 1 14.3406 5.33229 1.98105
581 1 14.4572 7.16614 -0.0249687
1072 1 12.5342 5.28751 0.118138
1567 3 12.3849 3.52449 1.81966
2573 3 14.3876 3.55431 -0.00341731
3572 1 12.4154 7.18701 1.89063
253 1 17.9017 5.64749 1.97229
761 2 17.8373 7.13671 0.219767
1572 2 16.0269 7.22747 1.73711
2819 3 17.9364 3.63176 0.143713
3072 2 16.1925 5.35409 0.0479813
3568 1 16.2136 3.68328 1.96026
1074 3 1.74888 9.07083 0.102641
2069 3 0.0376304 8.93399 1.91851
2574 2 0.372936 10.838 -0.0736765
3569 2 1.82096 10.7026 1.89544
6 3 3.4569 9.01938 1.86979
575 3 3.79309 10.7692 0.25235
1569 3 5.48666 10.888 2.05998
2070 2 7.29258 9.05719 1.83725
2579 2 7.2294 10.725 0.194503
3074 2 5.44585 8.95878 0.156277
7 3 10.5848 9.01213 1.91388
578 2 10.7847 10.8922 -0.0464271
1076 3 9.05417 8.90021 0.06585
3571 3 9.08641 10.8509 1.84781
1571 1 12.3099 10.6861 1.69151
2071 3 14.1976 8.90343 1.81682
2582 1 14.4193 10.5238 0.207806
3076 3 12.6495 8.83893 0.0548497
1078 1 16.1228 9.10235 0.196689
2006 1 17.9963 8.99155 2.10692
2825 3 17.8588 10.6245 0.324314
3573 3 16.0729 10.6885 2.12527
8 1 -0.0409319 12.2446 1.84068
583 2 0.0619041 14.231 0.111053
1573 3 1.80622 14.1263 2.00015
3078 2 1.83539 12.5071 0.0619606
9 1 7.18471 12.4542 1.86665
585 1 7.12214 14.3211 -0.0396714
1080 2 5.54959 12.6119 0.0129158
2072 1 3.83177 12.5934 2.13134
2585 1 3.7126 14.0838 0.191874
3574 2 5.51349 14.2834 1.7578
1574 2 8.91558 14.2919 1.77601
2073 1 10.7601 12.7684 1.75322
2586 1 10.7747 14.2951 -0.10273
3080 1 8.73219 12.6134 -0.0169785
10 3 14.2771 12.3748 1.74605
587 3 14.3599 14.2182 0.182362
1082 1 12.4922 12.4642 0.0203698
3575 2 12.5083 14.1757 1.72845
258 1 18.0718 12.3618 1.96144
771 2 17.8439 14.168 0.211739
1575 1 16.1068 14.3863 1.77685
3082 3 16.2012 12.3886 0.0595203
626 1 0.0633448 17.8284 -0.000561928
1084 2 2.07892 15.9449 -0.0500365
1688 2 1.72123 17.5124 1.67748
2074 1 -0.115172 15.8181 1.94673
11 3 3.64668 15.8627 1.82664
630 2 7.4893 17.8991 0.209325
2075 1 7.06005 16.1764 1.79165
2691 1 3.76064 17.8705 0.274223
3084 3 5.3444 15.9607 0.0209506
3690 3 5.38052 17.6568 1.7614
12 1 10.8748 16.0691 1.75932
1086 1 8.94529 16.0334 0.183698
1690 3 9.26488 17.9252 1.87973
2693 3 10.8144 17.865 0.0421286
634 2 14.3765 17.699 0.0960091
2076 1 14.3441 16.1602 1.97589
3086 1 12.6479 16.0901 0.206032
3692 2 12.6584 18.0712 1.60734
876 2 17.7686 17.8348 0.167892
1088 2 16.074 16.1253 0.116611
1692 2 16.1484 17.8359 1.94114
2011 1 17.7642 16.0709 1.95778
13 3 0.00944855 1.7271 5.57166
588 2 0.326838 -0.0379055 7.23102
1089 1 1.94949 1.70486 7.3269
2564 1 0.0755508 0.174842 3.62821
3063 1 1.62331 1.99992 3.58927
3576 2 1.86811 0.125515 5.23399
14 2 7.33178 2.01843 5.69749
564 1 3.48948 0.246397 3.67965
1065 2 5.30972 1.95784 3.6909
1577 2 3.85067 0.283864 7.00158
1576 1 5.53812 0.121083 5.25386
2078 1 5.39022 1.89016 7.3645
2077 3 3.70544 1.79462 5.3206
2589 3 7.38859 0.238516 7.1969
2567 3 7.54075 0.230226 3.83257
566 2 10.7806 0.193661 3.71563
2079 1 10.8521 1.84674 5.61415
3065 2 8.99091 1.97386 3.6621
3088 3 9.08873 1.96185 7.36499
3578 2 10.7193 0.202356 7.21922
3577 1 9.09263 0.217429 5.6531
15 1 12.9344 1.89437 7.35655
16 1 14.3709 2.05902 5.28196
589 3 14.387 -0.0223681 7.19881
1067 3 12.4269 1.90207 3.7316
1578 2 12.4662 0.294058 5.57931
2568 1 14.422 -0.112708 3.6716
263 3 17.953 1.90573 5.59866
776 3 17.835 0.0369133 7.24409
1090 2 15.9812 1.75224 7.31891
2815 2 17.8019 0.0178227 3.87411
3067 2 16.188 1.99687 3.71265
3579 1 15.952 0.122785 5.4509
568 1 -0.00452735 3.56207 3.72567
1069 3 1.63691 5.38338 3.6762
1580 2 0.000532753 3.45573 7.14874
1579 3 1.79673 3.45681 5.33022
2081 2 1.86039 5.42123 7.0927
2080 3 -0.066677 5.48429 5.3515
2591 2 0.124332 7.24103 7.17936
2575 3 0.0628591 7.22417 3.71914
3583 2 1.78234 7.3146 5.32969
17 3 3.62216 5.35168 5.43906
571 1 7.05961 3.30071 3.61378
592 1 7.06543 7.15172 7.06002
576 1 3.71377 7.1016 3.56722
1585 2 5.26967 7.25775 5.53904
2082 1 7.18676 5.41249 5.26991
2590 3 3.54302 3.55893 7.26316
2580 1 7.08178 7.20042 3.73115
2570 1 3.66333 3.53518 3.55749
3069 3 5.33851 5.46653 3.56933
3089 3 5.3379 5.32495 7.12998
3586 2 3.34398 7.16473 7.17059
3581 2 7.11331 3.75982 7.39801
3580 3 5.41947 3.66199 5.42782
18 2 10.745 5.53792 5.38285
19 2 8.78757 5.52317 7.17381
590 3 10.6188 3.68092 7.24863
579 1 10.803 7.14064 3.58378
1071 2 8.87803 5.24259 3.73814
1587 1 10.5736 7.19306 7.19354
1581 2 8.95964 3.60441 5.47765
2572 1 10.7045 3.73954 3.68114
3587 3 8.94457 7.12926 5.33505
572 1 14.1527 3.58578 3.66003
1091 1 12.4698 5.42796 7.2835
1589 1 12.4515 7.12919 5.45057
1583 2 14.2052 3.76678 7.32955
2083 3 14.3625 5.3786 5.47857
2593 2 14.3306 7.0613 6.97335
2583 3 14.2444 7.01938 3.60249
3071 3 12.516 5.30229 3.41201
3582 3 12.5058 3.54988 5.54023
757 1 18.0069 3.50039 3.72156
1073 3 16.0339 5.27348 3.77202
1768 1 18.0067 3.67661 7.12475
1582 3 16.1814 3.52378 5.52886
2084 1 16.1125 5.29137 7.09651
2017 3 17.795 5.4382 5.53
2841 3 17.9459 7.39028 7.18642
2826 3 17.796 7.22864 3.75361
3589 3 16.0767 7.19183 5.4568
20 2 0.0887315 8.99672 5.33632
574 1 0.101041 10.7897 3.76131
1584 3 1.84066 11.0023 5.31794
3073 2 1.79494 9.05669 3.40731
3090 2 1.9336 9.10182 7.33742
3584 1 0.182488 10.871 7.24435
21 2 5.34205 8.88111 7.04428
22 2 7.00733 8.9073 5.27022
591 3 3.67258 10.8425 7.18923
580 2 7.20942 10.7903 3.89049
1075 3 5.39448 8.92432 3.59901
1588 1 7.14793 10.7162 7.08852
2085 2 3.40914 8.9631 5.14649
2577 3 3.49329 10.8444 3.61317
3585 3 5.32384 10.7319 5.25218
1092 3 8.80818 8.90331 7.2783
1586 1 8.95601 10.7489 5.50252
2086 1 10.7281 9.0208 5.47724
2592 2 10.7934 10.6548 7.11946
2581 2 10.7943 10.6993 3.6363
3075 2 9.05587 9.01644 3.77094
23 1 14.3816 9.13992 5.46983
582 3 14.4615 10.8414 3.55872
1077 3 12.4797 8.93722 3.58131
2087 2 12.5061 8.86449 7.09244
3590 3 14.1954 10.6983 7.32079
3588 1 12.5432 10.6204 5.55461
270 3 18.0983 8.76677 5.45336
764 3 18.023 10.7253 3.811
1590 2 16.0577 10.7463 5.396
3091 2 16.035 9.04631 7.03277
3077 1 16.1379 8.8364 3.58476
3835 1 17.9292 10.5605 7.20659
24 2 1.61538 12.6044 7.33694
593 1 0.0693705 14.3287 7.18224
1079 2 1.82743 12.4032 3.56491
2088 3 -0.0139679 12.5482 5.27058
2584 2 -0.0677785 14.2672 3.54213
3591 3 1.84913 14.4318 5.42512
25 1 3.64346 12.6623 5.33447
584 3 3.56632 14.4785 3.61714
1093 3 5.22415 12.6103 7.38726
1592 1 3.70505 14.3617 7.21444
1591 2 5.4874 14.3688 5.48151
2089 1 7.16711 12.6434 5.42902
2594 1 7.28512 14.2137 7.03451
2587 2 7.34349 14.4416 3.56966
3079 2 5.43225 12.6889 3.84023
26 1 10.7426 12.411 5.61134
586 2 10.9027 14.1745 3.58584
1081 3 9.0215 12.673 3.51232
2090 3 8.99029 12.4631 7.13355
3593 2 10.742 14.1954 7.17232
3592 1 9.05499 14.2521 5.51167
594 3 14.3334 14.1655 7.22064
1593 3 12.425 14.2211 5.51942
2091 1 14.4927 12.4041 5.41697
2588 1 14.2453 14.2862 3.55456
3092 1 12.5441 12.4721 7.20633
3081 3 12.5777 12.5459 3.42694
27 2 16.1882 12.1788 7.15426
781 3 17.9468 14.1091 7.269
1083 2 16.1132 12.502 3.63596
2025 2 17.8798 12.5139 5.54625
2835 3 17.8271 14.2838 3.72128
3594 1 16.11 14.2674 5.54388
28 3 0.162646 16.1949 5.24432
651 3 0.152946 17.9293 7.27288
1094 1 1.92113 16.3637 7.18819
2690 1 0.221663 17.8524 3.66235
3083 1 1.84822 16.0687 3.66142
3701 1 1.88288 17.9601 5.49351
29 2 7.24092 16.1336 5.61764
629 2 3.46174 17.8862 3.72825
1085 1 5.5329 15.9938 3.81886
1704 3 3.76574 17.9023 7.33677
1703 3 5.46083 17.9006 5.53535
2093 2 5.53636 16.1502 7.27412
2092 2 3.72513 16.1729 5.45731
2715 1 7.23038 17.9612 7.2617
2695 1 7.36051 17.7266 3.52361
632 1 11.0039 17.8895 3.77163
2094 3 10.8531 16.0484 5.43715
3093 3 9.12056 16.083 7.29405
3085 1 9.16141 16.2028 3.88918
3704 3 10.9221 17.7042 7.05004
3703 1 9.08402 17.7614 5.4979
30 1 12.5191 15.8374 7.43222
31 1 14.0882 15.8125 5.52788
653 1 14.3747 17.6921 7.23114
1087 1 12.5236 16.1364 3.75335
1706 2 12.6508 17.7098 5.5873
2698 2 14.2493 18.0083 3.67014
278 3 17.9819 15.9836 5.77895
901 3 17.6014 17.9034 7.26352
1095 3 15.9717 15.9135 7.03427
2878 3 17.8251 17.8944 3.89963
3087 3 16.0815 16.0349 3.77639
3707 1 15.8571 17.8071 5.45555
1594 2 1.90644 0.123638 9.06875
2095 3 0.158864 2.10736 9.01454
2595 2 0.0332788 0.0212416 10.6293
3094 3 1.74749 1.89861 10.7351
33 1 7.09349 1.87842 8.91901
595 1 3.57935 0.137893 10.9218
1096 3 5.30324 1.96163 10.8272
2597 1 7.13836 0.114499 10.9243
2596 2 5.45081 0.156375 9.09659
3095 3 3.63615 1.90997 9.0134
596 3 10.5323 0.284116 10.9765
1097 1 10.7545 2.10807 9.11389
3096 3 8.91076 2.05825 10.7198
3596 1 8.835 0.116712 9.20356
597 3 12.4374 0.106091 9.09752
1098 2 12.4028 1.8192 10.6563
2098 1 14.2799 1.94567 9.10823
2598 2 14.2332 0.0426035 10.9624
1597 3 16.063 -0.0311041 8.93974
2032 1 17.8827 1.91016 8.96419
2845 3 17.8118 0.0985561 10.6637
3097 2 15.9688 1.78694 10.7519
598 3 -0.0372709 3.86367 10.6758
1099 3 1.73803 5.39654 10.6688
2603 2 0.0204322 7.24038 10.7398
2599 1 1.79208 3.61404 8.94936
3098 2 0.00511174 5.40314 8.80629
3602 2 1.65783 7.25662 9.07862
36 3 3.4291 5.40426 8.90492
605 2 3.54197 7.11227 10.6711
604 2 5.30096 7.28367 9.02791
600 2 7.1832 3.81305 10.7599
1100 1 6.94521 5.5409 8.99047
2606 2 7.02136 7.26604 10.8045
2600 2 3.59922 3.8246 10.819
3099 1 5.35617 5.60024 10.802
3599 3 5.43974 3.69345 8.94192
606 1 10.7586 7.17324 10.627
599 2 8.71573 3.85659 9.10644
1101 1 8.91884 5.57566 10.7424
1605 2 8.724 7.26567 8.87946
2100 3 10.6949 5.39413 8.96299
2601 3 10.6604 3.71196 11.0114
601 2 14.3523 3.45254 10.7298
1600 2 12.4422 3.75159 9.2254
2609 2 14.223 7.14703 10.7105
2608 3 12.4835 7.1282 8.87503
3101 3 14.2671 5.4467 8.9931
3100 2 12.4451 5.47003 10.7529
786 2 18.0215 3.73053 10.8468
1102 3 16.0008 5.3324 10.6053
2853 3 17.8904 7.15531 10.7886
2602 3 16.0418 3.40676 8.87415
3348 3 17.8842 5.42556 8.96246
3608 3 15.9994 7.00817 8.85349
39 2 -0.0198378 9.11665 8.9023
603 1 -0.0179406 10.8758 10.8731
602 2 1.74878 10.9369 9.06155
3102 1 1.68949 9.05859 10.8057
607 2 7.12156 10.7139 10.6388
1104 2 5.24098 8.91607 10.6818
1103 2 3.50176 8.98685 8.952
1603 1 5.42742 10.7622 8.92979
2104 1 6.97276 8.85199 8.7954
2604 2 3.56099 10.8615 10.6478
2607 1 10.793 10.5792 10.6036
2605 2 9.077 10.6031 9.13076
3104 2 8.88118 8.95801 10.6306
3103 2 10.5763 8.83103 8.95534
42 1 14.2849 8.79768 8.90375
609 2 14.3191 10.8106 10.6169
1105 2 12.5365 9.05668 10.8605
3606 1 12.5757 10.6519 8.97384
289 3 18.0112 8.93197 9.16831
792 2 18.1528 10.7729 10.9987
608 1 16.2442 10.6071 9.1338
3105 1 16.1866 9.03348 10.6145
1107 2 2.09064 12.6238 10.8277
1106 3 0.00975037 12.7994 9.02281
1609 3 1.80168 14.3114 8.96914
2610 2 0.0327515 14.5855 10.8054
610 3 3.70893 14.4819 10.5056
2107 2 3.44087 12.5702 8.91599
2612 2 7.10891 14.0582 10.6656
2611 3 5.24004 14.3051 8.99847
3107 3 7.29643 12.5199 8.87034
3106 2 5.31862 12.466 10.6884
45 3 10.8163 12.4388 8.95154
611 3 10.5354 14.1912 10.7459
1108 2 8.81341 12.4215 10.7465
3611 3 9.11832 14.2826 8.92128
612 1 12.4789 14.1357 8.97231
1109 1 14.3431 12.5216 9.03127
2613 3 14.3455 14.2504 10.6781
3108 2 12.4095 12.5348 10.8378
1293 2 17.8627 12.144 9.03899
1110 1 16.256 12.442 10.7516
1612 1 16.19 14.4153 8.97963
2860 3 17.8545 14.2188 10.7678
1719 2 1.79067 17.8946 9.21124
2110 2 0.0490862 16.0841 9.07226
2721 1 0.0209309 17.7459 10.8209
3109 2 1.82027 16.117 10.7755
48 1 7.16359 16.0369 8.84281
659 1 3.74178 17.873 10.8117
1111 1 5.36892 16.0298 10.8467
2724 3 7.01255 18.0182 10.7614
2722 1 5.43645 17.9485 9.03709
3110 3 3.67331 16.1788 9.03077
661 3 10.6443 17.774 10.8798
1112 1 10.7707 15.9212 8.96459
3111 3 8.83982 15.9977 10.7675
3723 3 8.94262 17.7284 9.00609
663 3 12.4301 17.6906 8.77347
1113 2 12.4805 16.0648 10.8129
2113 3 14.3661 16.0025 9.11382
2727 1 14.3288 17.6955 10.7402
1725 3 16.0719 17.7548 8.86429
2047 1 17.7932 16.0598 8.86833
2908 2 17.9425 17.8889 10.7457
3112 3 16.29 15.9815 10.7773
32 1 -0.0480376 1.88306 12.5556
613 2 0.102164 -0.0850285 14.3499
1114 1 1.79545 1.85097 14.3213
3595 2 1.73975 0.0503661 12.4673
34 3 7.21232 1.97164 12.4248
614 3 7.17198 0.34495 14.3204
1595 1 5.34652 0.215121 12.8142
2096 3 3.48011 1.83503 12.5369
2614 2 3.37324 0.0802362 14.1635
3113 1 5.38513 2.03217 14.2585
1115 3 9.0007 1.93849 14.4594
2097 3 10.7152 1.99799 12.6822
2615 3 10.6793 0.0935628 14.477
3597 1 8.99093 0.305958 12.5183
35 2 14.3123 1.76457 12.5472
615 3 14.4486 0.047358 14.3016
1596 1 12.5718 0.201172 12.799
3114 3 12.481 2.02484 14.412
282 3 17.8059 1.90486 12.3469
801 2 18.1381 0.0164286 14.202
1116 1 16.0439 1.6767 14.224
3598 2 16.0521 -0.0633359 12.4823
618 3 -0.0429503 7.28071 14.4858
1598 3 1.69782 3.79835 12.4271
2099 1 -0.148397 5.51956 12.3888
2616 3 -0.035849 3.61166 14.1849
3115 1 1.70015 5.33525 14.2722
3603 3 1.61093 7.01392 12.5941
37 1 3.56795 5.38994 12.4035
620 1 7.15857 7.07724 14.3809
616 3 3.49276 3.63185 14.2073
1117 3 5.36158 5.31926 14.2829
1604 2 5.23478 7.09845 12.548
2101 1 7.20629 5.68901 12.5396
2620 3 3.3807 7.21905 14.3444
2617 1 7.07572 3.56743 14.489
3600 1 5.54864 3.74343 12.5053
38 3 10.7845 5.58471 12.5141
617 3 10.7219 3.87548 14.3494
1599 1 8.90929 3.72719 12.6784
2621 3 10.8697 7.16417 14.3147
3116 3 8.94903 5.55374 14.3047
3605 1 8.84677 7.2366 12.3449
622 2 14.3775 7.10279 14.2464
1118 2 12.7182 5.3957 14.3791
1607 2 12.6701 7.29439 12.437
2102 1 14.2324 5.42978 12.3467
2618 1 14.3947 3.52496 14.2406
3601 1 12.3838 3.64204 12.4571
806 1 17.9397 7.30049 14.4692
1601 1 15.9856 3.59982 12.5809
2036 3 17.9759 5.52291 12.5381
2866 2 17.8835 3.60279 14.0441
3117 3 16.2783 5.34701 14.2839
3609 1 16.0058 7.06125 12.5246
40 1 0.120428 8.98032 12.5028
1119 1 1.88193 8.90872 14.3061
1602 1 1.67007 10.8965 12.3981
2619 2 0.130013 10.7489 14.1461
41 2 7.08176 8.82638 12.5849
619 1 3.64222 10.7304 14.3919
2103 3 3.40392 9.11096 12.5069
2622 1 7.16664 10.6535 14.0948
3118 2 5.39414 8.9122 14.0529
3604 1 5.38105 10.5591 12.2365
621 2 10.8842 10.629 14.2513
1120 3 9.10752 9.00982 14.2904
1606 1 8.88258 10.6957 12.4069
2105 3 10.6623 8.79499 12.4665
43 1 14.2929 8.95491 12.4783
2623 3 14.4659 10.7422 14.2742
3119 1 12.5537 9.08599 14.2142
3607 3 12.5729 10.7396 12.4905
290 2 17.5922 8.78534 12.5151
1121 3 16.173 8.83755 14.3334
1608 3 16.2207 10.9085 12.5189
2870 1 18.0241 10.7391 14.3638
623 2 0.285689 14.3417 14.3066
2106 2 0.108331 12.6665 12.6393
3120 2 1.83843 12.2961 14.3184
3610 1 1.88616 14.3074 12.388
44 3 3.5773 12.4541 12.6538
624 3 7.23801 14.2313 14.2462
1122 2 5.42585 12.4042 14.3083
1610 2 5.58129 14.3309 12.6102
2108 2 7.10712 12.4336 12.4142
2624 2 3.61709 14.4147 14.1983
46 2 10.579 12.3436 12.5544
2625 3 10.6862 14.2935 14.3904
3121 2 8.92259 12.3133 14.1529
3612 1 8.98314 14.2727 12.5636
625 1 14.5276 14.0803 14.4433
1123 2 12.6059 12.6652 14.1469
1611 1 12.5515 14.3322 12.4676
2109 3 14.2076 12.4754 12.5236
811 1 17.9387 14.3502 14.2582
2044 2 18.0755 12.5016 12.6988
3122 1 16.2451 12.4888 14.3743
3613 1 16.1849 14.1049 12.4619
47 1 0.0522902 16.0117 12.5256
676 3 0.113372 17.9954 14.0395
1124 3 1.62567 16.1953 14.5023
3720 3 1.95522 17.9628 12.4247
49 3 7.20999 16.0057 12.5845
678 1 7.2288 17.8661 14.4019
1721 1 5.3295 17.8313 12.7044
2111 3 3.6549 16.1239 12.7031
2740 2 3.5451 17.9418 14.3604
3123 1 5.46869 16.0561 14.2301
1125 3 8.80664 16.2264 14.4313
2112 2 10.7974 16.074 12.5021
2741 1 10.7893 17.5649 14.2597
3724 3 8.87954 17.8328 12.5619
50 2 14.3023 16.1301 12.3357
680 3 14.2663 17.6724 14.246
1724 3 12.6518 17.7678 12.6399
3124 1 12.5966 16.1149 14.4179
297 3 18.0491 15.9581 12.3502
926 3 17.9389 17.5676 14.2998
1126 3 16.2117 15.9168 14.1893
3726 1 16.2001 17.8738 12.5424
1613 2 1.78614 0.171894 16.0666
2114 1 0.0672957 1.90773 16.0511
2626 1 0.147185 0.107677 17.7766
3125 2 1.85665 1.86714 17.9337
51 3 3.59905 1.84514 16.0386
502 2 3.65204 0.273993 17.8727
1128 3 5.74236 1.92228 17.9981
2115 2 7.14792 1.85779 16.1413
2628 1 7.2157 0.0348525 17.7924
3614 3 5.48064 0.261421 16.2633
52 1 10.935 1.81462 16.2119
503 3 10.8226 0.224303 18.1697
1614 2 9.02256 0.364727 16.2852
3127 3 9.00893 2.05098 18.0511
1130 3 12.7468 1.95499 18.0762
2116 3 14.3324 1.98952 16.1126
2630 3 14.4535 0.0671369 17.8779
3615 1 12.6363 0.203764 16.1786
1615 3 16.0757 0.123314 16.1106
2051 1 17.8609 1.8683 15.9988
2501 3 17.7263 -0.0746891 17.8196
3129 2 16.0627 1.82181 17.9
53 1 0.151731 5.34104 16.1926
506 3 0.000588777 3.65241 18.0239
1132 1 1.73187 5.51141 17.7944
1618 3 1.54489 7.36239 16.0922
2636 3 0.0814346 7.15993 18.0525
3616 2 1.85471 3.6896 15.9775
54 3 7.1717 5.33602 16.0138
508 2 7.03779 3.9373 17.884
513 2 3.47139 7.26988 17.9138
1616 3 5.39413 3.52124 16.0348
2117 3 3.41193 5.4133 16.1126
2640 3 7.3967 7.34384 17.6581
2632 1 3.58414 3.58452 18
3131 2 5.42159 5.58217 17.6998
3620 1 5.21321 7.13758 15.89
515 1 10.5643 7.17284 17.85
1134 1 9.02404 5.38492 17.5664
1620 2 9.00354 7.26824 16.0605
2118 1 10.7664 5.53943 16.2403
2633 1 10.9848 3.65225 18.0607
3617 2 8.83339 3.50595 16.2249
55 3 14.4966 5.49725 16.2355
510 1 14.3933 3.53014 17.8333
1617 2 12.5369 3.68002 16.3159
2644 1 14.4478 7.43466 17.8687
3133 3 12.5897 5.69486 17.9297
3622 3 12.4745 7.18088 16.0886
303 1 17.9194 5.10131 16.0056
819 1 17.9899 3.50267 17.9136
1136 3 16.1925 5.20316 17.7963
1622 1 16.1911 7.11757 16.0882
2511 1 17.8353 7.08259 17.7599
3618 2 16.2207 3.64371 15.9956
511 3 0.0888193 11.0545 17.9416
2119 1 0.0164021 9.20858 16.091
3135 3 1.59466 9.03725 17.8324
3619 2 1.98474 10.8577 16.0829
56 2 3.66307 8.91661 15.9552
516 1 7.19714 10.731 17.9047
1138 2 5.4995 8.90155 17.9101
1619 1 5.50343 10.5376 15.9645
2120 3 7.35332 9.03126 15.981
2638 1 3.62104 10.6513 17.6337
57 1 10.8657 8.92192 16.0688
2641 2 10.8398 10.5481 17.8779
3137 2 8.98246 9.08781 17.7618
3621 1 8.97454 10.7469 16.1195
519 3 14.2862 10.7125 18.0854
1140 3 12.6106 9.08247 17.9533
1621 1 12.6922 10.7628 16.0656
2121 2 14.3039 8.9382 16.2002
825 2 18.0425 10.8244 18.0123
2056 3 17.8406 9.03123 16.1531
3139 1 16.2711 9.0167 17.9819
3623 1 16.0021 10.6224 16.1837
58 1 0.188957 12.6127 16.041
1142 1 2.02223 12.5654 17.8058
1623 3 1.9367 14.312 16.0684
2646 3 0.107547 14.3922 17.9069
59 3 7.18217 12.4497 15.9391
522 3 3.78252 14.3498 17.7061
2122 1 3.68948 12.5585 16.0969
2648 1 7.19823 14.2762 17.791
3141 1 5.42378 12.4569 17.6347
3624 1 5.62504 14.3525 15.8552
523 3 10.8181 14.3028 17.7797
1144 3 8.89342 12.6014 17.7228
1624 2 9.07661 14.1477 16.0444
2123 1 10.6057 12.463 15.7353
60 2 14.201 12.4911 16.1291
2650 1 14.2856 14.0631 17.7978
3143 2 12.579 12.4741 17.9796
3625 2 12.6051 14.2783 16.1731
308 2 17.7654 12.5217 16.285
1146 1 16.1241 12.3175 17.8364
1625 3 16.1277 14.2119 16.1434
2521 1 17.7611 14.2608 18.0225
1738 3 1.69401 17.7991 16.0534
2124 1 0.0342798 16.1719 16.2101
2751 3 0.171633 17.8395 17.9269
3145 1 2.01471 15.996 17.6099
61 2 3.77536 16.17 15.9209
691 2 3.72222 17.9355 17.8157
1148 3 5.32476 16.221 17.8568
2125 2 6.95908 16.212 16.1733
2755 1 7.15375 17.8652 17.9094
3740 1 5.31861 17.7454 16.0284
62 2 10.6511 16.0184 15.9772
693 1 10.5942 17.8285 17.9751
1740 3 9.00794 17.8156 16.1631
3147 2 8.82891 15.9518 17.6629
1150 1 12.567 16.0632 17.716
2126 3 14.3149 16.035 16.0287
2759 3 14.3374 17.8825 17.6603
3742 3 12.3781 17.967 16.0303
1742 1 16.1733 17.6969 16.0695
2061 3 17.9696 16.0227 16.0655
2938 2 17.6802 17.7859 17.7773
3149 3 15.951 15.8843 17.9583
501 3 -0.00721181 0.204244 21.4805
63 1 0.24682 1.84095 19.5439
1127 1 1.71029 1.9099 21.3501
3626 2 1.82021 -0.0645586 19.625
504 1 7.47788 0.133059 21.3335
64 1 7.34775 2.00075 19.5938
1626 1 5.47288 0.104703 19.7364
2127 2 3.70809 1.67249 19.7162
2627 2 3.77072 0.246057 21.6611
3126 3 5.54635 1.85555 21.3257
1129 3 8.9315 1.79631 21.3747
2128 1 10.8428 1.87826 19.6994
2629 2 10.9548 0.336758 21.3955
3627 3 8.99809 -0.000574325 19.6681
505 1 14.3377 0.17025 21.5094
65 3 14.4485 1.9682 19.9149
1627 3 12.8563 0.0612894 19.6177
3128 3 12.6022 2.15803 21.4182
815 1 17.9711 0.107191 21.312
313 2 17.8424 1.78657 19.6843
1131 2 16.1925 1.85036 21.5531
3628 1 16.1595 0.0415792 19.7298
512 1 0.029778 7.38965 21.254
1628 2 1.85436 3.80203 19.6397
2129 3 0.155621 5.41688 19.8572
2631 3 -0.0790238 3.48176 21.401
3130 1 2.06429 5.52794 21.409
3631 3 1.93076 7.22525 19.6359
507 3 3.52481 3.58788 21.3412
517 2 7.08698 7.16445 21.7518
66 3 3.80711 5.46457 19.7021
1133 2 5.32833 5.60128 21.51
1632 1 5.52026 7.05127 19.5069
2130 1 7.20032 5.65533 19.6951
2639 2 3.60673 7.20653 21.4328
2634 3 7.15956 3.74632 21.2836
3629 3 5.29693 3.70942 19.6963
509 3 10.8302 3.70568 21.2584
67 3 10.6608 5.51163 19.7119
1629 3 9.01068 3.67254 19.7677
2642 2 10.6701 7.23376 21.4371
3132 1 8.90702 5.41713 21.4688
3633 3 8.99169 7.23127 19.5698
520 3 14.3482 7.39057 21.6469
1135 1 12.4878 5.57411 21.471
1634 2 12.461 7.13162 19.6954
2131 2 14.4602 5.42801 19.7533
2635 2 14.4261 3.65771 21.3795
3630 3 12.6212 3.91532 19.6763
826 2 17.9112 7.13455 21.4909
1630 2 16.099 3.56837 19.7717
2316 2 17.9626 5.42263 19.6092
2507 2 18.0674 3.71694 21.4904
3134 2 16.2224 5.48095 21.5934
3635 2 16.2319 7.47334 19.7688
68 1 0.107824 9.13597 19.7979
1137 3 2.14893 8.97207 21.3979
1631 3 1.88678 10.7951 19.4814
2637 3 0.0347716 10.8586 21.3829
514 1 3.71317 10.8033 21.3568
69 2 7.26679 8.97982 19.7489
2132 3 3.73155 8.9938 19.6399
2643 1 7.50658 10.6812 21.4262
3136 1 5.4634 9.05888 21.2915
3632 3 5.30923 10.721 19.555
518 1 10.7962 10.8166 21.6177
1139 2 9.15225 9.06333 21.4567
1633 3 8.96468 10.8766 19.4209
2133 1 10.7868 9.1185 19.7262
70 2 14.4005 8.85825 19.646
2645 1 14.0422 10.844 21.3389
3138 1 12.4566 8.94395 21.4979
3634 2 12.3895 10.6906 19.6465
318 1 18.0808 9.25984 19.7901
1141 3 16.1664 8.91444 21.5906
1635 1 16.0413 10.6429 19.9671
2514 1 17.791 11.0404 21.7323
521 2 0.256905 14.4227 21.3659
2134 2 0.0893954 12.5683 19.6867
3140 3 2.07855 12.5651 21.3239
3636 3 2.03578 14.3959 19.4599
524 3 7.09337 14.2987 21.4417
71 1 3.65717 12.7273 19.7113
1143 3 5.45731 12.5969 21.363
1636 3 5.25383 14.4143 19.5494
2135 3 7.20435 12.5172 19.6092
2647 3 3.77201 14.2975 21.5763
72 1 10.8477 12.526 19.5434
2649 1 10.8075 14.4032 21.3665
3142 1 9.29853 12.8118 21.2313
3637 2 9.10693 14.3922 19.4735
525 2 14.1831 14.1716 21.3421
1145 2 12.1428 12.6013 21.4719
1637 2 12.4432 14.3631 19.5392
2136 1 14.1149 12.5303 19.6412
835 3 17.78 14.3471 21.4383
2321 1 17.8521 12.4331 19.5778
3144 2 16.1271 12.6762 21.3521
3638 2 16.0642 14.1399 19.5007
690 2 0.105581 17.8401 21.4932
73 2 0.0724463 16.1976 19.5526
1147 2 2.03557 16.096 21.4514
3751 3 1.84852 17.8138 19.6381
695 2 7.10839 17.647 21.5049
74 1 7.05817 16.0449 19.5521
1502 2 5.32081 17.75 19.6326
2137 1 3.57677 16.0269 19.6059
2754 3 3.56977 17.9889 21.3811
3146 1 5.3885 15.9743 21.4667
1149 3 8.78815 15.9483 21.4894
2138 2 10.8458 16.0694 19.6709
2757 1 10.7943 17.7419 21.1669
3753 2 8.80719 17.7901 19.6353
698 1 14.2338 17.9117 21.4334
75 3 14.265 16.1738 19.5345
1504 3 12.6289 17.8959 19.468
3148 2 12.6732 16.0109 21.2802
941 1 17.9557 17.8755 21.2995
323 2 17.82 16.2489 19.6158
1151 3 15.9203 16.1927 21.338
3755 1 16.204 17.9515 19.6233
1638 1 1.97846 0.233189 23.0704
2139 2 -0.0205892 1.94035 23.3734
2651 1 0.208864 0.0645685 24.9234
3150 2 1.93198 1.82457 24.9082
526 2 7.31278 0.289811 24.8976
77 2 5.58925 1.93536 25.1157
76 1 3.85953 1.92356 23.1046
2140 3 7.20848 2.13204 23.1189
3640 3 3.81341 0.203553 24.9047
3639 2 5.83658 0.000526103 23.1577
78 3 10.944 2.08927 23.0511
1152 3 9.00493 1.9779 25.0877
1640 3 10.7166 0.077641 24.8825
1639 1 9.19608 0.284699 23.1174
2142 2 14.3286 2.03607 23.1603
2141 1 12.6596 1.84117 24.9581
2652 3 14.4478 0.169543 24.9021
3641 3 12.4329 -0.049948 23.3742
1641 1 16.3321 -0.0389593 23.2819
2326 3 17.7521 1.87382 23.2211
2526 2 17.8814 -0.0800909 24.9885
3151 3 16.1505 1.91531 25.1298
528 3 0.0203712 7.26575 24.9016
80 1 1.6111 5.38957 24.8159
79 3 -0.000602032 5.44905 22.9555
1645 3 1.99015 7.13734 23.1641
3643 2 -0.0455168 3.60793 24.8785
3642 3 2.04506 3.50615 23.196
527 2 3.6108 3.57936 25.1235
81 2 7.36477 5.55123 23.3303
1153 3 5.43518 5.32441 24.9782
1648 2 3.6315 7.16551 24.8697
1643 3 7.35506 3.79959 25.002
1642 2 5.49447 3.77111 23.1761
2143 3 3.62241 5.39517 23.3272
2655 1 7.06117 7.13868 25.0598
3648 1 5.4851 7.17489 23.2387
1649 1 9.16333 7.34456 23.2643
2145 2 9.15011 5.59221 25.0812
2144 2 10.9346 5.33176 23.4178
2653 2 10.7736 3.70377 25.1541
3650 2 10.9381 7.18933 25.1122
3644 1 9.13065 3.65482 23.2421
530 3 14.0972 7.22525 24.9068
82 2 14.4763 5.48842 23.1654
1644 3 12.6481 3.6708 23.3528
3152 1 12.6748 5.36215 25.0835
3652 3 12.4559 7.18133 23.1666
3646 3 14.3351 3.53506 25.0896
841 3 17.8809 7.38232 24.9896
329 2 17.8229 5.62135 23.1633
83 2 16.2984 5.55521 24.9757
1651 1 16.18 7.08551 23.3871
3893 2 17.8717 3.69067 24.9588
3645 1 16.33 3.63767 23.3427
1154 2 1.9701 9.01488 25.0019
1646 3 0.113577 10.8724 24.8397
2146 1 0.0866383 8.94297 23.2921
3647 3 2.0317 10.7831 23.2065
84 2 3.74859 9.02523 23.174
1647 1 5.4863 10.806 23.1034
2148 1 7.2548 9.14248 23.3026
2147 2 5.34114 8.98442 25.0675
2654 1 3.61182 10.8106 25.1251
3651 2 7.09033 10.7294 24.9867
529 3 10.6608 10.8798 25.1361
85 1 10.6067 8.92841 23.4244
3153 2 8.9969 8.94368 25.0645
3649 2 9.05184 10.8072 23.3343
86 2 12.3895 9.05023 25.296
1652 1 14.2571 10.8247 25.0315
1650 1 12.5589 10.9074 23.3567
2149 3 14.1133 9.09392 23.2577
1155 3 15.9549 8.9547 24.9124
1835 1 17.7351 10.7668 24.8916
2333 1 18.0162 9.03991 23.1183
3653 3 15.8709 10.885 23.1547
87 1 0.303606 12.4666 23.1546
1653 2 1.89726 14.3411 23.2038
2150 3 1.9425 12.5906 25.0093
2656 1 -0.0756729 14.5054 24.9398
531 2 7.26225 14.1855 24.9236
88 1 7.1169 12.4784 23.187
2151 1 3.71804 12.4487 23.3628
3154 3 5.49782 12.2999 25.1795
3655 2 3.89689 14.3708 25.0067
3654 2 5.38075 14.1864 23.2335
89 1 8.96573 12.4361 25.1122
1655 1 10.6 14.4741 25.0362
1654 2 9.00487 14.1156 23.3969
2152 1 10.8064 12.6967 23.3371
90 1 14.1733 12.7072 23.2111
1156 3 12.4202 12.6366 24.9398
2657 1 14.1707 14.473 25.1158
3656 3 12.4401 14.4912 23.2187
337 1 17.7595 12.7977 23.1993
1656 2 15.762 14.2475 23.1456
2153 3 16.0317 12.5482 25.0907
2531 3 17.8867 14.4298 25.0098
1513 3 2.07445 18.0348 23.2046
2154 1 0.108023 16.0933 23.0485
2776 3 0.274914 17.9288 25.2021
3155 1 1.80773 16.0666 24.8154
715 1 7.19322 17.8691 24.7688
92 1 5.42879 16.1132 24.9499
91 3 3.59039 16.1081 23.1217
2155 2 7.22175 15.959 23.3034
3767 2 3.60515 17.8276 24.9877
3766 3 5.40345 17.7501 23.0604
93 2 10.6327 16.0477 23.1156
1157 1 9.07148 16.1958 24.9597
1515 3 8.97836 17.7244 23.2091
1516 1 10.6841 17.7047 24.9362
2157 2 14.3489 16.1403 23.1153
2156 3 12.4449 16.1825 24.975
2778 2 14.1451 18.073 24.866
3769 3 12.4766 17.6546 23.1074
1519 1 16.2075 17.7976 23.0929
2341 2 17.7597 16.0829 23.1303
2963 2 17.9036 18.0763 24.8639
3156 2 16.1716 16.0307 24.8696
532 3 0.168586 0.172397 28.6239
94 2 0.222119 1.92639 26.826
1158 1 1.92698 1.90524 28.591
3657 3 1.93061 0.230432 26.8103
533 1 5.53962 0.212773 26.563
534 2 7.2277 0.133015 28.3354
1159 2 3.69094 1.97471 26.6079
2159 1 7.40333 1.8495 26.7758
2658 3 3.7126 0.148268 28.6005
3157 3 5.50346 1.90866 28.4724
1160 3 8.9217 2.08664 28.4762
1658 3 9.10075 0.191031 26.684
2659 3 10.6359 0.0532312 28.5113
3158 1 10.9632 1.8311 26.9027
535 3 14.2907 -0.0886282 28.5977
97 1 14.1848 1.84934 26.8951
2660 3 12.5387 -0.128318 26.7622
3159 3 12.5835 1.84543 28.5846
845 1 18.168 0.018179 28.4518
344 1 17.9644 1.94158 26.731
1161 1 16.2459 1.96927 28.7277
3660 3 16.3535 0.144168 26.9054
536 2 1.89067 3.62464 26.6589
540 3 0.210321 7.01186 28.5439
1162 2 0.334296 5.41681 26.9169
1664 2 1.83321 7.19551 26.5316
2661 2 0.288047 3.68329 28.5389
3160 1 1.93985 5.35653 28.5434
537 2 3.74011 3.69855 28.6424
543 1 7.01276 7.26251 28.5662
1163 2 5.64606 5.43279 28.5184
1661 1 5.29868 3.71566 26.9939
2162 3 3.72755 5.46453 26.7469
2668 3 3.91635 7.20708 28.5831
2667 1 5.43122 7.21286 26.8335
2663 3 7.04847 3.67934 28.6518
3161 2 7.14892 5.3623 26.873
538 2 10.9335 3.71565 28.4775
99 3 10.7386 5.41673 26.7838
2669 2 10.7397 7.1965 28.6321
2662 2 8.86936 3.65177 26.7339
3162 1 8.97378 5.32615 28.5193
3668 1 9.03405 7.1166 26.8528
545 2 12.4481 7.17749 26.8268
546 2 14.3403 7.06131 28.4433
1165 3 14.4977 5.30866 26.6981
1164 1 12.605 5.34612 28.4548
2664 2 14.4985 3.61571 28.5098
3663 2 12.6871 3.64428 26.876
853 2 18.0437 7.26448 28.2859
539 3 16.2563 3.67118 26.6644
1349 3 17.8112 5.51052 26.7095
1670 1 16.0293 7.39604 26.9006
2536 2 18.0551 3.88793 28.3956
3163 1 16.2822 5.65139 28.5527
1166 3 1.98935 8.94519 28.4458
2165 3 0.0445363 8.99209 26.7362
2666 2 0.0600829 10.8908 28.5758
2665 1 1.90076 10.8054 26.8079
541 2 3.69604 10.7556 28.6353