ITEM: TIMESTEP
5000
ITEM: NUMBER OF ATOMS
4000
ITEM: BOX BOUNDS pp pp pp
1.2680785702702480e-01 3.5607252142972918e+01
1.2680785702702480e-01 3.5607252142972918e+01
1.2680785702702480e-01 3.5607252142972918e+01
ITEM: ATOMS id type x y z
563 3 0.223115 0.343171 0.106313
1064 3 2.02869 1.77556 0.137542
1563 1 1.8045 0.0147186 2.05445
2064 3 0.107427 1.78772 1.84501
1 1 3.67184 1.82286 1.88253
565 3 7.21802 0.208092 0.124133
2065 2 7.03691 1.89762 2.03056
2565 3 3.60492 0.103215 0.11928
3064 3 5.45651 1.76804 0.145052
3564 2 5.54246 -0.0191839 1.92539
2 2 10.6341 1.91335 1.86847
1066 2 8.89663 1.88942 0.241881
1564 2 8.85636 0.171542 1.82995
2566 3 10.6362 0.143812 0.266879
567 2 14.4246 0.233655 0.112122
2066 1 14.4276 2.01277 1.68957
3066 2 12.5203 1.79889 0.122021
3565 3 12.5172 0.257506 1.80507
751 1 17.7451 0.315043 0.293409
1068 2 15.9817 1.98106 -0.0335391
1565 3 16.1419 0.259311 2.00126
2001 3 18.0152 2.18866 1.97377
3 3 0.0245391 5.26208 2.09337
573 3 0.133708 6.97997 0.300419
1568 3 1.84404 7.07754 2.03564
2569 2 0.295316 3.56539 0.127538
3068 1 2.16729 5.34473 0.160027
3566 1 2.02137 3.64321 1.91568
4 1 7.21405 5.49883 1.77042
569 3 3.83286 3.63872 0.257463
577 2 7.17045 7.22702 0.154442
1070 1 5.43529 5.31566 0.0171259
1566 1 5.46138 3.77352 2.03482
2067 2 3.68149 5.35626 1.97506
2576 3 3.65967 7.17215 0.313963
2571 2 7.21905 3.62305 0.212876
3570 3 5.50397 7.28028 2.04431
570 2 10.7129 3.51664 0.112826
1570 3 9.0245 7.41572 1.87367
2068 1 10.7716 5.42741 1.7648
2578 2 10.7823 7.13162 0.211812
3070 2 9.04357 5.48691 0.100473
3567 2 8.95078 3.57613 1.83009
5 2 14.2882 5.58324 1.9537
581 3 14.3152 7.36429 0.294926
1072 1 12.7222 5.67821 0.0177703
1567 2 12.535 3.77936 1.89148
2573 2 14.1501 3.72703 0.212917
3572 3 12.5843 7.08195 2.08876
253 1 17.9912 5.69632 1.95044
761 2 17.9751 7.34584 0.184767
1572 3 16.1164 7.18588 2.09478
2819 1 17.8939 3.7173 0.259571
3072 3 16.174 5.50175 0.162986
3568 3 16.214 3.70738 1.88084
1074 2 1.7293 8.88326 0.117651
2069 1 0.0197512 8.92616 1.99173
2574 1 0.161674 10.5169 0.0475271
3569 2 1.60883 10.6713 1.92059
6 1 3.4321 9.03344 1.96807
575 3 3.39952 10.7659 0.180647
1569 3 5.23164 10.7266 1.84817
2070 1 7.18931 9.09836 2.00334
2579 2 7.25875 10.777 0.276436
3074 3 5.44254 9.01067 0.221235
7 1 10.7979 8.97885 1.81721
578 3 10.7916 10.7679 0.113635
1076 2 8.96065 9.17236 0.175997
3571 2 9.27627 10.9073 1.99968
1571 2 12.6814 10.9772 1.9272
2071 1 14.4955 9.01005 1.94462
2582 3 14.4607 10.8089 0.0979515
3076 3 12.5951 9.04268 0.0936487
1078 1 16.1268 9.00671 0.305761
2006 1 18.0201 8.99088 1.91232
2825 2 17.9543 10.6502 0.107851
3573 1 16.2961 10.8006 1.71542
8 1 -0.0845574 12.5171 1.90438
583 2 0.080023 14.3831 -0.0111598
1573 1 1.77377 14.4846 1.65945
3078 1 1.61572 12.4485 0.137404
9 1 7.36656 12.4401 1.87541
585 1 7.15572 14.5169 0.07159
1080 1 5.36339 12.5418 0.196909
2072 3 3.46982 12.353 1.89132
2585 2 3.67387 14.4593 0.0850288
3574 1 5.37522 14.1722 1.9448
1574 3 8.97709 14.4111 2.00546
2073 2 10.7674 12.6418 2.01243
2586 1 10.731 14.385 0.239555
3080 1 9.00963 12.4885 0.0998842
10 3 14.4535 12.6519 1.8896
587 1 14.384 14.4493 0.245408
1082 3 12.5465 12.653 0.053772
3575 1 12.579 14.2236 2.03186
258 2 18.042 12.6216 1.80506
771 2 18.1121 14.4271 0.151943
1575 3 16.2411 14.4388 1.87188
3082 1 16.2395 12.5514 0.0552915
626 1 -0.00214182 17.9135 0.0732606
1084 2 1.78599 16.1625 -0.0520408
1688 3 1.74657 17.903 1.76687
2074 3 0.0893646 16.122 1.81551
11 3 3.62672 16.1138 1.92702
630 3 7.15351 18.0506 0.196512
2075 1 7.07203 16.1077 1.81888
2691 1 3.63071 17.8972 -0.0981013
3084 1 5.47279 16.1411 0.19885
3690 3 5.41217 17.9022 1.95413
12 2 10.9238 15.9322 1.9728
1086 2 9.11085 16.1134 0.121645
1690 2 9.17815 17.7892 1.86565
2693 3 10.732 17.9644 -0.049479
634 3 14.2953 17.9468 0.176277
2076 1 14.4103 16.0866 1.8792
3086 2 12.625 16.1651 0.0824844
3692 2 12.2615 17.8033 1.92817
876 2 17.9622 17.9474 0.115453
1088 1 16.3497 16.3271 0.0398187
1692 3 16.1679 17.9683 1.93252
2011 2 17.9535 16.3482 1.9309
13 3 0.100933 1.96826 5.48408
588 1 0.0810439 -0.0347791 7.28913
1089 3 1.96066 2.06293 7.12589
2564 1 -0.0566513 -0.0328346 3.59625
3063 1 1.93621 1.83334 3.56493
3576 3 1.9398 -0.0059711 5.49446
14 1 7.09942 1.87996 5.47788
564 3 3.71728 0.0521585 3.71063
1065 2 5.40462 1.94075 3.7294
1577 3 3.68871 0.0402211 7.38709
1576 1 5.43452 -0.064548 5.56007
2078 2 5.41779 1.75395 6.94192
2077 1 3.65357 1.8021 5.59539
2589 2 7.28228 0.138932 7.14614
2567 1 7.16944 0.0531273 3.79441
566 3 10.7461 0.0744124 3.56936
2079 2 10.9988 1.8853 5.34098
3065 1 8.91762 2.00152 3.76748
3088 3 8.9368 1.87952 7.16703
3578 3 10.8611 0.206749 7.21921
3577 2 9.11246 0.052006 5.43337
15 3 12.5236 2.09663 7.07415
16 2 14.3384 1.99818 5.50327
589 1 14.3448 0.120293 7.18072
1067 2 12.5969 1.90045 3.54817
1578 1 12.4677 0.0356166 5.59179
2568 3 14.3725 0.322327 3.63672
263 1 17.8226 1.9716 5.39685
776 1 17.7554 0.0872558 7.40058
1090 3 16.2446 1.79792 7.41953
2815 2 17.942 0.337706 3.82027
3067 1 16.0753 1.90683 3.8138
3579 2 16.1767 0.187132 5.35891
568 1 0.177779 3.56633 3.83172
1069 1 1.82097 5.25175 3.83823
1580 2 0.0315306 3.74021 7.27641
1579 1 1.93724 3.71411 5.54067
2081 3 1.84113 5.5464 7.20745
2080 1 0.0929768 5.49844 5.56723
2591 2 -0.035497 7.3607 7.2236
2575 3 0.104343 7.23244 3.69554
3583 3 1.81697 7.23022 5.40876
17 1 3.73963 5.58199 5.48079
571 2 7.15785 3.71895 3.73602
592 3 7.41137 7.24222 7.22552
576 2 3.59487 7.24178 3.65682
1585 2 5.32856 7.13559 5.36548
2082 1 7.10925 5.53193 5.48244
2590 3 3.83741 3.60765 7.07526
2580 3 7.24067 7.40107 3.76292
2570 2 3.59307 3.58624 3.58817
3069 3 5.47207 5.45316 3.71535
3089 3 5.66766 5.51719 7.27164
3586 3 3.80477 7.37926 7.20995
3581 3 7.2609 3.77439 7.10842
3580 1 5.52268 3.62514 5.45056
18 3 10.8774 5.65875 5.3377
19 2 9.05021 5.53938 7.13576
590 3 10.7841 3.88981 7.03719
579 1 10.7787 7.23476 3.58925
1071 2 8.76614 5.56606 3.62619
1587 1 10.8061 7.23206 7.22177
1581 1 9.0242 3.64514 5.44259
2572 2 10.7354 3.75411 3.65077
3587 3 9.16998 7.30917 5.43168
572 3 14.2647 3.6979 3.65377
1091 3 12.573 5.54157 7.16311
1589 1 12.7736 7.5019 5.35739
1583 1 14.5235 3.73347 7.2299
2083 3 14.2503 5.55179 5.46121
2593 1 14.2792 7.40709 7.21146
2583 2 14.3475 7.31783 3.65192
3071 2 12.6768 5.60064 3.758
3582 1 12.3646 3.73223 5.33581
757 3 17.8405 3.7029 3.6366
1073 1 16.0432 5.49865 3.75323
1768 3 17.8803 3.63345 7.31327
1582 2 15.9872 3.64298 5.56235
2084 2 16.0979 5.48347 7.35018
2017 1 17.7093 5.30108 5.47312
2841 3 17.8873 7.154 7.18241
2826 3 17.8725 7.40053 3.75877
3589 2 16.2357 7.41825 5.36432
20 3 0.00975655 9.04815 5.45426
574 3 -0.0211295 10.8051 3.7269
1584 1 1.78859 10.8852 5.34332
3073 1 1.6531 9.06869 3.86833
3090 1 1.84335 9.05403 7.01069
3584 3 0.0274327 10.7748 7.2498
21 2 5.40208 9.0513 7.06222
22 1 7.25078 9.18283 5.51226
591 1 3.60497 10.8541 7.14341
580 1 7.22527 10.9271 3.64799
1075 1 5.27457 8.85737 3.60565
1588 2 7.09076 11.0694 7.23725
2085 1 3.75609 8.99274 5.28784
2577 1 3.80379 10.6815 3.66546
3585 2 5.32212 10.8701 5.35797
1092 1 9.01495 9.0781 7.2064
1586 2 9.03588 10.8045 5.59561
2086 1 10.7523 9.059 5.47966
2592 2 10.9134 10.7943 7.24082
2581 2 10.7723 10.9454 3.79256
3075 1 9.11518 9.09311 3.57145
23 2 14.539 9.12607 5.40991
582 3 14.4352 10.7987 3.66403
1077 1 12.5046 9.16741 3.55246
2087 1 12.6376 9.01684 7.30966
3590 1 14.2842 10.8781 7.11796
3588 2 12.5462 10.7132 5.45851
270 2 17.8689 9.02265 5.54034
764 2 17.8591 10.9165 3.51638
1590 3 16.1741 10.8231 5.42318
3091 2 16.0876 8.98898 7.27139
3077 1 16.2821 9.09627 3.64388
3835 1 17.9045 10.7715 7.22659
24 3 1.81096 12.5178 7.08887
593 1 0.188478 14.3449 7.23811
1079 3 1.85644 12.5025 3.47671
2088 3 0.0517978 12.5874 5.36136
2584 2 0.164268 14.2364 3.47436
3591 1 1.70926 14.2504 5.45087
25 2 3.55796 12.5792 5.38
584 3 3.46765 14.3949 3.47948
1093 3 5.33948 12.5938 7.11659
1592 2 3.65749 14.2267 7.15015
1591 1 5.44911 14.1919 5.32338
2089 1 7.22835 12.4301 5.38303
2594 2 7.17682 14.2703 7.1194
2587 3 7.25092 14.2883 3.77266
3079 2 5.42575 12.5098 3.44999
26 3 10.913 12.6545 5.45917
586 1 10.8381 14.5098 3.79982
1081 1 9.1642 12.6356 3.75885
2090 2 8.97757 12.6291 7.34104
3593 2 10.923 14.4086 7.13152
3592 2 9.02828 14.3603 5.56206
594 2 14.3068 14.3182 7.11561
1593 1 12.7845 14.3537 5.26332
2091 3 14.5688 12.5586 5.35679
2588 2 14.3991 14.4272 3.58728
3092 2 12.5607 12.616 6.95765
3081 2 12.6637 12.6003 3.83518
27 3 16.1533 12.6203 7.03893
781 2 17.8722 14.4432 6.98954
1083 1 16.1864 12.5431 3.53617
2025 2 17.7094 12.6085 5.30608
2835 3 17.8568 14.3462 3.5214
3594 1 16.082 14.4836 5.34439
28 2 0.150545 15.9859 5.16302
651 3 0.21256 17.8183 7.12076
1094 1 1.92342 15.8366 7.04665
2690 1 0.192409 17.935 3.59108
3083 3 1.89694 16.2185 3.44373
3701 2 1.6245 17.7667 5.3337
29 3 7.23902 16.1675 5.33087
629 1 3.57739 17.957 3.68569
1085 3 5.36966 16.0191 3.71001
1704 3 3.59757 17.7958 7.21456
1703 1 5.38062 17.8255 5.60844
2093 1 5.42364 16.0021 7.09324
2092 3 3.51198 15.8832 5.20734
2715 2 7.16517 17.6863 7.32413
2695 2 7.30748 17.9807 3.67533
632 2 10.8236 17.8542 3.76909
2094 2 10.5922 16.1411 5.57888
3093 2 8.89759 16.1587 7.30702
3085 1 9.0145 16.3212 3.60156
3704 2 10.6793 17.9001 7.30229
3703 3 8.89888 17.9193 5.63747
30 1 12.7273 16.0722 7.04742
31 1 14.4843 16.308 5.21752
653 2 14.4614 17.8619 7.2672
1087 1 12.6473 16.3201 3.67174
1706 2 12.5997 17.8489 5.42205
2698 2 14.2928 17.9162 3.50424
278 1 17.8508 16.2019 5.46401
901 1 18.0518 17.8998 7.22413
1095 1 16.0557 16.1251 7.30549
2878 2 17.976 18.1171 3.70543
3087 3 16.1084 16.2484 3.66156
3707 3 16.1867 18.0231 5.48425
1594 2 1.7795 -0.0183241 8.85736
2095 3 0.0916595 1.87504 9.09231
2595 1 0.156823 0.347391 10.8209
3094 2 1.98955 1.88748 10.7435
33 3 7.15237 1.9662 8.83932
595 2 3.58929 0.200015 10.7417
1096 1 5.42132 1.90947 10.7731
2597 1 7.3459 0.177051 10.8612
2596 3 5.56439 0.0125073 9.02019
3095 2 3.7482 1.89257 9.02239
596 2 10.7849 0.0492618 10.5868
1097 3 10.8397 1.95293 8.88562
3096 1 8.97321 2.04466 10.7741
3596 3 9.05585 0.185343 8.87394
597 3 12.497 0.219152 8.9465
1098 2 12.395 1.81842 10.7669
2098 1 14.2732 2.08896 8.9675
2598 1 14.337 0.260483 10.7935
1597 2 15.7812 0.209516 9.05933
2032 2 17.9578 1.7849 9.06256
2845 1 17.7427 0.229182 10.8483
3097 3 16.0704 2.06908 10.6877
598 1 0.285368 3.69458 10.6212
1099 3 1.98159 5.46935 10.6849
2603 1 0.0619819 7.29301 10.5871
2599 1 1.99051 3.57294 8.82071
3098 3 0.0581442 5.50109 8.82904
3602 3 1.8946 7.30798 8.87953
36 3 3.60339 5.43166 8.8969
605 3 3.76294 7.21916 10.6801
604 1 5.52314 7.41447 8.97935
600 1 7.25816 3.63725 10.5339
1100 3 7.42628 5.41888 8.86805
2606 2 7.2756 7.22296 10.7894
2600 3 3.76741 3.71241 10.6748
3099 2 5.65487 5.53057 10.8036
3599 3 5.47563 3.77522 9.09798
606 2 10.8023 7.2008 10.8958
599 3 9.11384 3.72607 8.90404
1101 1 9.00033 5.32219 10.7179
1605 2 9.12099 7.20368 8.98812
2100 1 10.9077 5.85478 8.98197
2601 1 10.641 3.60941 10.8194
601 1 13.9883 3.73253 10.6811
1600 3 12.3349 3.77509 8.91451
2609 1 14.2857 7.25711 10.932
2608 2 12.6067 7.30803 8.8919
3101 3 14.2943 5.68918 9.01247
3100 3 12.3958 5.44541 10.7592
786 2 17.9819 3.62266 10.8405
1102 2 15.966 5.32917 10.7566
2853 1 17.8926 7.22196 10.9405
2602 2 16.0249 3.82185 9.0027
3348 1 17.8051 5.47302 8.93747
3608 1 16.2297 7.29855 9.16339
39 2 0.250472 9.0257 9.00582
603 3 0.119789 10.7133 10.6599
602 3 1.77335 10.8196 9.00049
3102 1 1.87215 8.87711 10.6735
607 3 7.31542 10.7551 10.7455
1104 1 5.53242 9.08191 10.7247
1103 3 3.52724 9.09855 9.0076
1603 3 5.34562 10.8012 8.92877
2104 2 7.44046 9.09965 8.8241
2604 2 3.64891 10.8874 10.7475
2607 2 10.7088 10.8556 10.7327
2605 1 8.85538 11.0324 8.95291
3104 3 9.12223 9.00532 10.7848
3103 1 10.6743 9.08815 8.91843
42 3 14.31 9.03621 9.01318
609 1 14.2967 10.9381 10.6458
1105 1 12.475 8.99506 10.7419
3606 3 12.5264 10.8164 8.9617
289 2 17.9801 9.06212 8.92313
792 1 18.0389 10.7922 10.6462
608 3 16.1345 10.7729 8.79784
3105 3 15.9547 9.08986 10.9916
1107 2 1.83331 12.5761 10.7952
1106 1 -0.0339395 12.6408 9.06211
1609 2 1.89448 14.3646 8.92273
2610 2 0.0955409 14.2543 10.9318
610 3 3.47038 14.31 10.7099
2107 1 3.44867 12.5949 8.91935
2612 3 7.22542 14.3593 10.7539
2611 1 5.30393 14.4154 9.10415
3107 1 7.09873 12.5969 8.90034
3106 2 5.5333 12.6338 10.6277
45 1 10.8761 12.7496 8.95372
611 2 10.8015 14.2869 10.8069
1108 3 9.04728 12.6119 10.7041
3611 1 9.04443 14.3687 8.96413
612 1 12.6492 14.1505 9.08654
1109 3 14.4248 12.4999 8.83547
2613 3 14.4491 14.2882 10.7144
3108 2 12.6205 12.4742 10.9623
1293 3 17.704 12.689 8.87323
1110 2 16.3466 12.5122 10.7791
1612 1 16.1408 14.2556 8.89434
2860 3 17.9461 14.3498 10.7011
1719 2 1.87943 17.8832 9.13083
2110 3 0.211429 16.0689 9.21168
2721 3 0.0476964 17.8732 10.7631
3109 1 1.90552 16.2121 10.852
48 1 7.26884 15.8895 9.03048
659 2 3.63662 17.8793 10.6135
1111 2 5.33851 16.1507 10.8069
2724 2 7.18954 17.8409 10.8635
2722 1 5.57359 17.6875 9.04791
3110 3 3.46323 16.0164 8.7995
661 3 10.725 17.8407 10.6913
1112 2 10.8012 16.1457 8.92442
3111 1 9.29322 16.0465 10.7996
3723 1 9.02048 17.8358 9.14363
663 1 12.6533 17.7623 8.84491
1113 1 12.5718 16.0029 10.7663
2113 3 14.33 15.9516 8.97019
2727 2 14.4122 17.714 10.9122
1725 1 15.8286 17.9241 9.09165
2047 3 17.9455 16.0163 9.0804
2908 2 17.9582 17.8878 10.8101
3112 3 16.1298 15.9611 10.7521
32 2 0.2054 2.07714 12.4712
613 1 0.118575 0.233249 14.1763
1114 2 1.85219 1.95172 14.3589
3595 3 1.92135 0.108626 12.5016
34 1 7.17974 2.01191 12.6036
614 3 7.16673 0.383926 14.2527
1595 2 5.38113 0.168763 12.5739
2096 1 3.67702 1.97459 12.5712
2614 2 3.66897 0.15955 14.3605
3113 2 5.38807 1.89767 14.2127
1115 2 9.12814 1.98542 14.3104
2097 2 10.7589 1.79301 12.6326
2615 1 10.5215 0.113803 14.3326
3597 1 9.00583 0.0672296 12.6576
35 2 14.3026 2.11615 12.5588
615 1 14.3736 0.0865623 14.3516
1596 3 12.5457 0.232837 12.637
3114 1 12.6245 1.95874 14.5146
282 2 17.8399 1.86248 12.4025
801 2 17.7534 0.110965 14.1398
1116 3 16.2398 1.80386 14.1942
3598 1 15.9728 0.274338 12.4969
618 2 0.140631 7.37936 14.4044
1598 1 1.84783 3.68964 12.4677
2099 1 0.162944 5.52789 12.4289
2616 2 0.24766 3.74392 14.254
3115 3 1.95718 5.36012 14.2816
3603 3 1.85078 7.15186 12.5949
37 1 3.6739 5.589 12.2978
620 3 7.27361 7.2439 14.2186
616 3 3.58514 3.69464 14.186
1117 3 5.49238 5.46882 14.2549
1604 1 5.45132 7.28027 12.475
2101 1 7.31041 5.2766 12.6094
2620 2 3.7638 7.30311 14.2376
2617 2 7.32237 3.67743 14.3373
3600 3 5.49007 3.70939 12.4262
38 3 10.7306 5.40373 12.648
617 3 10.6885 3.65195 14.3424
1599 1 9.10654 3.63385 12.5043
2621 2 10.8884 7.36949 14.4183
3116 3 9.04007 5.49062 14.3876
3605 2 8.9714 7.14433 12.4408
622 2 14.3759 7.21506 14.4269
1118 3 12.616 5.54344 14.4076
1607 1 12.6307 7.03665 12.699
2102 1 14.4286 5.31017 12.5082
2618 3 14.2548 3.74307 14.2334
3601 2 12.3638 3.57416 12.5487
806 2 17.9598 7.26611 14.4614
1601 1 16.0882 3.70849 12.5085
2036 1 17.7198 5.3485 12.5745
2866 3 17.7679 3.61872 14.214
3117 1 15.9352 5.47513 14.4048
3609 2 16.0647 7.11747 12.5848
40 3 0.231985 8.99439 12.5764
1119 1 1.97941 8.80848 14.2609
1602 3 1.88158 10.8305 12.4972
2619 3 0.172336 10.7779 14.4647
41 2 7.27088 9.03522 12.457
619 3 3.73076 10.7518 14.3843
2103 1 3.73704 9.06418 12.5506
2622 3 7.26253 10.9021 14.2049
3118 1 5.48462 8.98358 14.3315
3604 1 5.50088 10.8267 12.5321
621 1 10.745 10.6634 14.1623
1120 2 9.09814 8.99571 14.2501
1606 1 9.01033 10.8469 12.3602
2105 2 10.7204 8.96133 12.4076
43 2 14.2786 8.93441 12.4898
2623 3 14.4343 10.7358 14.2973
3119 1 12.729 9.08549 14.3464
3607 2 12.4162 10.6481 12.4041
290 2 17.837 8.96067 12.3452
1121 1 16.153 8.77657 14.1623
1608 3 16.0749 10.7208 12.6227
2870 2 17.8476 10.8223 14.2353
623 2 0.257907 14.3649 14.285
2106 2 0.139262 12.5075 12.6225
3120 3 1.85664 12.6402 14.2536
3610 3 1.9036 14.2358 12.5514
44 2 3.62929 12.4452 12.6287
624 1 7.16265 14.3122 14.2842
1122 2 5.40004 12.68 14.2106
1610 2 5.45165 14.3797 12.3726
2108 3 7.19476 12.6198 12.3923
2624 2 3.74784 14.3988 14.199
46 3 10.8134 12.5866 12.7019
2625 1 10.8146 14.3121 14.0634
3121 3 9.07824 12.4787 14.3376
3612 3 9.0866 14.333 12.43
625 1 14.3443 14.2824 14.4404
1123 3 12.5735 12.4457 14.3142
1611 2 12.6881 14.2835 12.6014
2109 1 14.2855 12.5412 12.6927
811 2 17.8905 14.2295 14.2091
2044 2 17.9858 12.4331 12.3873
3122 2 16.2691 12.5774 14.3804
3613 1 16.2105 14.1489 12.5356
47 1 0.12538 16.0105 12.6096
676 1 0.188183 17.924 14.3793
1124 3 1.88217 16.1723 14.2535
3720 2 1.92128 17.9521 12.4667
49 1 7.1436 16.2781 12.5574
678 2 7.2826 17.8202 14.4137
1721 2 5.33011 17.819 12.7446
2111 3 3.66416 16.1585 12.5622
2740 1 3.54197 17.8483 14.3182
3123 3 5.50345 16.0438 14.2641
1125 3 9.02178 16.0722 14.3892
2112 2 10.91 16.1258 12.4848
2741 3 10.796 17.7304 14.372
3724 1 9.1352 17.7579 12.526
50 3 14.5369 15.9474 12.672
680 3 14.3074 17.8668 14.3402
1724 3 12.5576 17.6634 12.5168
3124 3 12.6662 16.145 14.2324
297 1 17.8379 16.0881 12.5659
926 3 17.9415 17.9139 14.4489
1126 3 16.0159 15.9375 14.2549
3726 2 16.2429 17.8431 12.408
1613 2 1.86117 0.411512 16.1843
2114 1 0.166396 2.10332 16.1808
2626 3 0.175349 0.283963 17.9148
3125 3 2.00593 2.00408 18.0556
51 1 3.73327 1.90686 16.1103
502 2 3.84349 0.339986 18.0152
1128 2 5.53497 1.90386 17.8518
2115 1 7.06731 1.80362 15.9715
2628 1 7.18601 0.217228 17.9536
3614 1 5.41507 0.190375 16.1929
52 2 10.7026 1.94926 16.2947
503 1 10.7809 0.09806 17.9312
1614 2 9.11235 0.281202 16.2701
3127 2 8.98329 1.96215 17.8412
1130 1 12.5241 2.03674 17.7934
2116 3 14.4699 1.84914 16.1007
2630 1 14.165 0.244396 17.7349
3615 3 12.4629 0.110845 16.1729
1615 1 16.1294 -0.0179064 16.0507
2051 1 17.9598 1.78905 16.2406
2501 2 17.7942 0.0555019 17.8665
3129 2 16.158 1.77196 17.8315
53 1 0.19059 5.48382 15.9868
506 3 0.095995 3.75502 17.9163
1132 3 1.76427 5.43398 17.8689
1618 1 1.77637 7.20645 16.1318
2636 2 0.0821452 7.11948 17.9682
3616 1 1.91018 3.65053 16.086
54 3 7.20338 5.45623 15.9544
508 1 7.31857 3.62433 17.6737
513 1 3.70757 7.28923 17.9361
1616 1 5.4941 3.69113 15.9449
2117 1 3.73101 5.54683 16.158
2640 1 7.10803 7.21379 17.7665
2632 3 3.58404 3.7509 17.9749
3131 3 5.52883 5.59427 17.9532
3620 1 5.46181 7.24368 16.0901
515 2 10.7729 7.23938 17.8408
1134 3 8.97932 5.6347 17.8317
1620 1 9.09391 7.18188 16.0187
2118 3 10.8313 5.43464 16.1457
2633 3 10.8161 3.67147 17.9818
3617 2 9.00314 3.78301 16.1507
55 1 14.3956 5.42601 16.1369
510 3 14.3472 3.69926 17.7897
1617 2 12.6631 3.61254 16.07
2644 2 14.4428 7.41858 17.8156
3133 3 12.5394 5.38691 18.0182
3622 1 12.6649 7.2508 16.0074
303 1 17.9151 5.494 16.1188
819 2 17.9889 3.60876 17.9031
1136 1 16.1229 5.54149 17.9983
1622 3 16.1039 7.28168 16.1115
2511 1 17.8946 7.11484 17.9942
3618 1 16.2224 3.57127 16.3034
511 3 0.0898063 10.768 17.8303
2119 1 0.0691445 8.88468 16.2032
3135 1 1.94806 8.92589 17.9141
3619 2 2.00889 10.7313 16.2487
56 3 3.72468 9.01397 16.1145
516 1 7.23334 10.7698 17.8693
1138 2 5.3554 9.02058 17.8864
1619 3 5.37929 10.7698 16.0774
2120 1 7.188 9.07555 16.1709
2638 1 3.61725 10.8448 17.7798
57 1 10.7774 8.97579 16.0877
2641 3 10.7288 10.8045 17.7462
3137 2 8.91648 8.92841 17.7609
3621 3 9.10551 10.7135 16.0454
519 1 14.338 10.7731 17.6842
1140 1 12.5852 9.06596 17.7204
1621 2 12.4801 10.8629 16.0797
2121 3 14.374 9.15484 16.1196
825 2 18.0644 10.6691 17.9002
2056 2 17.901 8.94786 16.0982
3139 2 16.1877 9.07902 17.8759
3623 1 16.2105 10.6674 16.1365
58 2 0.00494702 12.4962 16.0526
1142 1 1.86219 12.5954 17.8891
1623 1 2.13706 14.387 16.1549
2646 3 0.201986 14.4382 17.7421
59 3 7.13243 12.3871 16.0657
522 2 3.6051 14.4399 17.8952
2122 3 3.71273 12.646 16.0623
2648 1 7.13474 14.2387 17.8909
3141 3 5.35664 12.4417 17.8301
3624 2 5.44889 14.3769 15.9838
523 3 10.7597 14.4632 17.7267
1144 1 9.07742 12.5601 17.7038
1624 2 8.91052 14.2264 16.0434
2123 2 10.7148 12.7482 15.9433
60 1 14.4177 12.5246 16.0373
2650 2 14.4064 14.1611 17.7674
3143 1 12.4982 12.5124 17.706
3625 2 12.5718 14.3348 16.2196
308 3 18.0755 12.449 16.2052
1146 1 16.243 12.3961 17.6622
1625 2 16.2866 14.1419 16.091
2521 2 17.9808 14.3149 17.7108
1738 3 1.91446 18.1218 16.0791
2124 2 0.185793 16.1222 16.1001
2751 1 0.0409527 17.8244 18.0751
3145 2 1.96084 16.1347 17.8032
61 1 3.62936 16.1641 16.0094
691 1 3.72283 17.9557 17.9702
1148 2 5.3181 16.0762 17.7629
2125 2 7.37552 16.0888 16.2136
2755 2 7.19517 17.9718 17.8631
3740 1 5.39538 17.8774 16.1228
62 1 10.5772 16.1034 16.0993
693 2 10.839 17.9856 17.6257
1740 1 9.00512 18.0129 16.1526
3147 1 8.90624 15.9462 17.8438
1150 1 12.6313 16.0352 17.9433
2126 2 14.3108 16.0681 16.2981
2759 1 14.3619 17.8636 17.7934
3742 2 12.6852 17.846 16.0035
1742 2 16.2457 17.8228 16.1896
2061 3 17.887 16.0822 16.0086
2938 3 17.9822 17.7419 18.1368
3149 2 16.0788 16.0845 17.8705
501 1 0.175545 0.121394 21.3046
63 1 -0.0125512 2.1936 19.6117
1127 2 1.83093 1.87525 21.4018
3626 3 1.99856 0.14973 19.7352
504 1 7.26556 0.220159 21.4146
64 2 7.25481 1.96025 19.5477
1626 2 5.688 0.0983785 19.6875
2127 1 3.64696 1.82703 19.8705
2627 3 3.65952 0.116789 21.4744
3126 2 5.48311 1.71118 21.5316
1129 1 9.14884 1.91583 21.3012
2128 2 10.7317 1.68441 19.5776
2629 1 10.6671 0.0496656 21.4456
3627 2 8.95046 0.079555 19.7704
505 2 14.3802 0.170879 21.4134
65 3 14.4037 1.81275 19.827
1627 1 12.7567 0.109837 19.6252
3128 1 12.4709 1.98111 21.4505
815 3 17.8193 -0.0529595 21.4335
313 1 17.7442 1.79435 19.542
1131 1 16.0322 1.96939 21.4328
3628 3 16.1115 0.119834 19.5943
512 1 0.080439 7.42175 21.502
1628 1 1.70895 3.77025 19.7494
2129 2 0.0285241 5.58586 19.8086
2631 3 -0.0494098 3.76391 21.5735
3130 1 1.8345 5.5814 21.3923
3631 1 1.76413 7.19306 19.6477
507 3 3.56382 3.94694 21.4015
517 2 7.19364 7.33249 21.334
66 3 3.5148 5.44486 19.5618
1133 2 5.52057 5.54012 21.4533
1632 1 5.42338 7.26579 19.6941
2130 1 7.25174 5.4875 19.6695
2639 2 3.59838 7.41584 21.3857
2634 1 7.209 3.69003 21.3963
3629 3 5.40247 3.86512 19.5992
509 3 10.7523 3.7143 21.3857
67 1 10.7639 5.4085 19.5113
1629 2 8.99684 3.69464 19.5654
2642 1 10.9856 7.47825 21.5161
3132 1 8.89805 5.43422 21.3429
3633 1 9.03574 7.25608 19.8239
520 2 14.4198 7.38023 21.325
1135 3 12.5749 5.51226 21.3616
1634 2 12.615 7.33133 19.6039
2131 1 14.1519 5.45713 19.7456
2635 2 14.3035 3.6368 21.415
3630 2 12.6105 3.58947 19.7371
826 1 17.9626 7.31491 21.5055
1630 2 16.0043 3.58921 19.6401
2316 1 17.7895 5.43025 19.6876
2507 3 17.8849 3.66487 21.1983
3134 2 16.133 5.43847 21.2974
3635 2 16.0261 7.32351 19.6632
68 2 0.111066 9.05459 19.6594
1137 1 1.88439 9.08281 21.4215
1631 3 1.81858 10.7776 19.5477
2637 3 0.0456992 10.7844 21.2432
514 1 3.64053 10.9068 21.4858
69 2 7.24362 9.02168 19.6885
2132 3 3.67715 9.21759 19.6335
2643 3 7.17175 10.8725 21.3387
3136 3 5.49308 9.06652 21.3616
3632 2 5.31409 10.9159 19.7903
518 1 10.7858 10.7011 21.2807
1139 2 9.14609 9.11959 21.508
1633 2 9.01364 10.6733 19.5331
2133 2 10.7585 8.96024 19.6088
70 1 14.4418 9.02106 19.6042
2645 3 14.3562 10.8039 21.3266
3138 2 12.6578 9.00249 21.386
3634 2 12.4781 10.7455 19.4248
318 1 17.9469 9.03574 19.5639
1141 2 16.1141 8.98842 21.4579
1635 2 16.1033 10.7643 19.5291
2514 1 17.7368 10.8584 21.5179
521 3 -0.0106711 14.364 21.588
2134 1 -0.0650641 12.7376 19.3796
3140 1 1.84027 12.5323 21.2801
3636 2 1.72985 14.2909 19.6382
524 2 7.20039 14.3131 21.1664
71 2 3.54692 12.7735 19.5701
1143 2 5.51426 12.7101 21.3226
1636 2 5.53131 14.4564 19.5962
2135 2 7.39598 12.4114 19.4277
2647 2 3.68099 14.3716 21.4003
72 3 10.8656 12.5762 19.5056
2649 1 10.7246 14.3173 21.3227
3142 2 9.12269 12.5518 21.2593
3637 1 8.9762 14.4661 19.5242
525 3 14.4007 14.2604 21.2537
1145 3 12.7898 12.5861 21.284
1637 1 12.6058 14.3041 19.4499
2136 3 14.5756 12.559 19.4785
835 1 17.8132 14.1515 21.4352
2321 3 17.9276 12.474 19.6761
3144 2 16.1107 12.6168 21.4101
3638 1 16.0221 14.3602 19.5634
690 2 0.0877796 17.7882 21.4404
73 2 0.116095 16.0814 19.6153
1147 3 1.92236 16.0715 21.3086
3751 3 1.93129 17.9611 19.715
695 3 7.08751 17.9617 21.3975
74 1 7.27667 16.1313 19.7876
1502 3 5.41823 17.7895 19.6001
2137 1 3.67127 16.0757 19.5348
2754 3 3.833 17.83 21.3435
3146 2 5.46688 16.0696 21.4398
1149 3 8.9527 16.1511 21.4318
2138 3 10.6404 16.1571 19.5419
2757 3 10.803 17.7431 21.4014
3753 1 9.18591 17.8821 19.4877
698 1 14.3515 17.9582 21.3104
75 3 14.3586 16.1115 19.6487
1504 3 12.6389 17.9099 19.6645
3148 3 12.7451 16.0974 21.4115
941 1 17.9181 17.6128 21.4584
323 2 17.7907 16.129 19.6076
1151 3 16.1834 16.0099 21.5148
3755 2 16.1015 17.8539 19.6318
1638 1 1.91086 0.264472 23.2088
2139 3 0.122521 1.7952 23.1407
2651 2 0.120519 0.187144 25.0995
3150 1 2.00917 1.88872 24.9719
526 1 7.21625 0.266948 25.0291
77 1 5.53318 2.03924 24.9768
76 2 3.62821 1.96383 23.1572
2140 2 7.27574 2.07325 23.3645
3640 3 3.59438 0.181058 25.109
3639 1 5.50728 0.385986 23.5226
78 2 10.8863 1.91974 23.2645
1152 3 8.99069 2.01223 24.9819
1640 2 10.754 0.0765169 25.0638
1639 1 9.10115 0.196567 23.358
2142 1 14.1971 1.92567 23.3188
2141 1 12.5181 1.96601 25.0001
2652 3 14.4704 0.0431945 25.0101
3641 2 12.5771 0.204821 23.409
1641 3 16.1325 0.251009 23.2559
2326 1 17.8441 1.90936 23.1253
2526 1 17.8692 0.14708 24.8979
3151 3 16.1413 1.86495 25.0313
528 1 0.104682 7.19033 24.8793
80 3 2.0989 5.48727 24.8401
79 3 0.16588 5.31368 23.3979
1645 1 1.93401 7.28264 23.3053
3643 2 0.213124 3.65591 24.9705
3642 1 1.79976 3.55964 23.0617
527 3 3.6441 3.55159 25.0051
81 3 7.27238 5.52681 23.096
1153 3 5.35489 5.52265 24.9381
1648 3 3.77209 7.22851 25.1656
1643 1 7.18935 3.80057 24.9004
1642 3 5.4941 3.66814 23.0702
2143 1 3.77292 5.54982 23.187
2655 3 7.30003 7.13658 24.8379
3648 1 5.68215 7.37591 23.1855
1649 1 9.04889 7.47742 23.0485
2145 2 9.07944 5.41934 24.9693
2144 2 10.772 5.52357 23.2078
2653 2 10.8306 3.84036 24.9872
3650 3 10.8114 7.2772 24.8425
3644 2 9.15689 3.71854 23.182
530 3 14.3957 7.27782 24.8359
82 1 14.4183 5.25464 23.2073
1644 2 12.5559 3.78988 23.2065
3152 3 12.5915 5.55647 25.056
3652 3 12.8253 7.22329 23.1404
3646 2 14.3886 3.73374 25.0061
841 3 17.8465 7.15643 24.9494
329 1 17.7827 5.45929 22.9546
83 3 16.3038 5.35204 25.0502
1651 1 16.0755 7.12221 23.0881
3893 3 17.7962 3.59869 24.8454
3645 2 16.0663 3.64922 23.2187
1154 3 1.82172 9.09968 24.8897
1646 1 0.0683675 10.9423 25.0269
2146 2 0.0935123 9.06731 23.2009
3647 3 1.79636 10.8074 23.0481
84 3 3.74298 8.90363 23.2937
1647 3 5.58852 10.9185 23.1972
2148 2 7.23802 9.27332 23.0611
2147 3 5.58616 9.18889 25.0309
2654 3 3.7926 10.8752 24.8866
3651 1 7.46846 10.8437 24.8879
529 1 10.7968 10.8557 25.0707
85 2 10.8588 9.13717 23.3209
3153 2 8.90087 8.8421 24.82
3649 1 9.21766 10.8609 23.0151
86 1 12.7198 9.13842 25.0067
1652 2 14.391 10.8309 24.9429
1650 1 12.5923 10.7834 23.2817
2149 1 14.3607 9.16243 23.026
1155 3 16.0416 9.04913 24.7796
1835 1 18.025 10.6835 25.0077
2333 3 17.9241 8.93165 23.183
3653 2 16.0274 10.8085 22.9836
87 3 0.0998523 12.5886 23.2139
1653 1 2.07443 14.3906 23.2168
2150 1 1.93584 12.4911 25.0611
2656 3 0.0315147 14.2781 24.7258
531 1 7.0777 14.2989 24.9614
88 1 7.21915 12.7088 23.2
2151 2 3.61222 12.5712 23.1021
3154 2 5.5219 12.6856 25.074
3655 3 3.63027 14.3313 24.9495
3654 1 5.18916 14.3426 23.0618
89 1 9.15787 12.679 24.8125
1655 2 10.7792 14.3489 24.8594
1654 3 9.06627 14.3275 23.0798
2152 3 10.9489 12.4834 23.0425
90 3 14.5133 12.5604 23.1963
1156 1 12.6703 12.5298 24.9521
2657 3 14.4153 14.2735 25.1224
3656 2 12.5909 14.2761 23.1908
337 3 17.7757 12.5222 23.154
1656 1 16.0151 14.2271 23.1834
2153 1 16.2043 12.5217 25.0576
2531 2 17.7834 14.3368 24.9772
1513 3 1.77569 17.7973 23.2231
2154 1 0.025422 16.2611 23.2094
2776 2 0.0488063 17.8759 25.0325
3155 2 1.77693 15.9819 25.0119
715 3 7.16136 17.8471 24.9822
92 2 5.34945 16.0742 25.0472
91 3 3.70699 16.1837 23.2174
2155 1 7.11516 16.0485 23.1116
3767 1 3.45919 17.8853 25.0758
3766 3 5.52772 17.8935 23.2317
93 1 11.0976 16.07 23.257
1157 2 9.06019 16.0728 24.8763
1515 2 9.05802 17.733 23.198
1516 1 10.8202 17.7131 25.0364
2157 1 14.3815 16.1123 23.212
2156 3 12.5969 16.0116 25.0138
2778 3 14.4 17.8863 24.934
3769 2 12.6244 17.6266 23.249
1519 3 16.1088 17.87 23.0837
2341 1 17.8457 15.9282 23.2762
2963 1 17.8266 17.8093 24.913
3156 2 15.9894 16.1056 24.979
532 1 0.0277751 0.22882 28.432
94 2 0.226937 1.90384 26.6238
1158 1 2.02098 1.82075 28.3419
3657 3 1.81615 0.148537 26.7865
533 1 5.45336 0.03154 26.6128
534 1 7.3078 0.0463805 28.5318
1159 2 3.83305 1.97989 26.8381
2159 2 7.31687 1.97447 26.7737
2658 3 3.66206 0.213828 28.4466
3157 1 5.57374 1.72805 28.5061
1160 2 8.92511 2.05929 28.5156
1658 1 9.06922 0.0871387 26.6492
2659 2 10.9696 0.155778 28.5648
3158 1 10.8451 1.91381 26.7443
535 2 14.2682 0.215513 28.6204
97 2 14.2223 2.04448 26.6488
2660 3 12.638 0.109643 26.6153
3159 1 12.7336 1.82541 28.5717
845 2 17.8207 0.155689 28.608
344 2 17.9473 1.77417 26.8212
1161 2 15.8836 1.95862 28.5202
3660 3 16.0328 0.207201 26.8506
536 3 1.91781 3.70917 26.8508
540 2 0.198132 7.1985 28.5256
1162 3 0.189513 5.47693 26.7498
1664 1 1.77587 7.25589 26.648
2661 1 0.0776593 3.54944 28.4468
3160 3 1.84934 5.5239 28.5091
537 2 3.81942 3.56143 28.5443
543 3 7.23228 7.26269 28.6125
1163 2 5.3658 5.35576 28.618
1661 1 5.44008 3.54257 26.6805
2162 1 3.70405 5.43652 26.78
2668 2 3.72279 7.33307 28.4599
2667 1 5.45671 7.16267 26.8435
2663 2 7.24085 3.68325 28.6663
3161 3 7.22043 5.57781 26.7575
538 3 10.7374 3.52347 28.5474
99 2 10.9083 5.36918 26.884
2669 3 10.8438 7.17739 28.5537
2662 3 8.97226 3.94835 26.9049
3162 1 8.97492 5.47248 28.6006
3668 3 9.14224 7.00717 26.7399
545 2 12.6143 7.17913 26.7284
546 3 14.3808 7.28058 28.4331
1165 1 14.3028 5.42467 26.7898
1164 1 12.7084 5.48383 28.7128
2664 2 14.4221 3.80494 28.5022
3663 3 12.5074 3.72292 26.8835
853 2 17.6674 7.29891 28.4624
539 1 16.0819 3.72352 26.7741
1349 1 17.9079 5.55043 26.93
1670 1 16.2147 7.30477 26.6845
2536 3 17.7549 3.78753 28.5031
3163 2 15.9753 5.55369 28.6566
1166 3 1.89921 9.06973 28.3601
2165 3 0.0891244 8.98566 26.7602
2666 1 0.122588 10.8463 28.4502
2665 2 1.85968 10.9009 26.7775
541 2 3.84582 10.8675 28.5695
103 3 7.45137 9.06512 26.7532
2670 3 7.3844 10.7816 28.4242