ITEM: TIMESTEP
5000
ITEM: NUMBER OF ATOMS
4000
ITEM: BOX BOUNDS pp pp pp
7.4708379973841943e-02 3.5659351620026058e+01
7.4708379973841943e-02 3.5659351620026058e+01
7.4708379973841943e-02 3.5659351620026058e+01
ITEM: ATOMS id type x y z
3618 2 16.1407 3.47432 16.0038
1619 1 5.44351 10.6129 16.0499
2586 1 10.7285 13.8298 -0.0109302
3 3 0.00240256 5.54159 1.9834
1 2 3.67716 1.98051 1.64618
2585 1 3.65799 14.238 0.0280364
2065 1 7.23007 2.04987 1.78777
3607 3 12.607 10.7368 12.4833
2582 1 14.2872 10.6957 0.287172
1082 1 12.7977 12.5987 0.185611
2 2 10.8423 1.74224 1.86231
3098 2 0.116123 5.45059 8.92786
1622 1 16.0257 7.20712 16.1369
1126 3 16.2023 16.101 14.4392
2124 1 0.0306821 16.1624 15.9893
2066 3 14.4587 1.81937 1.86425
3119 1 12.7589 8.84392 14.2996
3135 3 1.85117 9.01756 17.8353
3565 3 12.5599 0.079024 1.81051
2044 2 18.0617 12.6212 12.521
2690 1 -0.00973335 17.9653 3.49405
764 3 17.9974 10.7323 3.73715
2623 3 14.0844 10.8273 14.3239
43 1 14.2746 8.93607 12.5208
1568 1 1.82922 7.23802 1.93137
2105 3 10.8323 8.98479 12.2574
1703 3 5.55129 17.7897 5.35108
3566 1 1.83707 3.81796 1.85642
4 2 7.25188 5.53158 1.82296
2025 2 17.9307 12.6337 5.43516
263 3 17.9324 2.00688 5.4543
1070 1 5.30778 5.41804 0.0791926
1566 2 5.53725 3.74804 1.6406
2067 2 3.52513 5.59982 1.63933
3124 1 12.5011 16.0695 14.4224
569 2 3.66544 3.65302 0.0135157
3570 2 5.46292 7.17065 1.85052
1580 2 0.379112 3.81167 7.19277
1570 1 9.1153 7.23485 2.07082
2068 2 10.8411 5.37045 2.09882
50 2 14.4329 16.0446 12.5874
20 2 -0.0176986 9.20405 5.21346
3567 3 9.11421 3.68011 1.84909
5 1 14.3524 5.47337 1.85419
3125 2 1.80606 1.85835 17.9894
3690 3 5.35343 17.7071 1.61051
1567 3 12.6497 3.66466 1.86403
613 2 0.15549 0.193014 14.3351
3572 1 12.5598 7.11622 1.76972
1606 1 9.05452 10.7164 12.4317
2088 3 0.170895 12.5721 5.22632
1572 2 16.3145 7.22897 1.83023
2112 2 10.6495 16.0841 12.4952
3692 2 12.5371 17.8057 1.73831
3568 1 16.3881 3.65066 2.07025
2616 3 0.100375 3.4312 14.4414
3622 3 12.5998 7.13007 16.1594
563 1 0.00025327 -0.0303977 0.141192
3569 2 1.67802 10.6759 1.767
6 3 3.53056 9.07522 1.86009
1125 3 9.03523 16.1268 14.3231
1569 3 5.40449 10.8569 1.67936
2070 2 7.22933 8.75758 1.76434
3123 1 5.60119 16.0528 14.2948
2835 3 18.0731 14.0591 3.68892
7 3 10.8196 8.89738 1.96912
2111 3 3.79285 16.1426 12.3589
2695 1 7.4173 18.0154 3.67809
3571 3 9.0454 10.6707 1.79551
1571 1 12.4542 10.7726 1.85692
2071 3 14.2762 8.9386 1.86828
51 3 3.71008 1.66833 16.1425
3078 2 1.76879 12.631 0.00925491
632 1 10.8324 17.9144 3.54022
49 3 7.29095 16.0424 12.6108
1120 3 9.13739 9.00084 14.1501
3573 3 16.0368 10.8143 1.8196
630 2 7.30556 17.9114 0.042534
2126 3 14.3275 16.1102 16.2669
1573 3 1.7669 14.3421 1.72336
693 1 10.7552 17.8677 17.9523
9 1 7.06564 12.5852 1.64794
278 3 17.9122 15.987 5.40708
653 1 14.1181 17.7646 7.22936
2072 1 3.50473 12.5622 1.7644
1124 3 1.99846 16.3055 14.2775
3574 2 5.40527 14.4182 1.68549
1574 2 9.06585 14.2336 1.7125
2073 1 10.8124 12.4611 1.89903
621 2 10.8897 10.7795 14.4077
2120 3 7.18284 9.09596 16.1339
10 3 14.3656 12.5644 2.00621
3613 1 16.0755 14.2569 12.7756
3122 1 16.1921 12.6119 14.374
3575 2 12.6185 14.2483 1.72046
3604 1 5.40418 10.7541 12.3475
3118 2 5.50058 8.97754 14.1729
1575 1 16.2643 14.2675 1.85194
3564 3 5.48237 0.0798216 1.86606
3576 2 1.70446 0.105192 5.06847
1692 2 15.9562 17.9259 1.65151
2109 3 14.2939 12.5425 12.5179
3701 1 1.88714 17.7786 5.13463
11 3 3.75081 16.1555 1.71185
1617 2 12.9326 3.5364 15.9903
2075 1 7.02856 16.0513 1.6331
1611 1 12.2719 14.332 12.4993
1080 2 5.26437 12.4692 0.0125959
1578 2 12.5846 0.135051 5.22349
12 1 10.9501 15.9445 1.68488
1123 2 12.6179 12.746 14.2834
1690 3 8.97351 17.915 1.65861
1688 2 1.93345 17.7867 1.63895
625 1 14.246 14.4169 14.3111
2076 1 14.339 16.1463 1.59261
3612 1 9.07604 14.1227 12.5997
1704 3 3.76174 18.08 6.94848
62 2 10.6873 16.1267 16.0276
3584 1 0.143274 10.9246 7.05634
2715 1 7.36073 17.7603 7.15038
1078 1 16.0788 8.95535 0.136703
2622 1 7.23672 10.6029 14.2435
55 3 14.2726 5.2834 16.18
1089 1 1.93178 1.82804 7.04318
3617 2 8.86665 3.58 15.9069
3063 1 1.73526 2.08097 3.55991
3121 2 8.94609 12.4243 14.3093
14 2 6.87605 1.91193 5.0548
2568 1 14.3907 -0.0280149 3.61328
1065 2 5.27948 1.9524 3.43665
2118 1 11.1063 5.25999 16.0065
1620 2 9.04295 7.19639 15.9515
2078 1 5.28176 1.73375 7.09818
2077 3 3.57264 1.77442 5.25206
2625 3 10.6658 14.3742 14.4395
3740 1 5.3206 17.7171 16.0398
3835 1 17.7028 10.7939 7.0481
2079 1 10.6582 1.75394 5.41148
3065 2 8.83615 1.85971 3.50823
3088 3 9.16036 2.07184 7.1505
1724 3 12.5946 17.7136 12.5777
58 1 0.343793 12.5208 16.0083
15 1 12.6317 1.89516 7.34786
16 1 14.2916 1.75591 5.41503
3703 1 9.09657 17.9067 5.49069
1067 3 12.5894 1.83306 3.52699
1594 2 1.8966 0.0691402 8.90008
2691 1 3.62056 17.7467 -0.0188313
2103 3 3.62121 9.06164 12.6045
619 1 3.75678 10.7217 14.5142
1090 2 16.0424 1.76707 7.23475
3620 1 5.49633 7.0259 16.3398
3067 2 16.1603 1.89818 3.79899
46 2 10.7649 12.5237 12.7042
3348 3 17.591 5.44436 8.95698
1069 3 1.9967 5.36058 3.6164
41 2 7.23048 8.84494 12.5283
1579 3 1.83513 3.68645 5.41972
2081 2 2.01515 5.50354 7.11394
2624 2 3.68988 14.0726 14.4121
2108 2 7.32848 12.3148 12.4728
2866 2 17.8899 3.44368 14.2906
3583 2 1.96756 7.15958 5.27365
17 3 3.59093 5.37645 5.29032
571 1 7.13532 3.84437 3.55586
592 1 7.14378 7.31515 7.18205
576 1 3.71324 7.23564 3.55009
1585 2 5.4302 7.22435 5.34942
2082 1 7.06451 5.48771 5.39348
2590 3 3.61628 3.56417 7.01403
2580 1 7.14592 7.16797 3.55311
2570 1 3.60152 3.58926 3.36385
3069 3 5.36688 5.49967 3.65574
3089 3 5.25801 5.41022 6.88585
3586 2 3.74192 7.30063 7.40246
3581 2 7.14923 3.6191 7.0358
3580 3 5.45926 3.73604 5.32595
18 2 10.5471 5.47543 5.38987
19 2 9.06345 5.16119 7.01941
590 3 10.8863 3.4309 7.2055
579 1 10.6706 7.25082 3.86015
1071 2 8.82881 5.34811 3.57569
1587 1 10.4789 7.12933 7.04348
1581 2 9.07916 3.58288 5.25995
2572 1 10.7041 3.61608 3.61009
3587 3 8.90046 7.25287 5.34558
572 1 14.2875 3.72361 3.7835
1091 1 12.4966 5.29801 7.2101
1589 1 12.605 7.19695 5.57017
1583 2 14.2976 3.58115 7.12418
2083 3 14.166 5.41938 5.55483
2593 2 14.2495 7.29583 7.27556
2583 3 14.3566 7.18747 3.54317
3071 3 12.4455 5.46604 3.78234
3582 3 12.4513 3.39221 5.42676
2125 2 7.36215 15.9947 15.8833
1073 3 16.0677 5.47787 3.53841
2722 1 5.5535 18.056 9.0233
1582 3 15.9174 3.68983 5.43402
2084 1 15.8103 5.44336 7.28706
595 1 3.63398 0.160265 10.7288
61 2 3.76704 16.0519 16.0537
1610 2 5.53616 14.3183 12.7248
3589 3 16.1236 7.10904 5.46605
2576 3 3.52558 7.25558 0.139423
1602 1 1.89938 10.7751 12.7185
1584 3 1.89983 10.8024 5.50355
3073 2 1.96582 9.12587 3.708
3090 2 1.78332 8.93189 7.13668
1119 1 2.01503 8.9067 14.3052
21 2 5.5653 9.11659 6.9577
22 2 7.33438 8.94817 5.33495
591 3 3.616 10.6548 7.05897
580 2 7.36603 10.7845 3.62462
1075 3 5.44548 8.98479 3.53704
1588 1 7.25026 10.6516 7.24461
2085 2 3.63047 8.86017 5.38026
2577 3 3.83212 10.8826 3.35094
3585 3 5.44435 10.7753 5.18739
1092 3 8.98448 8.9264 7.09543
1586 1 8.90847 10.7632 5.38771
2086 1 10.8401 9.32519 5.42698
2592 2 10.7759 10.7822 7.11456
2581 2 10.8281 10.7941 3.70884
3075 2 8.95963 9.09368 3.6492
23 1 14.3082 8.83735 5.45289
582 3 14.3718 10.7926 3.54268
1077 3 12.4971 8.87529 3.72089
2087 2 12.3994 9.2219 7.21129
3590 3 14.5003 10.7673 7.3064
3588 1 12.7783 10.655 5.23584
1615 3 16.0695 0.0688176 16.1683
1625 3 16.1075 14.4146 16.1515
1590 2 16.0156 10.8316 5.42673
3091 2 16.1455 8.86925 7.15194
3077 1 16.1808 8.94844 3.66732
3609 1 15.8191 7.22384 12.4823
24 2 1.85487 12.5112 7.37854
564 1 3.62415 0.0158952 3.4452
1079 2 1.97085 12.5115 3.69687
1122 2 5.53597 12.4016 14.4272
3117 3 16.0335 5.26665 14.3684
3591 3 2.08201 14.3481 5.41106
25 1 3.66408 12.5514 5.29578
584 3 3.54724 14.2527 3.42197
1093 3 5.22188 12.5288 7.29819
1592 1 3.92045 14.4407 7.23596
1591 2 5.53356 14.2557 5.43876
2089 1 7.32951 12.571 5.43045
2594 1 7.16805 14.3773 7.36024
2587 2 7.32174 14.3263 3.52078
3079 2 5.67003 12.6008 3.64614
26 1 10.6382 12.519 5.27578
586 2 10.8077 14.346 3.42604
1081 3 8.90907 12.5442 3.48739
2090 3 8.94533 12.4908 7.25231
3593 2 10.9029 14.0777 7.21703
3592 1 8.92411 14.1449 5.45697
594 3 14.1796 14.3585 7.08979
1593 3 12.4803 14.3035 5.39534
2091 1 14.2671 12.5932 5.34741
2588 1 14.211 14.495 3.5534
3092 1 12.5703 12.3921 7.02268
3081 3 12.5189 12.6115 3.6494
27 2 16.0904 12.4865 7.10624
3621 1 9.1094 10.6706 16.1452
1083 2 16.093 12.5861 3.74966
3625 2 12.4677 14.4267 15.9908
624 3 7.25589 14.1829 14.2268
3594 1 16.2096 14.4116 5.30059
597 3 12.421 0.102788 8.95572
44 3 3.65719 12.297 12.5899
1094 1 1.84729 16.2188 7.07209
60 2 14.3559 12.4836 16.05
3083 1 2.0311 16.1899 3.56193
2632 1 3.65697 3.41362 17.9048
29 2 7.21483 15.9592 5.41333
2117 3 3.61018 5.36077 16.2365
1085 1 5.68333 15.9978 3.50566
596 3 10.6275 -0.052578 10.6458
1616 3 5.34205 3.66363 16.2345
2093 2 5.63533 16.3203 7.22206
2092 2 3.73373 16.2038 5.37705
1066 2 9.2557 1.75401 0.0750221
297 3 17.7256 16.2998 12.6267
3610 1 2.02478 14.0619 12.5364
2094 3 10.7428 15.9012 5.23998
3093 3 9.17204 16.0348 7.09723
3085 1 8.95876 16.0486 3.43744
1719 2 1.81504 17.9424 8.80478
54 3 7.46404 5.4354 16.0988
30 1 12.4385 15.9454 7.31806
31 1 14.2775 16.1036 5.34552
3616 2 1.78498 3.54505 16.2522
1087 1 12.4584 15.9345 3.42949
2114 1 0.198226 1.80649 16.0923
2698 2 14.5884 17.8468 3.57707
2123 1 10.9473 12.5742 16.1888
1624 2 8.96842 14.3157 16.2641
1095 3 16.0164 16.0073 7.29733
3619 2 1.99814 10.722 16.0263
3087 3 16.202 16.0626 3.41984
1618 3 1.76376 7.20143 16.2472
622 2 14.4373 7.09422 14.3122
3120 2 1.80668 12.4939 14.4112
2036 3 17.7725 5.42938 12.5171
3094 3 1.64619 2.0177 10.5336
33 1 7.153 1.98454 8.92134
806 1 17.956 7.27856 14.4804
1096 3 5.41891 1.98206 10.4667
56 2 3.63034 8.6958 16.0335
1601 1 16.0316 3.52983 12.5177
3095 3 3.62429 1.99699 8.8268
3605 1 9.04203 7.18848 12.3806
1097 1 10.7579 1.80793 9.00024
3096 3 9.08812 1.84128 10.6178
2628 1 7.15969 0.214575 17.9914
3615 1 12.4978 0.149222 16.1184
1098 2 12.6096 1.69677 10.7617
2098 1 14.3268 1.9049 8.82748
3601 1 12.5056 3.44487 12.3891
1604 2 5.41845 7.15678 12.4237
2640 3 7.29935 7.09752 17.931
3116 3 9.14552 5.4711 14.3274
3097 2 15.9622 1.84435 10.7148
3624 1 5.53369 14.3719 16.0477
1099 3 1.74511 5.41897 10.9112
1293 2 17.8951 12.7 8.89336
2599 1 1.83689 3.73782 8.8614
659 1 3.54506 17.9653 10.784
3602 2 1.88836 7.16233 8.94298
36 3 3.73068 5.5149 8.95425
605 2 3.5629 7.417 10.6911
604 2 5.42706 7.30523 8.76641
600 2 7.37401 3.96345 10.5971
1100 1 7.30092 5.57708 8.5691
2606 2 7.21472 7.21156 10.7086
2600 2 3.74089 3.73518 10.7686
3099 1 5.65674 5.63735 10.5961
3599 3 5.39743 3.83674 8.82953
606 1 10.7771 7.19838 10.6538
599 2 9.02383 3.7769 8.9442
1101 1 9.11307 5.74898 10.8116
1605 2 8.9217 7.27978 8.93784
2100 3 10.8191 5.37358 8.88006
2601 3 10.6924 3.48664 10.7217
601 2 14.3871 3.59498 10.6693
1600 2 12.5497 3.47006 8.85468
2609 2 14.2981 7.36465 10.7391
2608 3 12.4846 7.21671 8.87116
3101 3 14.185 5.23416 8.96806
3100 2 12.5347 5.53653 10.7573
786 2 17.802 3.64533 10.8554
1102 3 16.0168 5.65369 10.9179
2122 1 3.68668 12.5438 16.0383
2602 3 15.9674 3.67465 8.80415
1614 2 8.8693 0.0083627 15.7918
3608 3 16.0464 7.2209 9.01298
59 3 7.10816 12.3033 16.2472
2619 2 0.132219 10.4966 14.3887
602 2 1.77081 10.658 8.8781
3102 1 1.7427 8.84166 10.6487
607 2 7.08511 10.7257 10.7651
1104 2 5.64633 8.84918 10.8019
1103 2 3.72741 9.09052 8.87484
1603 1 5.15345 10.849 9.02487
2104 1 7.25826 8.95358 8.74867
2604 2 3.53348 10.489 10.8885
2607 1 10.7024 10.8289 10.8226
2605 2 8.9684 10.6664 8.97376
3104 2 9.06028 9.17445 10.6892
3103 2 10.7821 9.10492 9.04009
42 1 14.4136 9.08879 8.8307
609 2 14.3263 10.891 10.7995
1105 2 12.6559 9.01011 10.6622
3606 1 12.6401 11.0397 8.98899
1623 3 1.69936 14.4899 15.8976
2618 1 14.2685 3.65633 14.0587
608 1 16.152 10.7905 9.06974
3105 1 16.1128 9.22274 10.512
1107 2 1.94699 12.3778 10.8735
3577 1 8.98619 0.272832 5.33493
1609 3 1.92527 14.4329 8.7075
1117 3 5.50174 5.48767 14.2992
610 3 3.68505 14.4182 10.6105
2107 2 3.52813 12.4689 8.96735
2612 2 7.20151 14.2789 11.0007
2611 3 5.35591 14.3501 9.12932
3107 3 7.28855 12.5325 9.21679
3106 2 5.35225 12.4923 10.7736
45 3 10.7614 12.5276 8.93024
611 3 10.6767 14.2902 10.6718
1108 2 8.99084 12.5468 10.8075
3611 3 8.99389 14.3286 9.08528
612 1 12.4828 14.095 9.05409
1109 1 14.4018 12.7268 9.15515
2613 3 14.6356 14.4246 10.7844
3108 2 12.5552 12.7175 10.7617
3623 1 15.9596 10.8062 16.0561
1110 1 16.2362 12.5267 10.9303
1612 1 16.0771 14.3144 8.89711
2102 1 14.3752 5.45133 12.5915
2621 3 10.8663 7.43611 14.1091
1564 1 9.10733 0.0802094 1.75874
1599 1 9.17515 3.94827 12.4067
3109 2 2.0204 16.1213 10.5692
48 1 7.36707 15.9593 8.97309
617 3 10.8798 3.70988 14.2805
1111 1 5.60642 16.0987 10.7015
2116 3 14.2689 1.77847 15.9822
616 3 3.8033 3.67834 14.365
3110 3 3.75097 16.2247 8.82099
614 3 7.32301 0.125795 14.1509
1112 1 10.8438 15.8571 8.90036
3111 3 9.13295 16.1013 10.7814
3595 2 1.73572 0.188354 12.5468
57 1 10.9592 8.95566 16.0002
1113 2 12.6265 16.0102 10.8144
2113 3 14.3929 16.0396 9.097
47 1 0.232795 16.0249 12.4331
38 3 10.7255 5.34798 12.4422
2121 2 14.426 8.85353 16.0999
620 1 7.40647 7.33104 14.4473
3112 3 16.1626 16.2969 10.7717
1607 2 12.5356 7.26237 12.5465
1621 1 12.5404 10.8049 16.1778
1114 1 1.92011 1.87379 14.1993
3600 1 5.48745 3.77471 12.3223
34 3 7.15554 1.96181 12.2564
52 1 10.6457 1.82267 15.9908
2636 3 -0.063814 7.12146 17.895
2096 3 3.68797 1.74076 12.5535
2617 1 7.37612 3.74466 14.2343
3113 1 5.55071 1.87248 14.1566
1115 3 9.05281 2.00258 14.1183
2097 3 10.858 1.86478 12.5046
37 1 3.66763 5.48306 12.329
2115 2 7.30052 1.83686 15.9899
35 2 14.4015 1.97906 12.3585
3603 3 1.92006 7.20727 12.5031
1608 3 16.0666 10.7761 12.5783
3114 3 12.2948 1.76433 14.202
3115 1 1.87542 5.26393 14.5453
2620 3 3.6193 7.12185 14.3709
1116 1 16.1065 1.76011 14.355
2101 1 7.19348 5.69943 12.5569
1121 3 16.158 8.80049 14.2472
1598 3 1.89164 3.65239 12.7921
1118 2 12.5866 5.45922 13.8981
513 2 3.69887 7.17854 17.784
3704 3 10.832 17.7606 7.35513
2051 1 17.903 1.82661 15.9808
2860 3 17.9146 14.4044 10.7271
2633 1 11.018 3.75545 17.6735
1596 1 12.4501 -0.0527136 12.4883
3596 1 8.8813 0.0932784 8.87258
2001 1 17.8054 1.75231 1.94385
258 1 17.9704 12.4355 1.75514
1146 1 16.1542 12.4407 17.6743
3143 2 12.6492 12.2739 17.9632
2908 2 17.795 18.0993 10.8219
2074 1 0.0404391 16.0581 1.72603
3137 2 9.17971 8.87487 17.6875
757 1 17.8359 3.96596 3.86117
1128 3 5.49414 1.78691 17.7569
3127 3 9.04722 1.8766 17.6871
522 3 3.66595 14.196 18.0235
508 2 7.38792 3.6998 17.943
661 3 10.8521 17.9163 10.7206
3723 3 9.11114 17.6433 9.05133
1595 1 5.58068 0.0437373 12.3905
2099 1 0.318125 5.35648 12.6484
282 3 17.6506 1.7309 12.5012
1106 3 -0.0232796 12.6095 8.9673
2080 3 0.0325616 5.50553 5.32718
1768 1 17.7015 3.78025 7.1645
28 3 0.279796 15.8261 5.34096
270 3 17.8941 9.07232 5.53119
3614 3 5.61979 0.1501 15.9712
519 3 14.5446 10.5976 17.794
1140 3 12.83 9.04694 18.0457
1144 3 9.12853 12.4887 17.9423
876 2 17.8158 17.8497 -0.00471748
2638 1 3.68676 10.5001 17.7799
503 3 10.7756 0.114582 17.7633
3141 1 5.45833 12.4168 18.0344
3086 1 12.5481 16.1062 0.0496945
1086 1 9.1415 15.9976 -0.0288145
3145 1 1.77368 16.0325 17.6585
2630 3 14.1635 0.145622 17.8003
510 1 14.3906 3.56407 17.7415
1064 2 1.79672 1.94139 0.168623
1136 3 16.1061 5.31513 17.8138
3066 1 12.7111 1.90528 0.0903426
2641 2 10.8718 10.4898 18.0131
1072 1 12.3405 5.44869 0.205137
2578 3 10.7747 7.05778 0.0246182
575 3 3.52986 10.8426 0.128406
2579 2 7.2441 10.4381 -0.105045
1138 2 5.54889 8.91931 17.8244
2565 1 3.75556 -0.260417 0.21071
3133 3 12.5653 5.36065 17.9889
585 1 7.20697 14.3842 -0.175181
3080 1 8.97333 12.304 -0.134336
587 3 14.4848 14.3757 0.0268816
1076 3 9.08023 8.90076 0.187235
3074 2 5.44987 8.93313 0.108126
313 2 17.9444 1.78466 19.5497
835 3 17.8989 14.2485 21.4543
1127 1 1.77578 1.68851 21.2421
3139 1 16.2073 8.7965 17.943
560 2 14.4628 10.9689 32.0492
64 1 7.18853 1.86381 19.5286
3181 2 8.95738 8.88174 32.0093
2127 2 3.55206 1.69375 19.8588
318 1 17.9218 8.89648 19.7301
3126 3 5.38143 1.54868 21.6655
1129 3 9.06819 1.94424 21.4363
2128 1 10.6358 1.99325 19.5586
2684 3 10.7793 10.5402 32.1679
3626 2 2.23697 -0.298011 19.6455
505 1 14.1522 0.259998 21.39
65 3 14.3564 1.99555 19.7446
521 2 0.328235 14.0618 21.3529
3128 3 12.5032 1.73693 21.597
2507 2 17.9289 3.7309 21.656
1627 3 12.5634 0.15925 19.6369
1131 2 16.1721 1.78771 21.6484
2183 2 10.8195 8.8309 33.8988
323 2 18.1099 16.0651 19.5674
1628 2 1.98547 3.57311 19.7903
3187 1 15.9387 16.1538 31.8148
2134 2 0.159657 12.5678 19.5641
3130 1 2.00033 5.33184 21.5973
3631 3 2.0653 7.00255 19.6838
507 3 3.67572 3.34105 21.3783
517 2 7.23103 7.12392 21.356
66 3 3.61785 5.36721 19.7097
1133 2 5.60466 5.51593 21.3555
1632 1 5.38268 7.0496 19.7133
2130 1 7.27725 5.41624 19.6575
2639 2 3.7565 7.04953 21.5559
2634 3 7.15678 3.63736 21.4941
3629 3 5.50761 3.35335 19.7624
509 3 10.8206 3.79862 21.5184
67 3 10.8269 5.19333 19.6494
1629 3 9.02166 3.62355 19.5328
2642 2 10.6841 7.36262 21.3755
3132 1 9.02486 5.36914 21.3486
3633 3 9.03833 7.29945 19.6551
520 3 14.2755 7.12624 21.342
1135 1 12.6954 5.48201 21.54
1634 2 12.6136 7.20339 19.6519
2131 2 14.3873 5.55002 19.5252
2635 2 14.372 3.92816 21.3976
3630 3 12.7484 3.65711 19.5739
826 2 17.8931 7.2798 21.549
1630 2 16.123 3.54548 19.6905
73 2 0.0219111 15.8538 19.5046
1683 3 8.94513 10.5855 33.7308
3134 2 16.2853 5.5287 21.4341
3635 2 16.2185 7.2946 19.7273
1188 1 12.4532 16.0314 32.1048
1137 3 2.0885 8.91879 21.4653
1631 3 1.80054 10.6569 19.5717
2637 3 0.0582762 10.748 21.4261
514 1 3.93262 10.6177 21.4469
69 2 7.28603 8.8618 19.5662
2132 3 3.81549 8.81878 19.6429
2643 1 7.21382 10.8092 21.3904
3136 1 5.42131 8.79637 21.4955
3632 3 5.38848 10.5388 19.5951
518 1 10.8404 10.8239 21.3914
1139 2 8.96519 8.94734 21.3682
1633 3 9.20384 10.7653 19.6558
2133 1 10.7334 8.97547 19.6649
70 2 14.4295 8.90682 19.9124
2645 1 14.5401 10.8707 21.3416
3138 1 12.5213 8.69614 21.563
3634 2 12.8301 10.7491 19.8059
125 1 14.3654 16.1623 33.5956
1141 3 16.0772 9.02953 21.6513
1635 1 16.2072 10.8144 19.6696
3682 2 5.39141 10.5325 33.7574
2321 1 17.9288 12.5839 19.6371
3186 3 9.12721 16.1767 32.0223
3140 3 2.00193 12.2864 21.5218
3636 3 1.83009 14.2408 19.4636
524 3 6.98561 14.3774 21.3834
71 1 3.69949 12.5275 19.672
1143 3 5.39134 12.5136 21.4107
1636 3 5.30745 14.1952 19.6306
2135 3 7.21626 12.5868 19.5397
2647 3 3.5757 14.4428 21.2764
72 1 10.9524 12.5099 19.5861
2649 1 10.8172 14.4642 21.4944
3142 1 9.17044 12.4943 21.4663
3637 2 9.08984 14.3561 19.7918
525 2 14.4706 14.3513 21.5079
1145 2 12.4911 12.5576 21.409
1637 2 12.5365 14.3427 19.6812
2136 1 14.3285 12.7097 19.6654
2188 1 10.7187 15.9301 33.7174
2631 3 0.227315 3.55266 21.3261
3144 2 16.1624 12.5232 21.3109
3638 2 16.1573 14.2754 19.8401
2682 2 3.69488 10.6458 31.9357
741 2 10.8522 17.8431 32.0507
1147 2 1.72869 16.0537 21.2921
512 1 0.0295799 7.11235 21.3376
2514 1 17.986 10.8243 21.462
74 1 7.15333 16.0295 19.627
2182 1 3.73145 8.93751 33.7398
2137 1 3.58768 16.0539 19.5108
1182 1 5.35853 8.8967 32.0819
3146 1 5.40656 16.2479 21.4522
1149 3 9.32752 16.3364 21.3677
2138 2 10.8804 16.1816 19.6845
501 3 0.0686425 -0.0905845 21.353
119 1 7.22756 9.01629 33.7651
559 2 7.22653 10.6585 31.9793
75 3 14.2347 16.11 19.7562
3180 2 1.94807 8.99365 31.9913
3148 2 12.6849 16.1624 21.5572
3643 2 0.113471 3.46164 25.1323
68 1 0.167477 8.83691 19.7471
1151 3 16.0742 16.1428 21.5923
1681 2 1.79066 10.6568 34.0462
1638 1 1.64058 -0.0570231 23.2862
526 2 7.23091 0.0579342 25.163
695 2 7.18998 17.9009 21.2315
3150 2 1.80159 1.79445 25.0823
751 3 18.0181 0.064459 35.778
77 2 5.44359 1.72331 25.0917
76 1 3.7163 1.74386 23.3275
2140 3 7.21609 1.76164 23.3275
1639 1 9.05521 0.248434 23.3119
3685 2 15.9838 7.11984 34.1409
78 3 10.8643 1.93842 23.2789
1152 3 9.22332 2.03007 25.0749
120 3 14.1601 9.09549 33.9454
556 1 0.165196 10.4957 32.1386
2142 2 14.237 1.98387 23.2541
2141 1 12.7016 2.05726 24.9884
1658 3 9.13819 0.212237 26.9619
1646 3 0.18355 10.8142 24.9725
1680 3 15.9494 3.64218 33.9699
2187 1 3.7665 15.8797 33.6011
1181 2 16.1854 5.48414 32.2412
3151 3 16.0933 1.89665 25.026
528 3 0.164241 7.07486 24.9575
80 1 1.87878 5.10662 25.1378
3893 2 17.7969 3.62469 25.1274
1645 3 1.96804 7.24469 23.2859
3129 2 15.9757 1.99356 17.9163
3642 3 1.90351 3.55091 23.3372
527 2 3.5851 3.58988 25.0135
81 2 6.98599 5.41609 23.236
1153 3 5.31305 5.32699 25.031
1648 2 3.6835 7.08708 25.1741
1643 3 6.98481 3.63142 24.8411
1642 2 5.28616 3.42066 23.2826
2143 3 3.83502 5.42813 23.1134
2655 1 7.04847 7.07574 25.2099
3648 1 5.39107 7.16681 23.25
1649 1 8.86074 7.07681 23.3233
2145 2 8.93198 5.3943 25.0174
2144 2 10.6567 5.18996 23.3506
2653 2 11.0202 3.64943 25.2644
3650 2 10.71 7.02895 24.9633
3644 1 9.0533 3.71456 23.2346
530 3 14.4366 7.20639 24.9753
82 2 14.4763 5.53119 23.1441
1644 3 12.7953 3.72182 23.1411
3152 1 12.6437 5.5081 24.995
3652 3 12.4852 7.06623 23.237
3646 3 14.4084 3.6597 25.0684
1187 2 5.27224 16.0516 32.0598
124 3 7.32064 15.8667 33.5109
83 2 16.1266 5.43235 25.0333
1651 1 16.1852 7.24166 23.1712
2129 3 -0.0477283 5.42578 19.7006
3645 1 16.2527 3.71039 23.2141
1154 2 1.87739 8.88407 25.1546
825 2 17.8785 10.8603 17.8452
2341 2 18.0109 16.1029 22.9923
3647 3 1.95335 10.4852 23.2865
84 2 3.7386 8.9507 23.3097
1647 1 5.50858 10.8434 23.4625
2148 1 7.24604 9.0136 23.2644
2147 2 5.28476 8.95725 25.4363
2654 1 3.83058 10.749 25.0171
3651 2 7.24997 10.8414 25.0625
529 3 10.7798 10.7514 24.8882
85 1 10.5694 8.94755 23.0403
3153 2 8.91061 9.011 25.2267
3649 2 8.94275 10.6325 23.0485
86 2 12.6752 9.05095 25.0354
1652 1 14.2543 10.7965 25.0764
1650 1 12.5772 10.8195 23.1121
2149 3 14.2474 8.75444 23.1927
1155 3 16.3107 8.90267 25.1197
3185 2 1.80974 15.9672 31.9351
2536 2 17.9508 3.73897 28.7076
3653 3 16.1001 10.5278 23.468
3688 1 16.2203 14.3392 33.6854
1653 2 1.84459 14.3902 23.2094
2150 3 1.85725 12.5523 24.8361
2561 2 17.9344 14.2212 31.9968
531 2 7.2155 14.5965 24.9184
88 1 7.11029 12.7809 23.0872
2151 1 3.83484 12.7573 23.2241
3154 3 5.62622 12.7843 24.9295
3655 2 3.72864 14.4042 25.0223
3654 2 5.45268 14.3981 23.1664
89 1 9.07978 12.2624 24.6965
1655 1 10.6928 14.4957 25.224
1654 2 8.92323 14.4431 23.0502
2152 1 10.6725 12.6769 23.0779
90 1 14.526 12.6095 23.1874
1156 3 12.4788 12.5424 24.9036
2657 1 14.113 14.1807 24.9484
3656 3 12.4515 14.2087 23.1532
1186 3 16.074 12.6126 32.0175
1656 2 16.15 14.3664 23.1746
2153 3 16.1723 12.4812 24.9876
3184 2 12.4218 12.3883 32.0488
2659 3 10.8045 0.0933261 28.6488
2688 3 14.1893 14.1316 32.0732
2186 1 14.2389 12.4952 33.8302
3155 1 1.69289 16.0619 25.0047
1183 2 12.6242 8.9587 32.197
92 1 5.37756 15.882 25.0958
91 3 3.58317 16.2159 23.0724
2155 2 7.05209 16.2195 23.0201
3680 3 12.7823 3.54909 33.8861
87 1 0.130707 12.5963 23.1542
93 2 10.7433 16.168 23.1138
1157 1 8.95381 16.2948 24.702
3179 2 12.8003 5.17423 32.2338
2784 3 3.53062 17.8787 28.5087
2157 2 14.2017 15.9386 23.3377
2156 3 12.2294 15.9902 24.9923
2685 1 14.4516 7.27327 32.2704
2181 3 14.511 5.37124 34.007
337 1 17.9688 12.3443 23.2741
1687 3 12.5411 14.2384 33.8172
1684 3 12.703 6.99759 33.7548
3156 2 16.4956 15.9764 24.9177
3687 3 8.91722 13.9932 33.8326
552 1 10.8677 0.264121 32.1058
1158 1 1.64263 1.87958 28.596
2165 3 0.204579 9.09453 26.8949
841 3 17.9277 7.13682 24.9017
555 1 14.412 3.53685 32.04
1159 2 3.63997 1.75195 26.858
2159 1 7.19299 1.73245 26.8054
3683 3 9.09248 7.03804 33.8986
3157 3 5.49273 1.79577 28.6551
1160 3 8.87115 1.80234 28.745
2371 1 17.7557 12.5954 33.9862
626 1 0.123756 17.9929 35.5191
3158 1 10.648 1.94808 27.0747
2680 1 10.7205 3.57892 32.1673
97 1 14.2277 2.02747 27.0753
1679 2 9.11076 3.53312 33.8857
3159 3 12.4692 1.86638 28.5948
1349 3 17.9154 5.699 26.972
2352 3 17.9676 8.85157 26.9372
1161 1 16.1251 1.85822 28.7136
2154 1 -0.141337 15.7594 23.1176
536 2 1.51862 3.48982 26.943
1185 2 8.94695 12.4172 32.0349
105 2 0.151002 12.461 30.4996
1664 2 1.72455 7.13344 26.7142
1150 1 12.6589 16.2095 17.8662
3160 1 1.63175 5.27297 28.5727
537 2 3.65613 3.34654 28.5597
543 1 7.17934 7.01696 28.7559
1163 2 5.36112 5.28209 28.6869
1661 1 5.52361 3.56775 26.8922
2162 3 3.61965 5.13757 27.0219
2668 3 3.52487 6.91722 28.4914
2667 1 5.46422 7.08333 26.9676
2663 3 7.2837 3.58204 28.608
3161 2 7.1782 5.32099 26.7174
538 2 10.7047 3.43123 28.7185
99 3 10.6837 5.46749 26.9822
2669 2 10.7875 7.15448 28.6215
2662 2 8.93906 3.79225 26.8072
3162 1 9.03586 5.22098 28.7756
3668 1 9.2885 7.05489 26.9165
545 2 12.4326 7.01279 26.8328
546 2 14.2401 7.35059 28.523
1165 3 14.5108 5.51289 26.8334
1164 1 12.2709 5.29157 28.6724
2664 2 14.3291 3.66442 28.757
3663 2 12.4614 3.76153 27.1727
2660 3 12.4499 0.22328 26.8139
539 3 16.0918 3.70471 26.9587
2786 3 10.7089 17.8624 28.5336
1670 1 16.1522 7.22357 26.9829
122 1 10.7697 12.3775 33.6909
3163 1 16.1025 5.4147 28.6929
1166 3 1.63919 8.9442 28.843
562 2 10.8357 14.3153 32.2081
3183 2 5.35427 12.4106 31.9603
2665 1 1.81608 10.8695 26.7043
541 2 3.54268 10.65 28.6418
103 3 7.26393 9.06524 26.918
2670 2 7.23513 10.8642 28.4162
3165 2 5.38569 8.9752 28.5616
3164 2 3.43677 8.52229 26.953
3666 1 5.16392 10.7969 26.8943
542 2 9.18364 10.7604 26.8632
544 3 10.8337 10.7935 28.6256
1168 3 8.89324 8.98683 28.636
1167 1 10.8706 9.07247 26.8162
1668 2 12.5696 10.8859 26.6866
2168 3 14.361 8.97695 26.7294
2672 3 13.9526 10.8142 28.5018
3166 1 12.4198 9.02481 28.4202
1169 1 16.1364 9.20481 28.619
2687 1 7.06234 14.3069 31.8868
2671 2 16.2313 10.7247 26.9257
3782 3 1.87146 17.8186 26.6938
547 1 0.0939056 14.3397 28.6207
3168 3 1.87752 12.5363 28.6326
2185 1 7.09681 12.2737 33.7136
3672 3 1.88277 14.4479 26.7756
548 2 5.47516 14.1631 26.9871
549 1 7.24445 14.3829 28.5028
106 1 3.61343 12.4058 26.824
1171 3 7.41171 12.5851 26.7079
1170 2 5.36079 12.4626 28.439
2673 1 3.70933 14.2656 28.6194
1673 2 9.0184 14.3941 26.5189
2171 3 10.7678 12.5785 26.7997
2674 2 10.5256 14.5028 28.379
3169 2 8.92092 12.6694 28.6325
550 3 14.3056 14.4942 28.4673
1172 1 12.4885 12.5629 28.5278
2675 2 12.6378 14.3203 26.7834
3170 3 14.2838 12.6897 26.867
1686 3 5.42692 14.1121 33.7318
1088 2 16.1615 16.2039 35.4858
3171 1 16.1277 12.4619 28.6019
3675 3 16.0621 14.0594 26.76
121 1 3.78929 12.4892 33.5504
561 1 3.58488 14.1806 31.8498
1173 2 1.70808 16.0729 28.7339
1180 2 9.04122 5.30283 32.3746
2686 1 -0.0838112 14.1712 32.171
117 2 10.8764 5.06998 34.033
1174 1 3.65027 16.1473 26.7822
2174 1 7.01607 16.2428 26.6493
845 1 17.9518 0.0491441 28.776
3172 3 5.33794 16.2081 28.7075
1175 2 8.97532 16.1505 28.4621
558 1 10.9249 7.18513 32.1209
3679 2 5.35842 3.7001 33.7973
3173 1 10.5458 16.1189 26.8384
3178 3 5.5488 5.37078 32.076
112 1 14.3959 15.8812 26.4989
2679 1 3.53183 3.65292 32.1718
3174 3 12.4101 16.2399 28.3257
2360 3 18.1056 16.0873 30.2785
535 3 14.3127 0.21877 28.5713
1176 1 16.1638 16.0813 28.6853
2146 1 0.0667221 8.89056 23.3394
3769 3 12.5598 17.6895 23.3861
2345 2 17.6784 1.78811 30.394
95 2 3.48747 1.89984 30.374
2160 1 7.25002 1.9463 30.4684
2683 3 7.14847 7.13707 32.105
96 2 10.8859 1.82246 30.423
3072 2 16.1139 5.38442 35.8357
2161 2 14.3015 1.87929 30.553
2180 3 7.12844 5.43201 33.8409
123 1 0.150201 16.0549 33.9469
1835 1 18.0567 10.8521 24.9742
98 3 -0.112889 5.60897 30.5269
1665 2 1.8504 7.0775 30.3703
3661 2 1.71008 3.61565 30.4513
100 2 7.30452 5.04843 30.6929
1662 1 5.48609 3.34327 30.2851
2163 1 3.67907 5.48994 30.2944
3667 1 5.49276 6.9632 30.3674
1667 1 8.93072 7.02849 30.6801
2164 2 10.7695 5.42305 30.7461
3662 1 9.12711 3.4789 30.5313
101 3 14.4656 5.42265 30.3815
1663 2 12.5036 3.59193 30.4394
3670 3 12.6121 7.15703 30.4427
3686 3 1.95154 14.3034 33.6912
1671 2 16.0096 7.4161 30.4077
3664 2 16.2625 3.64844 30.4324
2333 1 17.9277 9.11374 23.2755
3665 1 1.90133 10.9034 30.34
102 1 3.70807 8.68976 30.2923
1666 1 5.48955 10.7808 30.2648
2167 2 7.0565 8.85128 30.2942
104 3 10.9053 9.03338 30.1476
3669 1 8.98327 10.65 30.3737
1669 2 12.4292 10.8525 30.2549
2169 2 14.1502 8.95601 30.4029
2353 3 17.842 9.09259 30.6272
3671 1 16.0003 10.6813 30.2921
740 3 3.52133 17.8015 32.1718
1672 2 1.85851 14.243 30.2251
107 3 7.24838 12.5494 30.2884
2170 2 3.54657 12.373 30.3393
3673 3 5.56418 14.113 30.2263
1674 2 9.198 14.2173 30.4316
2172 2 10.5293 12.5168 30.3368
108 2 14.3173 12.4886 30.2831
3674 2 12.365 14.2576 30.0793
1640 3 10.8845 0.0783073 25.0658
1675 3 15.912 14.2903 30.2389
1504 3 12.4938 17.8856 19.6329
1184 2 1.71719 12.3962 32.2878
110 2 3.5921 15.9794 30.3486
2175 3 7.16161 16.1053 30.28
3147 2 9.21526 16.1056 17.8525
111 1 10.695 16.2078 30.2378
515 1 10.9486 7.29922 17.8713
2176 2 14.2695 16.1763 30.2169
1682 2 5.37774 7.27401 33.9427
1068 1 16.1432 1.6619 35.716
3640 3 3.46655 -0.0345244 24.9461
1162 2 0.117701 5.36601 26.7457
3182 3 15.8297 8.94913 32.1441
3175 1 1.85111 1.67055 32.2096
3788 3 16.2192 17.8526 26.6842
2693 3 10.7009 17.8501 35.5708
114 1 7.11668 1.61693 33.8382
1177 1 5.18867 1.87343 32.1438
116 3 3.6516 5.33623 33.8996
2177 1 3.63553 1.83368 34.1513
557 2 3.68335 7.21041 32.0832
554 1 7.24752 3.49482 32.4157
2178 2 10.6872 1.82536 33.848
3176 2 9.03532 1.58216 32.0939
533 1 5.24707 0.0310384 26.9735
115 3 14.5855 1.96168 33.8886
1178 3 12.7051 1.89978 32.203
870 2 17.9002 10.9612 32.3124
3681 1 1.96512 7.30422 33.7033
1685 2 16.0022 10.8071 34.0344
853 2 17.8364 7.19815 28.729
3177 2 16.1717 1.97781 32.1034
540 3 -0.0732695 7.15368 28.474
113 2 0.0750948 1.66771 34.1374
1179 3 1.84141 5.39407 32.0649
1678 1 1.8997 3.53205 34.1326
3684 2 12.5698 10.7306 33.9186
2681 2 0.143204 7.25297 32.235
722 2 5.06605 18.0087 26.8307
3639 2 5.4674 -0.110752 23.5482
553 2 0.174026 3.46138 32.2781
3784 1 5.4159 17.9636 30.408
2542 3 18.101 10.8774 28.5179
532 3 0.117547 0.0374226 28.5856
1532 2 1.836 17.7689 30.4437
1074 3 1.62461 9.04237 35.6843
1536 1 9.09555 17.8997 30.2798
1554 1 12.4914 17.9014 33.8588
1538 2 16.094 17.767 30.2215
2658 3 3.41572 0.151667 28.7688
551 1 3.54259 0.219045 32.2689
2166 1 -0.105211 8.9891 30.387
504 1 7.33021 -0.0516843 21.5368
3767 2 3.72463 18.0285 25.1266
721 3 0.0417698 17.9729 28.5587