ITEM: TIMESTEP
5000
ITEM: NUMBER OF ATOMS
4000
ITEM: BOX BOUNDS pp pp pp
1.2936391510458378e-01 3.5604696084895600e+01
1.2936391510458378e-01 3.5604696084895600e+01
1.2936391510458378e-01 3.5604696084895600e+01
ITEM: ATOMS id type x y z
1 2 0.10624 1.85542 1.9713
1563 1 0.189176 0.0503002 0.0560244
2064 3 1.82401 1.89464 -0.0175686
3561 2 1.90857 -0.00602483 1.88037
564 2 3.74838 1.92069 1.8801
565 1 7.0439 1.94374 1.80085
1565 3 7.20165 0.212231 0.00644403
2065 2 3.73177 0.0581533 0.155035
3061 3 5.33605 1.89278 -0.0167242
3562 1 5.45136 0.179682 1.84171
566 2 10.6805 1.97418 1.80718
1070 1 10.795 0.274503 0.0751213
3063 1 8.82705 0.289552 1.86794
3062 2 8.99039 1.7729 0.0284434
567 3 14.3873 1.83943 1.93913
2566 3 14.3516 0.176205 0.0264717
3064 2 12.524 1.83801 -0.0434813
3563 3 12.5386 0.276751 1.89067
2 3 17.785 0.166337 0.130663
3 2 16.0903 0.0590539 1.90011
3066 3 17.7518 1.9544 1.7687
3065 3 15.9876 2.00025 0.212238
4 2 1.9583 5.53073 0.22066
5 2 2.01399 3.67153 1.96824
6 1 1.98312 7.25128 1.93989
1071 2 0.20534 5.4807 1.97421
3067 3 0.273091 3.61433 0.250961
3565 2 0.203507 7.19887 0.208934
7 1 5.3941 5.4918 0.295756
8 1 3.62546 7.3968 0.199282
1072 2 7.1666 5.62475 1.87613
1075 3 5.38589 7.33782 2.02111
1074 1 3.50213 5.46623 1.84989
1567 1 7.23121 7.3235 0.0776754
2570 3 7.22977 3.72195 -0.044917
2569 3 3.56058 3.70164 0.0209292
3569 3 5.36526 3.68242 1.83474
9 2 9.00094 5.43682 0.150785
10 3 8.92323 3.707 1.97761
1077 2 10.7043 7.35653 0.31392
1076 3 10.8847 5.46179 1.82662
1568 1 9.11336 7.18579 1.93427
3068 3 10.5934 3.70535 0.110715
11 3 12.6805 5.5034 -0.00377836
12 2 14.2871 3.64242 0.00449668
570 2 12.461 3.62877 1.63899
1571 1 14.3063 7.17848 0.0780285
1570 3 14.2346 5.4447 1.95893
1569 1 12.5797 7.31631 2.00791
572 2 16.1449 3.6745 1.83936
1081 1 16.2263 7.24778 1.71222
1079 2 17.9933 5.37742 1.9106
1078 2 16.1146 5.48602 0.0920071
1573 3 17.998 3.76572 0.14318
2070 2 17.958 7.18884 0.20243
575 2 1.96235 10.7786 2.0594
1082 3 1.85265 8.94897 0.363993
1574 1 0.0997168 8.84059 2.20607
3070 3 0.0925537 10.7904 0.207611
576 3 3.58023 10.7069 0.0992118
1085 3 5.39039 9.04544 0.176748
1083 1 5.25011 10.8512 2.07348
1577 3 7.20947 10.8229 0.290814
1576 3 7.2232 8.89961 2.02575
1575 2 3.81869 9.09242 2.07709
14 1 10.5403 10.7792 0.246037
1087 1 8.9266 10.7476 2.02686
1086 3 8.78763 8.92986 0.274257
2071 2 10.8354 9.18496 1.85479
580 3 12.4938 10.8765 1.79928
1088 1 14.4529 10.7332 0.0743318
2073 3 12.5741 8.98244 0.116145
2074 2 14.3107 8.96767 1.90645
15 3 17.9366 9.07401 1.7456
1581 2 16.2053 10.7009 1.88837
2076 1 17.8032 10.8665 0.223391
2075 3 16.2814 9.0359 0.0897798
2079 2 1.94428 12.5583 0.108934
2078 1 1.918 14.3078 1.89814
2077 1 0.201342 12.5968 1.93238
2572 2 0.179031 14.2647 0.0812436
2082 1 5.34887 14.283 1.98427
2081 2 3.49992 12.5823 1.88195
2080 3 5.39448 12.3768 0.154488
2576 2 7.06703 14.4176 0.264112
2575 3 7.09377 12.59 2.06812
3071 3 3.73796 14.235 0.20425
1583 2 8.98498 14.4367 1.96332
2084 1 10.6982 14.4712 0.143066
2579 2 10.5988 12.7856 1.77062
3073 3 8.9974 12.6095 0.203472
2085 2 12.5947 14.4217 1.85083
2580 3 14.3919 12.5836 1.87526
3074 1 12.5512 12.6019 0.12123
3574 3 14.3174 14.4142 0.0182532
581 1 17.798 12.6028 1.81738
1089 2 17.9215 14.4213 0.0922612
2583 3 16.1761 14.3773 1.73082
3075 2 16.1061 12.5745 0.0859668
16 3 0.136397 17.8273 0.293953
2086 3 1.96834 17.8242 1.89822
2584 2 0.143795 16.2097 2.03661
3076 1 1.84465 16.1218 0.055341
17 2 5.25094 16.0723 0.0480085
1090 2 3.63077 17.9094 -0.00505787
2585 2 7.11215 17.581 0.342743
3079 2 5.25863 17.8541 1.89445
3078 1 7.09168 16.0855 2.01308
3077 1 3.6786 16.0194 1.84804
18 2 8.97726 16.0791 0.0307884
1585 1 10.8149 17.7943 -0.0393465
3080 3 10.7718 16.0537 1.86463
3578 1 8.77849 17.6741 1.9217
19 3 12.4828 16.0432 0.0969053
2088 2 14.0862 17.7143 0.140705
3081 3 14.3443 16.1017 1.95348
3581 1 12.4451 17.8211 1.89601
20 1 16.1608 16.1836 0.103095
1586 3 17.9915 16.0166 1.89971
3083 1 15.9499 17.842 1.98808
3082 3 17.9691 17.7758 0.202306
584 3 1.89139 1.83164 7.24211
1564 2 0.0954851 0.155473 3.79039
2588 3 1.8563 0.183019 5.55807
2563 1 1.84645 1.78263 3.46088
3084 1 0.0953491 0.182737 7.19067
3583 1 0.180409 2.00697 5.44484
22 3 5.38385 1.90943 7.2926
1069 3 3.76106 -0.0039244 3.54208
1566 1 7.08494 0.133653 3.59255
2089 2 5.45014 0.107688 5.29465
2590 1 3.7757 0.0709261 7.14387
2564 1 5.45824 2.01881 3.53957
3085 3 7.12057 0.205725 7.03095
3585 3 3.57167 1.81373 5.4706
3584 2 7.01863 1.87688 5.32368
586 2 9.08679 2.00229 7.25948
2066 2 10.7832 0.12143 3.59661
2593 3 9.02898 0.348577 5.20982
2565 1 8.81599 1.76881 3.42707
3086 1 10.8175 -0.0566243 7.3276
3586 1 10.701 1.97028 5.36728
23 2 12.4342 1.88125 7.06324
24 1 14.268 0.19201 7.29875
25 3 14.3407 1.89237 5.4794
2568 2 14.3105 0.0184924 3.67351
2567 2 12.5949 1.92277 3.58764
3087 2 12.5186 0.360846 5.43665
568 3 17.8353 0.235786 3.63032
588 1 16.1869 1.96011 7.11214
1587 1 17.9258 0.0984031 7.35375
3088 2 16.2167 0.058261 5.42958
3588 3 17.984 1.95767 5.48916
3564 3 16.2452 1.9415 3.69002
27 2 1.98746 5.26622 7.272
28 3 2.03316 7.13304 5.49653
589 3 0.107002 5.42898 5.61089
2067 1 0.130914 3.76124 3.94045
3090 3 1.91406 3.54219 5.34591
3590 3 0.145402 7.47383 7.13634
3589 3 0.0684709 3.71799 7.24578
3567 2 0.0918391 7.14007 3.7728
3566 2 1.92946 5.43028 3.70862
29 2 3.77852 3.69875 7.3462
593 3 3.7954 7.21051 7.16479
592 3 7.24197 5.32104 5.44131
591 1 7.34453 7.15777 7.09359
590 3 3.69419 5.54826 5.42
1095 2 5.45725 5.45049 7.18606
1094 3 5.61957 7.10093 5.371
1073 2 3.67065 7.25735 3.74322
2068 2 7.15824 7.23821 3.68446
2069 3 3.70594 3.52296 3.60058
3593 2 5.43743 3.74242 5.48505
3592 1 7.07376 3.70474 7.29408
3570 1 5.4509 5.4936 3.62423
3568 2 7.23078 3.63305 3.58603
31 2 9.05366 3.49199 5.26016
569 2 10.9845 7.15211 3.68141
594 2 10.5939 5.52245 5.59528
1097 1 8.98884 5.24054 7.30026
1590 1 9.0272 7.05445 5.53198
1589 3 10.7628 7.08202 7.48931
3594 3 10.8086 3.75876 7.2704
3572 3 10.8686 3.79722 3.69017
3571 3 8.89882 5.53072 3.62028
33 1 12.572 3.60032 5.37532
35 2 14.2776 3.75862 7.11876
571 2 12.4699 5.4201 3.74924
595 2 14.3594 7.16255 7.14535
1100 3 14.3991 5.40783 5.35687
1099 1 12.6435 5.33471 7.12029
1592 3 12.4699 7.09166 5.46075
1572 3 14.3199 7.14631 3.60002
3069 1 14.3109 3.63762 3.61585
573 2 16.1751 5.47019 3.68237
1080 1 17.8444 3.82485 3.73889
1595 2 16.159 7.12375 5.43689
1594 1 16.1331 5.45589 7.12604
2094 2 18.0162 7.33891 7.23527
2092 3 17.9179 3.72233 7.29916
2571 3 17.9388 7.1106 3.64151
3092 2 17.8778 5.44689 5.48595
3595 2 16.1758 3.76188 5.5548
13 3 0.145216 10.8393 3.6641
597 2 0.0648696 10.704 7.27469
596 2 1.84325 10.8471 5.45054
574 3 1.98531 9.00919 3.7519
1102 3 1.83902 8.9744 7.19878
1101 3 0.0394369 8.9172 5.31386
38 1 3.67879 10.6399 7.23745
578 2 3.63181 10.8684 3.76777
577 1 5.3988 9.00864 3.8074
1106 1 7.31453 10.6884 7.08065
1104 2 5.35836 10.9117 5.46107
1103 1 3.68878 9.00227 5.4586
1084 2 7.22259 10.88 3.71433
1597 1 7.36709 9.11146 5.46233
1596 1 5.42273 8.86043 7.1612
39 3 10.8117 10.7676 7.10964
599 2 9.06385 10.8595 5.23178
579 1 10.7901 10.6013 3.562
1107 2 9.05817 8.98536 7.1056
1578 1 9.10352 8.754 3.61142
2097 2 10.6582 8.9048 5.24361
1108 1 12.5738 10.8368 5.47186
1598 1 12.4316 9.01479 7.20118
1579 2 12.7104 9.08644 3.75343
2072 1 14.3379 10.7665 3.53123
2099 1 14.4556 10.6614 7.19735
2098 1 14.3513 8.85008 5.45439
1599 1 16.206 8.95854 7.22618
1580 3 16.08 9.01538 3.56322
2100 3 16.0782 10.5703 5.38942
3093 2 17.9497 10.9592 7.07439
3597 3 17.8151 8.9812 5.44504
3573 3 17.9415 10.8905 3.656
1110 1 0.0631174 14.2167 7.3432
1582 1 1.87326 12.6259 3.68724
2103 1 2.02194 12.3304 7.20031
2102 3 1.87978 14.2994 5.53964
2101 2 0.146879 12.6124 5.52209
2573 1 0.354896 14.3018 3.814
1112 2 7.20525 14.225 7.281
1600 3 5.38421 12.5335 7.25968
2104 2 5.47827 14.2667 5.38346
2083 1 3.47656 14.274 3.86101
2601 3 7.21997 12.563 5.45606
2600 2 3.60979 12.4228 5.57223
2599 3 3.66982 14.2933 7.16302
2577 2 7.14262 14.392 3.67585
2574 1 5.33185 12.6012 3.78763
2604 3 9.06615 14.246 5.56549
2603 3 10.6616 14.4252 7.12832
2602 3 10.8009 12.5117 5.29564
2578 3 8.97535 12.5603 3.64573
3097 2 8.90102 12.4676 7.10946
3072 3 10.6243 14.267 3.68512
602 2 14.3448 14.1977 7.25326
1603 3 12.5871 12.4091 7.28796
2605 2 14.3699 12.3628 5.37951
2581 1 12.6066 12.5232 3.50308
3098 3 12.4251 14.1726 5.39642
3575 1 14.2197 14.2574 3.7349
1114 1 17.8016 12.6182 5.39662
1584 2 17.857 14.2745 3.5268
2582 3 16.0762 12.6585 3.70167
3100 3 16.0437 14.3107 5.46157
3099 1 15.9929 12.4439 7.23891
3599 1 17.8966 14.0792 7.15814
582 2 0.163383 17.981 3.63151
1605 2 1.81192 17.7853 5.45251
1604 3 1.87249 16.0709 7.28199
3104 3 0.0945848 16.1483 5.50304
3103 2 0.146577 17.8733 7.34896
3576 1 1.93828 16.2066 3.71795
2087 1 3.57767 17.8328 3.69518
2607 3 5.47938 17.6524 5.5968
2586 3 6.91676 17.7294 3.74835
3107 3 7.19926 17.8527 7.33583
3106 2 5.43787 15.988 7.2673
3105 3 3.7106 17.7273 7.44753
3602 3 3.71482 16.1184 5.46762
3601 1 7.22176 15.8057 5.34456
3577 1 5.26108 16.0474 3.71006
1091 3 10.6981 17.9286 3.59779
2107 2 8.98706 16.0332 7.24139
2608 3 8.81223 17.7659 5.40011
3109 2 10.7071 17.693 7.13517
3603 2 10.6947 16.0858 5.44621
3579 3 8.95712 16.199 3.73151
41 1 14.1635 15.975 5.53927
2610 2 12.3521 17.8064 5.5245
2609 2 14.137 17.6821 7.19444
2587 3 14.258 17.8909 3.71746
3604 1 12.4295 16.1187 7.26471
3580 2 12.5573 16.1629 3.80969
583 3 16.2489 16.1252 3.59467
1606 1 17.9139 17.8109 7.21902
2109 3 15.9219 16.0487 7.2
3112 2 16.0763 17.8164 5.4336
3110 1 17.8685 15.9367 5.44426
3582 3 17.9402 17.8485 3.72286
21 3 0.0901012 1.88956 9.072
604 3 0.226873 0.116293 10.7107
2110 2 1.94436 2.02116 10.7819
2589 2 1.9915 0.194072 8.91295
585 2 7.13332 1.81873 8.94246
1092 2 5.52923 0.00335514 9.1261
1608 1 7.24882 0.195982 10.7708
1607 3 3.49059 0.0835805 10.6873
2111 3 5.26287 1.69614 10.873
2591 2 3.65048 1.88288 9.00476
1116 1 10.6705 0.0764189 10.8634
2612 3 8.88505 1.92939 10.7938
2592 2 10.776 1.97852 9.1012
3587 3 8.92583 0.232062 9.00179
587 1 14.238 2.04595 8.84956
1609 2 14.2539 0.215838 10.7375
2090 1 12.6636 0.192553 9.01027
2613 2 12.469 2.02565 10.7868
26 3 15.9586 0.177506 8.97442
2594 3 17.8091 2.01018 9.0652
3116 3 15.9436 1.92513 10.6195
3115 2 17.8698 0.13767 10.7549
1093 1 1.98239 7.14127 8.88025
2091 2 2.11358 3.66712 8.97994
2615 3 0.119348 3.70817 10.8315
3118 2 0.177789 7.23505 10.7204
3117 2 1.95341 5.5356 10.7571
3089 3 0.147681 5.58115 8.91136
30 3 5.50243 3.68595 9.12941
45 1 7.20916 7.22601 10.8535
1096 1 3.62777 5.59249 9.22743
2112 1 7.13834 3.54899 10.9423
2616 3 3.65816 3.58121 10.9654
3091 2 7.35287 5.3194 9.14885
3608 1 3.77038 7.23665 10.7347
3607 3 5.43285 5.45328 10.8166
3591 3 5.53327 7.21729 8.91557
46 2 10.8723 7.22911 10.5915
1098 1 10.7386 5.38156 9.0929
1591 1 8.82958 3.56192 9.03729
1588 1 8.86597 7.23791 9.11439
2113 3 10.7202 3.63316 10.7189
3609 1 8.98585 5.45165 10.85
32 3 12.5745 7.36207 9.01915
34 2 12.4779 3.54711 8.91977
36 3 14.1593 5.53071 9.12876
609 1 14.5142 7.28792 10.9264
3119 3 14.3654 3.77067 10.8273
3611 1 12.449 5.5306 10.6809
1120 3 17.8105 3.71898 10.7157
1615 2 17.8207 7.25368 10.5699
1593 3 17.7576 5.45695 8.88968
2093 2 16.0828 7.23069 8.99289
2595 1 16.0218 3.8988 8.7829
3612 2 16.1012 5.50228 10.7836
48 1 1.91274 8.97099 10.8533
2095 2 0.255507 8.87058 9.01961
2596 2 2.02364 10.7074 8.98071
3120 2 0.148637 10.6448 10.8727
37 3 3.67061 8.8428 9.01023
49 2 5.53753 8.87257 10.6876
612 3 7.21847 10.5322 10.718
1105 1 5.67053 10.615 8.84481
2096 1 7.39847 8.96025 8.84098
3121 2 3.77255 10.7365 10.7109
613 3 9.12983 9.12395 10.6948
598 1 10.8703 9.12116 8.97718
3613 1 10.8399 11.0034 10.8651
3596 1 9.09295 10.8184 8.9191
50 1 14.5122 10.6773 10.7974
614 1 12.6691 9.03248 10.7896
2598 1 12.4108 10.7008 9.02825
2597 1 14.515 8.9098 8.85549
51 3 17.8826 10.5438 10.7621
600 2 18.051 9.09187 8.78974
1122 2 16.1519 8.93849 10.6505
1109 2 16.193 10.6014 8.93788
616 2 0.175581 14.3657 10.6464
601 3 0.0211279 12.3258 8.96933
1123 3 1.84508 12.4159 10.8824
3094 3 1.87801 14.2427 8.8203
1124 1 5.37405 12.4128 10.8329
1111 3 5.46739 14.2568 9.07203
1619 1 7.28017 14.3809 10.9402
1618 3 3.64358 14.2854 10.9705
1601 1 7.33924 12.3381 9.01067
3095 2 3.64991 12.723 8.9971
617 3 10.8278 14.458 10.4966
1125 3 9.04034 12.6449 10.8008
3096 1 9.0069 14.3719 8.99892
3598 2 10.8434 12.5575 8.98353
1126 1 14.2967 14.2438 10.7978
1113 3 12.5955 14.3506 8.9331
1620 3 12.6391 12.6312 10.7267
1602 3 14.4197 12.4114 9.06355
1621 3 16.2475 12.5038 10.8142
3126 3 17.8254 14.4908 10.7645
3102 1 15.8324 14.3585 9.06107
3101 3 17.9019 12.4699 9.06355
1623 3 0.261186 17.7867 10.6456
2119 3 2.00489 16.1604 10.7963
2606 3 2.00923 17.7706 9.09535
3600 2 0.0464848 16.0966 8.87236
40 2 7.21388 15.9387 8.97493
619 2 3.73133 17.9715 10.9465
1127 1 7.18137 17.7676 10.7196
2120 1 5.52259 16.158 10.7888
2106 1 3.74536 16.0297 9.03439
2105 3 5.42403 17.8973 9.16101
1624 3 10.7738 17.9552 10.7482
2108 1 10.6531 16.2789 9.00308
2625 2 8.9959 16.2457 10.565
3108 2 8.93406 17.9443 9.01581
603 2 14.2026 16.0654 8.98822
1115 2 12.3886 17.7944 8.94303
2626 2 12.5903 16.1083 10.5639
3620 2 14.1462 17.8183 10.8384
2628 3 15.9031 16.1514 10.8759
2611 1 17.8342 16.0566 9.00754
3127 1 17.8085 17.7719 10.902
3111 3 15.968 17.8206 8.9714
42 1 -0.0737348 1.96737 12.4396
2121 1 0.0129545 0.216106 14.297
2629 1 1.78607 1.92486 14.3574
3113 2 1.74374 0.295373 12.502
43 1 3.65627 1.80133 12.5448
605 1 7.11609 1.86387 12.6104
1625 3 7.05653 -0.00125314 14.3716
2123 3 3.63375 0.0484938 14.334
3128 1 5.36911 1.84877 14.287
3605 3 5.41102 -0.0489901 12.657
606 3 10.744 1.97823 12.6583
1627 1 10.6641 0.106944 14.2731
3129 2 8.90339 1.86291 14.6501
3606 2 8.85708 0.247091 12.5361
1117 1 14.4108 1.60869 12.4771
2632 3 14.4336 -0.113964 14.4844
3131 3 12.6719 1.93201 14.3949
3114 3 12.3083 0.13477 12.581
44 1 16.1002 0.189804 12.3366
501 2 17.9885 0.16176 14.2577
2614 2 17.8224 1.87273 12.4214
3132 1 16.0948 1.77034 14.325
607 1 1.8379 3.67857 12.861
1119 1 1.81251 7.13434 12.6143
1118 3 0.0714387 5.4021 12.5206
2634 1 -0.025674 7.07266 14.3718
2633 2 -0.0294497 3.71963 14.2192
3624 3 1.97508 5.42246 14.3851
60 3 7.29766 7.1646 14.4377
608 1 5.44062 3.79559 12.6672
1612 1 7.28369 5.4809 12.779
1611 2 5.45778 7.21405 12.5426
1610 1 3.70013 5.54198 12.5968
2128 1 7.22898 3.78655 14.346
2126 3 3.79816 3.64017 14.5013
3136 1 3.6986 7.27265 14.4046
3626 3 5.32941 5.4658 14.4496
1613 1 10.683 5.3793 12.6929
2114 3 8.95319 7.21767 12.4183
3137 3 10.7469 3.58208 14.4373
3629 2 9.08767 5.60526 14.3322
3628 3 10.8412 7.30743 14.3105
3610 1 9.0365 3.64265 12.5029
610 1 12.5086 3.64007 12.6042
1614 1 14.2285 5.47956 12.5286
2617 3 12.542 7.0986 12.5364
3138 3 14.3703 3.61461 14.3722
3631 3 14.3389 7.09848 14.1567
3630 3 12.6308 5.33063 14.4811
47 1 17.8994 5.45699 12.6176
65 2 16.049 5.43652 14.3262
1138 1 17.8895 3.49919 14.32
1121 2 16.0671 3.80316 12.6517
2618 3 16.3436 7.3572 12.605
3140 2 17.9264 7.34667 14.1717
67 1 1.87818 8.84043 14.2962
611 1 2.06441 10.69 12.5019
2115 3 0.136079 8.88421 12.5916
2636 3 -0.0217953 10.6364 14.3638
69 3 7.08197 10.8284 14.3718
70 2 5.53997 8.87735 14.273
1616 3 5.45129 10.5731 12.445
2116 1 3.65777 9.06246 12.346
2619 3 7.33182 9.02729 12.6109
3633 1 3.8686 10.7167 14.3219
71 1 8.85013 9.01463 14.4161
2117 3 9.06169 10.9282 12.511
2620 3 10.769 9.08666 12.3263
3141 1 10.8209 10.7358 14.2614
510 2 12.5946 9.12993 14.482
1617 1 12.6096 10.7672 12.5071
3122 1 14.447 8.88517 12.615
3635 1 14.3019 10.8616 14.2105
511 3 16.0928 8.98347 14.4923
615 3 17.8799 9.10242 12.4878
1639 3 17.8857 10.7518 14.4095
2118 2 16.1219 10.8492 12.7193
513 1 -0.0103324 14.3248 14.3627
514 3 1.8786 12.4522 14.4221
2621 1 0.02154 12.4175 12.7147
3123 3 1.73505 14.1939 12.7196
72 1 7.28887 14.4258 14.0631
515 3 5.46142 12.5478 14.201
516 2 3.50535 14.2151 14.2923
3125 3 7.18316 12.5677 12.4527
3124 2 3.60964 12.3982 12.6284
3614 3 5.45716 14.2639 12.5065
73 2 10.8379 14.3955 14.3743
1145 2 9.1308 12.5694 14.3002
3616 3 10.8339 12.7379 12.4676
3615 3 9.13509 14.3553 12.4848
1147 1 12.4584 12.5404 14.2157
1146 2 14.2947 14.3425 14.2309
2622 2 12.5358 14.4219 12.5255
3617 2 14.2518 12.5565 12.446
1149 2 16.0341 12.5284 14.188
1622 2 17.9648 12.5681 12.4826
3146 1 17.8248 14.3811 14.178
3618 1 16.1261 14.3514 12.4538
52 2 0.190608 16.2084 12.5567
518 3 0.206843 17.9211 14.1438
1150 3 1.82518 16.2391 14.3054
2623 1 1.98613 17.9653 12.4164
53 3 3.72305 16.0139 12.6647
618 1 7.30036 16.1117 12.6692
1151 3 3.62128 17.906 14.3176
1642 1 5.42447 16.2316 14.2222
2142 3 7.37422 17.847 14.4546
2624 3 5.45748 17.9353 12.5763
54 3 10.7915 16.1476 12.3925
1643 3 9.28507 16.1483 14.3321
2649 1 10.923 17.975 14.341
3619 3 9.11652 17.8372 12.5562
55 3 12.4149 17.9757 12.5123
620 3 14.2415 16.0429 12.6131
1646 2 12.5471 16.1054 14.3543
1644 2 14.1243 17.9732 14.2826
56 2 15.8659 17.9007 12.7626
1647 1 16.0266 16.1359 14.3341
2627 1 17.7031 16.2081 12.5869
3644 3 17.7722 17.8564 14.2788
57 3 1.85424 0.110841 16.1278
621 2 0.107906 1.94302 16.0003
1128 3 0.142696 0.126912 18.002
2122 3 1.86646 1.92646 18.0133
58 2 5.27857 0.110416 16.1048
1132 2 7.22498 0.0501522 17.9569
1131 3 7.20057 1.85647 16.1036
1130 2 3.57284 0.207666 17.9324
1129 3 3.5497 1.86421 16.0961
2630 2 5.50689 1.81943 17.7565
1133 2 10.7987 1.69722 16.2281
1626 2 10.6696 0.0265416 17.9182
2631 2 9.05379 2.03779 17.9745
3621 1 8.8644 0.152597 16.1526
59 2 12.4353 0.0898289 16.1287
1134 2 14.3094 1.76865 16.2186
2124 2 14.2456 0.137523 17.8848
3130 2 12.6623 1.75694 18.1309
502 3 16.2004 0.156852 16.1479
3133 1 16.0012 1.77664 17.8348
3623 1 17.8755 -0.098076 18.0149
3622 1 17.9119 1.80474 16.213
503 2 1.92234 3.59735 16.2144
504 2 1.79983 7.18119 16.0871
1628 2 0.150635 5.42455 16.2412
2125 3 0.149608 3.63839 18.006
3134 2 0.1243 7.15215 17.9226
3625 2 1.81168 5.53658 17.9112
61 1 5.38715 3.54425 16.3247
505 1 3.76974 7.29054 17.8808
1135 1 7.12593 7.29338 17.9149
1631 1 5.49317 7.17529 16.1294
1630 2 3.60451 5.42481 16.3238
1629 3 7.2551 5.28351 16.2022
2127 3 3.64972 3.60079 17.9526
3135 3 7.20987 3.6245 18.03
3627 2 5.6251 5.47804 17.8655
62 1 8.97843 5.31713 17.9961
63 1 10.7504 7.22681 17.7419
506 1 9.09921 3.60416 16.1937
1632 3 10.8407 5.30506 16.1726
2129 3 8.98734 7.14717 16.1964
2635 1 10.6723 3.68034 17.9851
64 3 12.5434 5.50439 17.8849
1137 2 14.2763 7.10089 17.9061
1136 3 12.5628 3.62255 16.1599
2131 2 14.3411 5.55833 16.211
2130 1 12.6971 7.26039 16.0621
3139 2 14.3811 3.58992 17.7693
66 1 17.824 5.43996 15.9962
507 3 16.162 5.37889 17.8402
1140 3 17.8784 3.70748 17.7873
1139 2 16.1638 3.61782 16.0864
1634 1 18.0462 7.19898 17.8705
1633 2 16.0772 7.09663 16.1231
508 2 1.85958 8.97871 17.8907
1141 2 1.80949 10.7209 15.9126
2132 1 0.00563308 8.83997 16.1687
3632 2 0.033482 10.7082 17.9758
68 2 3.5795 10.822 17.7224
509 3 7.21115 10.9441 17.8713
1142 3 5.38213 9.13414 17.9603
1635 2 5.23537 10.7902 16.1536
2134 1 7.1666 9.10812 16.1826
2133 3 3.78937 8.9807 16.216
1143 2 8.98393 9.03868 17.7641
1636 1 8.86022 10.917 15.9117
2637 3 10.7112 8.94249 16.0622
3634 1 10.8143 10.6854 17.783
1144 1 12.4377 10.6389 16.003
1638 1 12.6136 8.82906 17.928
1637 3 14.3686 10.7913 17.9843
2638 3 14.343 9.00664 16.0972
512 2 17.95 9.09238 16.1004
1640 2 16.3133 8.89382 17.8581
2135 3 16.2116 10.854 16.1865
2639 3 17.9831 10.8752 17.89
2137 3 0.246219 14.4449 17.7278
2136 1 1.88272 12.5618 17.7827
2641 1 1.99855 14.3997 16.0063
2640 1 -0.0355645 12.4609 16.0704
2140 1 7.22541 14.4333 17.7062
2139 3 3.65403 14.3549 17.8134
2138 1 5.39823 12.4462 17.8413
2643 2 5.29712 14.3325 15.9332
2642 1 3.69765 12.6603 16.0755
3142 3 7.18678 12.7412 15.9299
2141 3 9.0628 14.4038 16.0702
2645 1 8.96439 12.7961 17.8582
2644 2 10.8514 14.3396 17.8375
3143 3 10.8268 12.5768 16.1137
2647 2 12.6523 14.3403 16.0669
2646 3 12.7536 12.5055 17.8236
3145 1 14.5405 14.3412 17.7631
3144 3 14.4254 12.5258 15.8548
517 2 17.9444 14.3742 17.8484
1148 3 17.9376 12.5975 16.0501
3148 1 16.1103 14.2853 16.0356
3147 1 16.1322 12.6384 17.7788
2648 3 2.06098 17.9133 16.0389
3150 3 2.00157 16.1016 17.6874
3149 2 0.0306446 15.9872 16.0343
3636 3 0.213696 17.8541 17.9087
1641 3 3.64069 17.9154 17.8873
2143 3 7.24236 17.8447 17.7187
3640 1 5.45616 17.9034 16.0101
3639 1 7.26757 16.0038 15.975
3638 1 5.40275 16.1416 17.6564
3637 2 3.72556 16.0399 15.9891
74 2 9.19342 17.8505 16.1142
519 3 10.7828 17.8925 17.8538
3642 2 9.00874 16.0503 18.0102
3641 3 10.9973 16.0606 16.1486
75 3 12.7267 16.1744 17.8939
76 2 12.5329 17.9217 16.1081
1645 1 14.3285 17.9675 17.8429
3643 2 14.2927 16.2485 16.0781
77 2 15.954 16.2603 17.8421
2144 2 17.9431 15.9435 15.9819
2650 1 17.7988 17.9216 18.0192
3645 3 16.0258 17.7803 15.9816
520 3 0.143893 0.232687 21.566
78 2 -0.0653191 1.80722 19.7256
2145 2 1.94104 1.81777 21.3466
3151 2 2.03244 -0.0136338 19.6872
521 1 3.56953 0.0854059 21.3071
80 1 3.7611 1.85853 19.7014
79 1 7.00366 1.80587 19.6191
2147 2 5.44966 1.86673 21.4766
2146 2 7.07641 0.232675 21.5484
2651 1 5.44466 0.0500601 19.6518
81 2 10.7747 1.98318 19.5124
1648 2 10.7038 0.176363 21.4774
2652 2 8.87749 1.92307 21.4171
3152 3 8.96407 0.113229 19.7038
522 2 14.4767 1.97684 19.5478
1649 1 14.4324 0.137565 21.4225
2653 3 12.5425 1.86553 21.3562
3646 2 12.6385 0.101662 19.6885
82 3 17.7785 -0.0529744 21.5364
2654 1 17.6624 2.016 19.6395
3153 1 16.1071 1.92357 21.3973
3647 2 16.1785 0.0960529 19.4693
523 3 0.0839249 5.35595 19.73
84 1 1.82059 7.12672 19.7136
83 2 0.0609407 7.18061 21.4575
1650 2 0.00761601 3.64562 21.4301
3155 1 2.04315 5.47233 21.3523
3154 2 1.88081 3.6317 19.86
524 3 3.66149 5.40561 19.6056
525 2 7.24105 5.53417 19.6304
526 1 3.68147 7.09924 21.4987
1153 2 7.31532 7.28672 21.3708
1152 2 5.53344 7.25196 19.6873
2655 2 3.73356 3.61824 21.5305
3156 1 7.20687 3.83677 21.2755
3649 2 5.31383 3.64838 19.7811
3648 2 5.39812 5.37002 21.4945
86 1 10.5726 7.04842 21.3415
85 3 8.96253 3.71794 19.7522
1155 2 10.7988 5.44022 19.4305
1154 2 8.95214 7.25404 19.4896
2656 3 10.8679 3.70009 21.3055
3650 2 9.11287 5.28302 21.426
527 1 12.4051 7.14993 19.7228
88 2 12.4311 5.40375 21.3793
87 3 12.5763 3.76725 19.5775
1156 3 14.3239 5.41532 19.6326
2148 3 14.2961 7.16461 21.3507
2657 3 14.4139 3.67733 21.4062
528 2 17.8881 3.50071 21.5722
89 3 16.0193 5.52488 21.3562
1157 2 16.3242 7.14063 19.56
3158 2 17.9549 5.20878 19.7856
3157 1 17.8567 7.06172 21.572
3651 1 16.0973 3.78093 19.5962
529 2 1.91978 8.89603 21.3715
530 3 2.05757 10.7805 19.6042
1158 1 0.262558 9.0996 19.6081
3652 3 0.128835 10.711 21.3914
531 2 5.41418 8.96749 21.5198
532 3 5.49856 10.8156 19.6644
533 1 7.17935 10.8329 21.4421
1159 3 3.67994 8.94723 19.6484
1651 2 7.17071 9.00665 19.6061
3653 1 3.74002 10.9931 21.3706
90 2 8.90901 10.7672 19.7245
1161 1 9.03237 8.85413 21.4038
1160 1 10.8876 10.8334 21.198
1652 2 10.6247 8.97614 19.6353
534 1 12.5935 10.9897 19.5254
1162 1 12.4112 9.03717 21.3034
1654 1 14.4104 10.6695 21.324
1653 1 14.5762 8.80177 19.5659
1656 1 16.1682 10.7178 19.6799
1655 3 16.1671 8.87646 21.3917
3159 1 17.8986 10.7572 21.2541
3654 1 17.9682 9.01581 19.5569
1660 3 0.19846 14.2481 21.4883
1659 1 2.00692 14.4668 19.6741
1658 3 1.89226 12.6264 21.2697
1657 1 0.171711 12.508 19.5718
1163 3 5.41688 14.59 19.395
1661 1 3.73832 14.3433 21.3977
2151 3 7.12603 12.7027 19.5709
2150 2 5.58248 12.6725 21.4283
2149 1 3.78394 12.559 19.5104
3160 2 7.32523 14.4709 21.2001
1662 1 9.03204 14.2617 19.566
2153 3 8.98756 12.7418 21.3637
2152 3 10.7952 12.5486 19.5392
2658 1 10.8623 14.3972 21.3445
2155 3 14.5106 12.6201 19.6646
2154 1 12.5894 14.2766 19.62
2660 1 14.3427 14.3301 21.3622
2659 1 12.4756 12.6491 21.4437
535 2 17.9056 12.5779 19.6075
1164 3 18.0275 14.2231 21.4755
2156 3 16.3652 14.2912 19.5468
2661 1 16.1524 12.5829 21.3698
1165 2 0.105872 17.8586 21.3779
2157 2 1.9196 17.757 19.6731
2662 2 0.118162 15.9719 19.6214
3161 2 1.80549 16.2494 21.4052
1664 1 7.09593 17.9705 21.4317
1663 2 3.69367 17.9625 21.5323
2664 1 3.44426 16.2658 19.6235
2663 1 7.20379 16.1596 19.4392
3163 3 5.53554 16.0478 21.2036
3162 1 5.52579 17.8057 19.4841
536 3 10.5692 17.836 21.428
2665 1 10.8428 16.0767 19.484
3164 3 9.02429 17.8421 19.6287
3655 1 9.0088 15.996 21.2711
2666 2 12.563 17.7978 19.5898
3166 3 14.2784 16.2008 19.6717
3165 2 14.2018 18.1244 21.5362
3656 2 12.5109 16.1118 21.3621
92 2 16.191 16.18 21.4321
91 1 17.8963 17.9041 21.5033
1166 3 17.8754 16.1312 19.6708
3167 1 16.0976 18.0264 19.7488
93 2 2.05172 1.75395 25.0162
1665 1 1.82928 0.15322 23.2854
2667 1 0.00416431 0.0173387 24.9421
3168 3 0.0668073 1.78113 23.4184
2158 3 5.40015 0.105228 23.2996
2670 2 3.81384 0.177993 25.0714
3170 2 7.15994 2.18837 23.185
3169 2 3.71273 1.92784 23.193
3659 1 7.19327 0.130195 25.0285
3658 3 5.41211 1.92132 24.962
537 1 9.04087 1.91996 25.0187
2671 1 8.96824 0.21651 23.2308
3171 3 10.8888 0.124778 24.9032
3660 1 10.7179 1.8318 23.1178
2673 1 12.5552 0.158713 22.9236
3663 2 14.3823 1.86235 22.9713
3662 1 14.3367 0.262628 24.8838
3661 3 12.5023 2.00409 24.8525
539 1 16.1237 1.90448 24.9576
1167 3 17.8185 0.110194 24.9324
1668 3 17.8405 1.94574 23.1716
2160 2 16.1173 0.0364288 23.3515
99 2 1.87295 5.48282 24.9393
98 2 1.93377 7.26211 23.1375
97 2 0.162092 7.2317 25.0765
96 3 0.197779 5.45081 23.2342
3173 3 1.8857 3.76993 23.1455
3172 2 0.0679889 3.64247 24.9579
540 2 3.64956 7.32659 24.8835
541 1 5.51779 7.15406 23.2182
542 2 7.21034 5.47343 23.0474
543 3 5.45099 5.52162 25.014
101 1 7.30705 7.20597 24.9148
100 3 3.73649 5.39397 23.2267
2675 3 7.15424 3.79087 25.1271
3175 1 3.74693 3.73944 24.9544
3665 1 5.37023 3.76725 23.2991
546 3 8.97349 7.24763 23.1148
547 3 8.97166 5.53641 24.8822
102 2 10.9448 5.33808 23.1498
1170 1 10.7767 7.42261 24.8372
3177 2 10.7236 3.73735 24.855
3666 3 9.0117 3.69911 23.1649
548 1 14.1204 5.64684 23.0965
549 1 12.5672 5.40024 24.8201
105 1 14.3158 3.65385 24.9098
1670 1 12.4491 7.20942 22.9825
3179 1 12.631 3.42355 23.1794
3667 1 14.2625 7.28783 24.8146
1172 1 16.1155 5.40465 24.925
1672 3 17.7972 3.69985 24.9563
1671 1 15.8868 7.22017 23.2252
2678 1 18.016 7.23404 24.8357
2677 2 17.8243 5.50437 23.2723
3668 2 16.1129 3.55598 23.1185
550 1 0.271798 9.10352 23.1959
106 3 1.93466 10.8579 23.113
1175 1 1.8831 9.10067 24.9776
3669 1 0.0662635 10.763 24.876
108 2 5.38538 10.8728 23.2204
1180 1 7.16478 10.9077 24.8292
1178 3 7.13256 9.19361 23.216
1177 1 3.5991 9.02475 23.1445
1176 1 5.3373 9.19902 24.9059
3670 1 3.76676 10.9443 24.9778
551 1 10.828 10.6557 24.9389
552 2 8.98963 10.8762 23.1239
1181 3 8.99733 9.12536 24.8638
1674 3 10.8521 9.13756 23.151
1182 2 12.4583 10.9127 23.0815
1676 2 12.5148 9.08887 24.9559
1675 1 14.1539 8.93815 23.13
2163 1 14.2139 10.8965 24.7773
1183 3 16.2617 9.09559 24.8
1677 1 16.2204 10.8787 22.9888
2165 3 17.7591 11.0437 25.008
3671 1 18.0699 9.02464 23.1241
555 2 0.149286 14.4513 25.0409
1184 2 1.97998 14.3478 23.2815
1678 2 1.90004 12.6619 25.0291
2166 3 0.220923 12.522 23.1206
113 2 7.17031 14.3772 24.9151
1185 2 5.33103 12.5305 24.9718
2170 3 5.53255 14.2654 23.1413
2169 2 3.7479 12.6243 23.1377
2168 1 3.63024 14.4485 24.862
2167 1 7.29428 12.5217 23.2084
1680 2 10.8127 14.4286 24.9835
2171 1 10.6952 12.8399 23.1041
2682 1 8.94139 14.4209 23.1359
2681 2 8.83266 12.6412 24.9151
114 1 14.3976 14.4023 24.874
1681 3 12.4941 12.5807 24.8244
2684 1 14.3937 12.5938 23.1663
2683 3 12.3709 14.4992 23.039
557 3 17.8756 12.6688 23.2495
2173 2 16.2215 14.3257 23.1352
2685 1 15.9741 12.6013 25.0702
3183 1 17.8158 14.4943 25.06
1684 2 1.97353 16.0503 24.9416
1683 1 1.89745 17.9697 23.2327
2688 3 0.0942496 16.1746 23.3483
2687 2 0.190856 17.9875 24.9109
2175 2 7.16791 17.9842 24.9907
2174 2 5.43489 17.8267 23.1283
2689 1 3.70123 17.8536 24.9063
3187 3 5.4763 15.9865 24.8527
3186 2 7.08129 16.1268 23.1283
3185 2 3.71288 16.1583 22.9925
1687 2 8.93743 17.8331 23.3678
1686 2 9.05715 16.2246 24.9746
2177 2 10.8941 17.9112 24.9258
3675 3 10.7872 16.1839 23.1192
2178 1 14.1536 17.9352 24.89
2690 2 12.6289 17.946 23.1401
3188 2 12.4353 16.0503 25.0267
3676 3 14.3507 16.1871 23.184
1187 3 17.8787 16.1485 23.2166
1186 1 17.8755 17.9347 25.1853
1689 2 15.9585 16.056 24.8981
3189 1 16.1165 17.882 23.2277
1188 2 0.0907677 -0.0349995 28.2847
2180 1 1.67686 1.95709 28.4279
2668 1 1.86196 0.129133 26.7916
3657 2 0.181177 1.91624 26.5841
559 1 7.21301 0.253187 28.4937
94 2 7.28279 1.95653 26.7193
1189 1 3.79469 0.0618294 28.5636
1666 1 5.62047 0.0605414 26.8122
2181 3 5.46067 1.83757 28.5708
2669 3 3.79873 1.83692 26.8514
560 1 10.81 0.106383 28.6824
95 1 9.02889 0.371724 26.6319
2182 1 9.10116 2.09839 28.4042
2672 3 10.8144 1.98667 26.5418
538 3 14.3029 1.95753 26.7878
1667 2 12.3696 0.11139 26.8104
2184 3 12.5233 2.02614 28.4847
2183 3 14.2296 0.0954256 28.4915
2159 3 17.8368 1.86079 26.7122
3193 3 16.0957 1.88899 28.4911
3679 2 17.827 0.0349454 28.4785
3664 2 16.1054 0.107229 26.6515
1168 2 2.01958 3.67632 26.6974
1669 2 2.03011 7.31771 26.8067
2186 1 0.0754894 7.26846 28.4616
2185 2 0.00370666 3.81079 28.4393
2674 1 0.354234 5.58008 26.7242
3194 3 1.90615 5.43192 28.6497
544 3 3.70982 5.46626 26.7007
563 1 7.23369 7.25441 28.5654
1691 2 7.11187 3.72406 28.4315
1690 1 3.64593 3.79538 28.6236
2676 3 7.22008 5.58095 26.7609
3196 3 3.72709 7.13323 28.5234
3195 1 5.48625 5.46019 28.6128
3176 2 5.38624 3.69872 26.7043
3174 1 5.51919 7.4166 26.7134
545 2 10.7393 5.57488 26.7238
1171 1 8.97144 3.92606 26.6397
1169 1 8.9065 7.33157 26.6187
2694 1 10.6158 3.70934 28.428
3197 1 9.14682 5.44817 28.4248
3681 2 10.8452 7.42574 28.5023
104 3 12.6165 3.74304 26.6427
103 1 14.313 5.5654 26.6409
2695 3 14.3331 3.82052 28.6137
3178 2 12.5614 7.1819 26.6744
3684 2 14.3782 7.46796 28.313
3683 1 12.3548 5.4997 28.3827
622 2 17.7707 3.85545 28.4382
1004 1 17.9061 7.27577 28.4857
1174 1 16.1458 7.36237 26.6515
1173 2 17.819 5.71178 26.7425
3180 1 16.1358 3.60409 26.8328
3685 2 15.9684 5.63993 28.5056
1673 2 0.158308 9.14858 26.6705
2161 1 1.83964 11.0011 26.7164
2696 2 0.0931593 10.9449 28.5678
3687 1 1.85429 9.07079 28.4198
122 3 7.2102 10.835 28.5072
107 1 3.41815 9.18402 26.7235
1179 1 5.32926 10.9987 26.81