ITEM: TIMESTEP
5000
ITEM: NUMBER OF ATOMS
4000
ITEM: BOX BOUNDS pp pp pp
1.0598649827890583e-01 3.5628073501721488e+01
1.0598649827890583e-01 3.5628073501721488e+01
1.0598649827890583e-01 3.5628073501721488e+01
ITEM: ATOMS id type x y z
52 1 10.8292 1.84464 16.0626
2080 2 0.132166 5.54477 5.28614
2591 3 0.0387224 6.99834 7.12629
2064 1 0.251924 1.88856 1.82079
1 1 3.79047 1.81327 1.75961
2115 3 7.37614 1.78211 16.0944
2065 1 7.31483 1.92021 1.89895
1619 2 5.41083 10.744 16.1576
588 2 -0.0324347 -0.0631804 7.33579
2568 2 14.0989 0.165949 3.69097
2 1 10.8994 2.03193 1.75776
757 1 17.8476 3.73051 3.67521
1768 3 17.9651 3.47656 7.29985
51 1 3.66113 1.82668 16.0414
3742 1 12.6482 18.0285 15.9219
2066 1 14.3361 1.75081 1.95983
3565 1 12.5099 0.159742 1.95733
56 1 3.68927 9.08664 16.0001
3564 1 5.28592 0.15394 1.79196
3621 1 8.9616 10.7838 16.0498
1565 3 16.2008 0.167075 1.79543
1608 1 16.2097 10.6211 12.6735
2017 3 17.8804 5.49008 5.49858
1706 2 12.6858 17.9138 5.36162
1568 2 1.89065 7.37051 1.64499
2841 3 17.939 7.24891 7.19526
574 1 0.131769 10.6162 3.62744
3566 3 1.90133 3.61597 1.86137
4 2 7.21835 5.21346 1.56597
1126 3 15.948 16.0268 14.3766
1594 3 1.79651 0.0427711 8.88653
2597 3 7.3111 0.250153 10.6352
1566 1 5.43183 3.80435 1.73499
2067 2 3.73364 5.34212 1.74961
3124 3 12.4155 15.9778 14.1943
596 1 10.8688 0.179593 10.8044
3570 1 5.71313 7.18642 1.73971
2124 2 0.235021 15.9483 16.0711
1570 2 8.87339 7.13296 1.73206
2068 3 10.7084 5.68998 1.79289
2727 1 14.2904 17.9765 10.6395
50 3 14.4885 16.0342 12.5436
3567 3 9.09555 3.74339 1.78126
5 2 14.4626 5.36379 1.71546
2088 3 0.166564 12.444 5.37759
2112 1 10.9254 16.172 12.5141
1567 2 12.7723 3.50061 1.87333
1595 3 5.37875 0.0967671 12.3117
3572 3 12.6453 7.18936 1.68621
3619 2 1.94658 10.8811 16.0967
2614 2 3.68762 0.130563 14.2653
1572 3 16.1601 7.16607 1.77877
1125 1 9.05896 16.2765 14.2929
3123 3 5.46224 16.0442 14.2552
3568 1 16.1614 3.70789 1.76096
2740 1 3.7074 17.8035 14.4568
2069 1 0.208207 9.02269 1.72509
2126 1 14.3693 15.9627 16.0771
3569 2 1.84939 10.9056 1.82469
6 1 3.48887 9.00766 1.80435
575 3 3.70997 10.8215 0.156968
1569 2 5.51433 10.9611 1.92408
2070 2 7.26717 9.0473 1.76204
2579 2 7.32756 10.7025 0.107543
2111 3 3.52843 15.9922 12.5615
7 1 10.8597 9.00411 1.91119
2116 1 14.1474 1.62833 16.2811
1076 1 9.13116 8.99306 0.190618
3571 2 8.94135 10.6829 1.9201
1571 3 12.6246 10.7279 1.89067
2071 3 14.3062 8.94659 1.69633
2615 2 10.6933 0.148568 14.2655
678 2 7.20462 17.8458 14.3621
49 1 7.46714 16.1226 12.4908
1121 1 15.8137 9.06672 14.3112
3607 2 12.4048 10.7381 12.6026
3573 1 15.8499 10.9387 1.91367
3119 2 12.5558 9.11625 14.4134
2623 2 14.3777 10.8961 14.2858
1573 3 2.07051 14.4076 1.83909
2741 3 10.9374 18.0977 14.2107
9 1 7.26516 12.4007 1.88219
1724 2 12.5241 17.9639 12.4822
1080 3 5.42472 12.5157 0.170052
2072 3 3.64977 12.5103 2.04396
2585 3 3.70618 14.4865 -0.0286036
3574 2 5.42853 14.0623 1.78893
1574 2 9.06047 14.3338 1.8224
2073 1 10.621 12.4538 1.81292
3614 2 5.37265 0.141082 16.176
3080 2 8.95181 12.5918 0.28075
10 3 14.1696 12.6398 2.12447
53 3 0.261087 5.3641 16.1311
3615 1 12.4672 0.0634013 16.077
3575 2 12.4711 14.2471 2.0386
2001 3 17.8963 2.04897 1.86434
1124 1 1.91672 15.831 14.6194
1575 2 16.0502 14.4567 1.95354
1118 3 12.6866 5.29995 14.5226
1621 2 12.3751 10.8955 16.162
2121 3 14.3274 9.06238 16.2327
43 2 14.3684 9.00064 12.4539
2105 1 10.6624 8.98524 12.6088
11 1 3.76194 16.0174 1.99665
2120 3 7.068 8.95267 16.1831
2075 3 7.36808 16.0089 1.91588
2584 1 0.13796 14.5894 3.58629
3613 2 16.2147 14.2595 12.4118
3618 3 16.1334 3.75359 16.2296
12 1 10.7779 16.0653 1.86839
3122 3 16.1439 12.5171 14.0099
781 2 17.8532 14.3392 7.18582
2044 2 17.9942 12.5134 12.3966
825 3 17.8322 10.923 17.7691
2076 1 14.2588 16.2218 1.82719
2109 1 14.2137 12.3315 12.2526
308 3 17.7044 12.4891 15.9804
1611 2 12.5727 14.1487 12.6306
1123 1 12.4337 12.7974 14.3462
1692 1 16.3149 17.9128 1.87915
1606 2 9.11579 10.7324 12.5222
278 1 17.8518 16.0016 5.40396
622 2 14.1694 7.25702 14.196
1089 1 1.98769 1.95349 7.13058
1120 2 9.09542 8.97404 14.3132
3063 2 2.03472 2.03984 3.87476
3576 1 1.99863 0.00160101 5.4867
14 2 7.16519 1.90592 5.287
564 2 3.46197 0.192652 3.80802
1065 2 5.36731 1.83006 3.58757
2095 1 -0.00075727 1.8779 9.01754
1576 2 5.36737 0.102294 5.37074
2078 2 5.44883 1.88172 7.25818
2077 3 3.88141 1.99552 5.45685
2032 2 18.0123 1.83471 9.1963
2567 1 7.19101 0.290354 3.78237
598 1 -0.0104793 3.65996 10.7313
2079 1 10.5564 2.02244 5.61614
3065 2 9.21587 1.85157 3.66028
3088 2 8.86781 2.0352 7.10638
2603 3 0.192952 7.14215 10.9077
2853 1 17.8347 6.91703 10.7121
15 3 12.5906 1.94018 7.11976
16 1 14.2427 2.01903 5.41715
1622 3 16.0398 7.2547 16.0423
1067 1 12.4949 2.03034 3.857
625 3 14.335 14.1945 14.1251
57 3 10.7688 9.04387 16.1079
621 3 10.6297 10.8316 14.309
3604 3 5.61195 10.9127 12.406
1090 1 16.1111 1.8849 7.08226
3622 1 12.527 7.18344 16.129
3067 3 16.0978 2.00186 3.73444
3605 3 8.91255 7.0656 12.5352
62 3 10.8335 16.1519 16.0729
1069 2 1.88463 5.56832 3.56922
3118 1 5.31426 9.09867 14.4508
1579 3 1.82061 3.67816 5.36221
2081 2 1.89545 5.54015 7.22068
3116 3 8.92381 5.44949 14.1704
39 1 0.185425 8.97843 8.85694
2622 2 7.27055 10.7319 14.2924
3583 3 1.77243 7.23559 5.23317
17 3 3.64962 5.45493 5.24178
571 1 7.08138 3.52107 3.70456
592 3 7.14192 7.06187 7.19873
576 2 3.77598 7.21548 3.37365
1585 1 5.36551 7.42182 5.2973
2082 3 7.09119 5.60253 5.39673
2590 3 3.91607 3.83606 7.16591
2580 2 7.34774 7.09207 3.47192
2570 3 3.7673 3.66019 3.65181
3069 3 5.4977 5.43861 3.49804
3089 3 5.43181 5.56833 7.13089
3586 2 3.74903 7.34987 7.22696
3581 2 7.19663 3.72773 7.16597
3580 1 5.3963 3.62865 5.40554
18 1 10.8191 5.30271 5.2284
19 3 9.00378 5.45912 7.1311
590 2 10.6925 3.78005 7.09139
579 3 10.8729 7.22459 3.70352
1071 1 9.02952 5.29432 3.6425
1587 2 10.7015 7.09925 7.04297
1581 2 9.0192 3.55307 5.32043
2572 1 10.8275 3.81116 3.50651
3587 3 8.90608 7.05963 5.34678
572 3 14.186 3.72005 3.77326
1091 3 12.4613 5.36946 7.15831
1589 3 12.6204 7.0949 5.42933
1583 3 14.3911 3.65122 7.17114
2083 1 14.1776 5.54966 5.32993
2593 3 14.2061 7.25289 7.29801
2583 1 14.3468 7.05774 3.58623
3071 3 12.6622 5.31995 3.5395
3582 2 12.6094 3.63159 5.49252
2125 3 7.17004 16.163 16.1591
1073 3 15.9893 5.52113 3.60262
3612 3 9.03752 14.3354 12.4922
1582 2 16.2212 3.72085 5.44718
2084 2 16.103 5.39033 7.05362
603 1 0.160504 10.6776 10.7958
61 3 3.87414 15.9261 16.0595
3145 1 2.02639 16.0747 17.8723
3589 3 16.022 7.21767 5.55961
2103 3 3.84775 9.23772 12.6815
1738 3 1.99934 17.8321 16.2451
1584 2 1.87831 10.8524 5.30034
3073 1 1.9272 8.99364 3.54483
3090 1 1.93107 8.96548 7.08525
619 1 3.76578 11.1041 14.3229
21 1 5.59938 8.91839 6.94556
22 2 7.33593 8.8397 5.24502
591 2 3.64067 10.7038 7.03675
580 2 7.12069 10.6819 3.57243
1075 2 5.61399 8.8746 3.33777
1588 3 7.27941 10.8192 7.12718
2085 2 3.54186 9.02427 5.22286
2577 2 3.80734 10.6247 3.51528
3585 1 5.37451 10.7424 5.43781
1092 1 8.93703 8.90895 7.12342
1586 1 9.01279 10.7252 5.3124
2086 2 10.8099 8.85588 5.47677
2592 2 10.6974 10.6903 7.05079
2581 3 10.7248 10.6604 3.60279
3075 1 8.86136 8.93788 3.52262
23 3 14.1903 8.8767 5.45554
582 1 14.1817 10.665 3.58664
1077 2 12.5252 8.86962 3.52724
2087 1 12.5544 8.89969 7.31328
3590 2 14.2542 10.5754 7.29191
3588 1 12.5189 10.5913 5.3446
41 3 7.28703 9.08418 12.6553
2619 1 0.261232 10.7809 14.4151
1590 3 16.0722 10.587 5.55287
3091 2 16.0335 9.02977 7.24531
3077 3 15.9557 8.94818 3.53893
3835 3 18.0322 10.7981 7.01126
24 1 1.88076 12.3186 7.22031
1602 3 1.90467 10.8852 12.4905
1079 1 1.94321 12.6233 3.64004
3121 1 8.83127 12.5053 14.2026
1625 3 16.1683 14.287 16.0374
3591 2 1.97585 14.2697 5.30107
25 2 3.52794 12.5762 5.41427
584 2 3.82044 14.2264 3.61919
1093 3 5.5357 12.3919 7.28395
1592 3 3.50452 14.3723 6.99557
1591 3 5.44006 14.2058 5.52632
2089 2 7.32476 12.5691 5.3694
2594 1 7.28414 14.2272 7.08051
2587 3 7.2167 14.175 3.64478
3079 1 5.43559 12.6224 3.73683
26 3 10.5613 12.602 5.3205
586 1 10.6979 14.4931 3.56501
1081 2 8.89299 12.5694 3.61083
2090 1 8.98571 12.5413 7.16761
3593 1 10.7929 14.4738 7.17871
3592 2 8.89762 14.3829 5.54901
594 2 14.0559 14.1169 7.16573
1593 2 12.473 14.2501 5.37978
2091 2 14.3491 12.5029 5.20142
2588 3 14.3125 14.2969 3.66776
3092 1 12.529 12.4848 7.12036
3081 3 12.4023 12.504 3.60436
27 1 15.8329 12.3981 7.1098
1146 3 16.1141 12.426 17.9054
1083 3 16.1181 12.5585 3.70807
2025 1 17.6793 12.4292 5.58227
2835 2 18.0225 14.2554 3.73369
3594 2 16.0965 14.3841 5.38972
3625 3 12.4829 14.3102 16.1891
1617 2 12.6482 3.72428 16.3037
1094 1 1.87919 16.1888 7.32244
3143 2 12.5495 12.5446 17.8644
3083 2 1.90322 16.1072 3.58967
2625 2 10.6769 14.3808 14.24
29 2 7.31235 16.1833 5.41163
1106 3 0.118966 12.5018 8.96487
1085 1 5.56333 15.9618 3.53117
55 2 14.4434 5.41757 16.0351
2610 1 0.0294392 14.1956 10.6507
2093 2 5.52852 16.1162 7.18766
2092 1 3.75565 16.0991 5.26835
3617 3 8.96538 3.73097 16.0848
46 2 10.8369 12.5298 12.4685
2860 1 17.7354 14.2916 10.7717
2094 2 10.6417 16.0775 5.35644
3093 3 8.88076 16.209 7.23073
3085 3 8.91982 16.2828 3.70907
2036 3 17.8638 5.4729 12.5766
2118 1 10.9369 5.4345 15.9894
30 3 12.4695 16.0682 7.07288
31 3 14.2805 16.0167 5.28392
58 3 0.197185 12.2744 16.2921
1087 2 12.5772 16.2384 3.61102
1620 1 9.05746 6.9739 16.0043
623 3 0.0413935 14.1398 14.431
2624 2 3.79946 14.2377 14.2204
901 2 17.8987 17.617 7.15789
1095 2 16.1561 15.9618 7.41725
2108 2 7.36685 12.4119 12.5244
3087 2 16.1855 16.1659 3.55262
3707 2 16.1648 17.7528 5.5175
1610 1 5.71365 14.4048 12.5535
60 1 14.2687 12.4511 16.0061
1119 2 1.94584 9.12813 14.2904
3094 3 1.88951 1.94254 10.5642
33 1 7.21401 1.89244 9.07169
811 1 17.8454 14.2304 14.5325
1096 3 5.49304 1.95187 10.85
3620 1 5.39147 7.29804 16.1257
2621 3 10.8624 7.21489 14.189
3095 1 3.76994 1.98568 8.96451
1599 1 8.93896 3.48887 12.4981
1097 3 10.767 1.96017 9.00566
3096 2 9.07698 1.99271 10.6665
617 1 10.7739 3.61072 14.3592
2117 2 3.69339 5.34018 16.1552
1098 1 12.4665 1.93909 10.6226
2098 2 14.3779 1.89846 8.90154
1616 1 5.61343 3.524 16.0316
47 3 0.239884 16.0247 12.65
2123 2 10.7787 12.537 16.0097
3609 2 16.1924 7.11928 12.6706
3097 1 16.0976 1.79587 10.6345
1624 2 9.10386 14.2295 16.0216
1099 2 1.86755 5.6129 10.6846
1122 3 5.66885 12.6153 14.2797
2599 3 2.12479 3.79451 8.88734
3098 3 0.0492351 5.41593 9.02964
3602 1 1.80014 7.14919 8.7519
36 1 3.81921 5.52037 8.96259
605 3 3.76199 7.24331 10.7181
604 3 5.28831 7.23187 9.01049
600 2 7.17759 3.70054 10.7614
1100 1 7.27184 5.56971 8.997
2606 2 7.11346 7.09766 10.8853
2600 3 3.69715 3.63149 10.8276
3099 3 5.43738 5.47117 10.8852
3599 1 5.42115 3.65677 9.1255
606 3 10.7419 7.28569 10.9244
599 3 8.99805 3.73284 9.00389
1101 1 8.97974 5.42626 10.7467
1605 1 8.89998 7.39093 9.11881
2100 1 10.7574 5.53311 8.92432
2601 3 10.7975 3.67011 10.7146
601 2 14.3688 3.56572 10.5152
1600 3 12.5477 3.82647 8.82306
2609 1 14.3782 7.17126 10.7167
2608 2 12.3862 7.22331 8.89722
3101 3 14.4366 5.45411 8.88212
3100 3 12.5342 5.43372 10.6743
38 1 10.933 5.47081 12.5978
1102 2 16.1012 5.22315 10.6575
3624 1 5.56937 14.2402 16.0856
2602 2 16.1883 3.45264 8.94124
3117 2 16.2473 5.42469 14.5212
3608 1 16.0585 7.09896 9.03296
3600 1 5.60959 3.6146 12.6779
624 2 7.38521 14.3969 14.3362
602 2 1.98463 10.6986 8.86747
3102 3 1.99091 8.9627 10.7958
607 1 7.20476 10.607 10.6612
1104 2 5.47811 9.11102 10.7084
1103 2 3.77806 9.25219 8.95435
1603 3 5.48497 10.8647 9.00733
2104 3 6.98496 9.04534 8.76739
2604 1 3.69459 10.8352 10.7888
2607 3 10.7998 10.7672 10.7214
2605 2 8.91416 10.6328 9.04837
3104 3 8.798 8.88886 10.8551
3103 1 10.7432 8.86522 9.09973
42 2 14.438 8.97517 9.02548
609 2 14.3806 10.6775 10.7724
1105 2 12.5448 8.89219 10.7703
3606 1 12.3857 10.6903 8.83934
289 1 17.815 8.9653 9.02186
792 2 17.7237 10.687 10.6209
608 3 15.9789 10.8111 8.97509
3105 2 16.0913 8.92764 10.7908
1107 3 1.99909 12.3617 10.5779
2122 1 3.95728 12.5932 16.1223
1609 1 1.92547 14.2426 9.13172
2617 3 7.20132 3.63575 14.3135
610 2 3.67387 14.2862 10.737
2107 1 3.88894 12.5667 8.94685
2612 2 7.28485 14.2928 10.5724
2611 3 5.43606 14.5186 9.01172
3107 2 7.33647 12.3727 8.97331
3106 3 5.51211 12.8079 10.6569
45 3 10.6746 12.457 8.87815
611 1 10.7171 14.304 10.7854
1108 3 9.03285 12.4519 10.7217
3611 2 9.12253 14.3574 9.00111
612 1 12.564 14.225 8.96422
1109 3 14.214 12.4687 8.88693
2613 1 14.1666 14.3144 10.6033
3108 2 12.5392 12.5265 10.5679
1293 2 17.8532 12.5158 8.85402
1110 3 16.1604 12.3998 10.8073
1612 3 15.9791 14.162 9.10041
59 2 7.2379 12.6075 16.1271
44 3 3.81697 12.682 12.4692
2620 3 3.66578 7.31709 14.2763
3610 1 1.88605 14.2476 12.5339
3109 2 1.70015 16.1275 10.7462
48 3 7.29332 16.278 9.01878
3120 3 1.95852 12.5423 14.1773
1111 1 5.48741 16.1417 10.8401
54 2 7.21968 5.43353 16.03
3616 3 2.07327 3.62386 16.0043
3110 1 3.63898 16.2134 8.76425
297 1 17.8368 16.133 12.7556
1112 2 10.8396 16.1117 8.98564
3111 3 9.12832 16.0204 10.7804
3623 3 16.0131 10.8242 16.1269
663 3 12.5013 17.9375 8.92977
1113 2 12.5587 15.9599 10.7512
2113 3 14.2346 16.0368 8.75029
1618 2 1.98631 7.28881 16.0065
1132 1 1.83584 5.45276 17.939
2047 1 17.8324 15.9256 9.03896
1623 3 1.87749 14.1244 16.1204
3112 2 16.0741 16.1057 10.5807
1601 3 16.0846 3.59513 12.4382
2114 3 0.075012 1.75264 16.1786
1114 3 1.98828 1.78144 14.3114
506 1 0.130394 3.65627 18.0268
34 2 7.22957 1.84623 12.6115
258 3 17.9736 12.5634 1.74175
2106 2 0.0282658 12.3376 12.5636
2096 2 3.67869 1.94118 12.5572
3601 2 12.5615 3.77709 12.4538
3113 1 5.44414 1.93745 14.199
1115 3 8.98142 1.91874 14.2594
2097 3 10.7357 1.95461 12.5387
2618 1 14.2723 3.4642 14.3357
2102 2 14.2575 5.51592 12.5361
35 3 14.1532 1.75374 12.2969
615 1 14.431 -0.108807 14.3199
1615 3 16.041 0.268378 16.1556
3114 3 12.5992 1.76421 14.2576
1607 2 12.5409 7.33865 12.4678
2101 2 7.22216 5.24403 12.609
1116 2 16.1365 1.90113 14.2777
1604 3 5.3956 7.34164 12.4602
618 1 0.395461 7.2837 14.3419
1598 3 1.85111 3.81644 12.4868
2099 2 0.218322 5.41778 12.6318
2616 1 0.260213 3.52365 14.227
3115 2 1.96321 5.54993 14.3015
3603 2 1.84594 7.12213 12.5041
37 1 3.64533 5.63725 12.6157
620 3 7.20129 7.34883 14.427
616 1 3.93462 3.92615 14.1924
1117 1 5.55436 5.47896 14.3414
3137 3 8.89544 8.75732 17.7466
2641 1 10.862 10.8471 17.8883
508 3 7.22534 3.59489 17.9056
513 3 3.59415 7.27085 18.0038
2648 3 7.11412 14.2568 17.8298
1144 2 9.01435 12.3151 17.8187
515 1 10.8441 7.21116 17.7128
1134 2 9.0061 5.50542 17.8499
2650 3 14.3951 14.4127 17.8929
2511 3 17.7189 7.17479 17.904
511 1 0.19165 10.6186 17.8567
1086 2 9.14691 15.9444 0.107168
3084 2 5.50514 16.0284 0.230249
3147 2 8.90283 15.9626 17.7516
1082 1 12.6303 12.5667 0.147595
2582 3 14.3161 10.659 0.141612
578 2 10.907 10.8271 0.0600952
1138 1 5.35518 8.91675 17.816
1066 3 9.13368 1.98067 0.062307
3149 2 16.0096 16.1142 17.7508
1068 2 16.2895 1.78738 0.0836407
2626 2 0.128334 0.213888 18.0887
569 2 3.64989 3.71998 -0.0191109
2576 1 3.69705 7.2763 0.0642726
519 1 14.1598 10.6619 18.1424
1140 2 12.4929 8.96483 17.9936
570 2 10.9706 3.79765 0.137418
3070 1 8.9691 5.47181 -0.181123
2819 2 17.8398 3.6673 -0.0179567
3072 2 16.3351 5.55816 0.145392
630 3 7.41049 17.8718 0.121834
567 2 14.3873 0.104293 0.241745
2565 2 3.46636 0.0911296 0.0474101
1074 1 1.96768 9.03605 0.0601851
3074 2 5.51447 8.92286 0.187898
502 3 3.7771 0.192412 17.9558
3129 2 16.0505 1.8994 17.9523
1127 2 1.88076 1.82816 21.5901
3626 2 2.05558 0.103561 19.6965
504 2 7.33209 0.268677 21.2607
64 1 7.05918 2.04435 19.7061
1626 1 5.5082 0.256615 19.507
2127 1 3.8714 2.00326 19.6948
2627 1 3.82104 0.244838 21.5527
3126 2 5.44605 1.90659 21.4829
1129 1 8.98602 1.85182 21.2582
2128 3 10.7465 1.8447 19.641
2629 2 10.8216 -0.0132212 21.4012
3627 1 9.01849 0.0724187 19.6364
561 2 3.87174 14.2558 32.0848
65 1 14.3098 1.85753 19.7806
1627 1 12.5399 0.166532 19.9359
3128 3 12.483 1.90527 21.4805
3686 1 2.04525 14.3196 33.7584
1676 1 5.31351 0.0203342 33.7388
1131 2 16.1211 1.81613 21.3701
3628 3 16.2111 0.12301 19.5983
3187 2 15.9982 16.1877 32.025
1628 3 1.87723 3.76171 19.624
3676 1 1.79868 0.122482 33.6448
2631 2 0.316284 3.6768 21.4652
3130 3 2.02398 5.44591 21.3729
3631 3 1.7383 7.25023 19.6187
507 1 3.61368 3.69216 21.4686
517 2 7.30121 7.3085 21.5197
66 3 3.71924 5.56198 19.7104
1133 3 5.46263 5.53326 21.5529
1632 1 5.51958 7.28339 19.6755
2130 3 7.27599 5.5407 19.7252
2639 1 3.83289 7.29709 21.479
2634 2 7.1945 3.64728 21.5399
3629 1 5.31701 3.69858 19.79
509 1 10.6291 3.72452 21.3689
67 3 10.6374 5.47701 19.7186
1629 3 8.99668 3.63782 19.81
2642 2 10.6017 7.27545 21.4063
3132 1 9.02596 5.39898 21.4748
3633 2 8.99633 7.2463 19.7472
520 1 14.0645 7.18322 21.4406
1135 1 12.3428 5.38219 21.4842
1634 1 12.3635 7.24942 19.7122
2131 2 14.2488 5.4498 19.7507
2635 3 14.3303 3.6168 21.4984
3630 2 12.366 3.66497 19.7707
1538 1 15.9842 17.9614 30.2697
1630 1 16.0914 3.63945 19.5761
3784 3 5.32004 17.8812 30.2382
121 2 3.72214 12.5409 33.7224
3134 3 15.9733 5.38208 21.4663
3635 2 15.9666 7.23699 19.6723
1686 2 5.46445 14.415 33.8773
1137 3 1.80057 8.88561 21.5641
1631 2 1.91707 10.7112 19.7035
1188 2 12.7858 16.0495 32.2118
514 3 3.78246 10.81 21.3998
69 1 7.27873 8.8087 19.7159
2132 2 3.48868 8.93336 19.7633
2643 3 7.33261 10.789 21.4384
3136 1 5.52432 9.04354 21.4533
3632 2 5.48335 10.6439 19.6171
518 1 10.6318 10.6213 21.4024
1139 2 8.85714 9.11792 21.5884
1633 3 8.96487 10.75 19.6169
2133 3 10.6505 9.0176 19.5905
70 1 14.1498 9.00237 19.678
2645 3 14.2046 10.7646 21.2585
3138 2 12.4463 9.21666 21.3263
3634 2 12.512 10.6654 19.6543
1532 1 1.79785 17.8762 30.2791
1141 3 15.9065 8.90564 21.47
1635 1 16.2096 10.7306 19.6983
3658 1 5.4768 0.172795 30.1265
521 2 0.0999514 14.1895 21.4482
2788 2 12.4552 17.8546 26.6715
3140 1 1.94744 12.5201 21.3165
3636 3 1.73702 14.258 19.6125
524 2 7.12133 14.364 21.5157
71 1 3.51672 12.3408 19.6664
1143 3 5.4744 12.5948 21.3254
1636 3 5.51658 14.369 19.512
2135 1 7.234 12.558 19.7876
2647 3 3.74809 14.427 21.3406
72 2 10.7411 12.5048 19.7449
2649 1 10.7221 14.3389 21.5393
3142 3 9.06915 12.5616 21.5674
3637 3 8.98526 14.2936 19.7746
525 3 14.1805 14.2087 21.4337
1145 3 12.3093 12.3712 21.6158
1637 2 12.4788 14.1296 19.636
2136 1 14.1518 12.4103 19.6052
835 2 17.9469 14.26 21.3623
2321 2 17.8344 12.6613 19.9359
3144 2 15.8942 12.6213 21.2205
3638 1 16.2589 14.3626 19.553
125 1 14.3919 15.9995 33.7378
2786 1 10.926 17.7383 28.5646
1147 1 1.84437 16.0619 21.3548
722 3 5.38442 17.8492 26.6773
721 3 0.143443 17.9967 28.4855
74 2 7.15079 16.1292 19.7338
1184 2 1.78938 12.6383 32.1874
2137 2 3.55661 16.0066 19.5976
3182 1 15.9489 9.05778 32.2231
3146 1 5.66624 16.0318 21.412
1149 2 9.28158 15.9911 21.38
2138 3 10.6557 16.2013 19.5541
1685 2 16.1999 10.8053 33.8403
2185 2 7.21352 12.5836 33.9451
698 2 14.4144 17.7537 21.3625
75 3 14.4719 15.9779 19.5143
2633 1 10.771 3.8399 17.9922
3148 3 12.5584 15.9791 21.3193
3684 3 12.5359 10.7911 33.7973
323 2 17.935 16.1023 19.5627
1151 2 16.0281 16.2155 21.5075
3755 1 15.9156 17.8848 19.604
1638 1 1.88583 0.122413 23.3343
510 2 14.3949 3.61748 17.9552
1183 2 12.5813 9.03367 31.9823
3150 2 1.79777 1.94112 25.1999
526 2 7.24886 0.111417 24.9107
77 1 5.43912 1.76294 24.9084
76 3 3.62421 1.9198 23.2881
2140 3 7.33839 1.80869 23.1059
3640 3 3.69734 0.285996 24.9441
3639 2 5.51694 0.143996 23.137
78 3 10.6702 1.87262 23.3148
1152 3 8.96634 2.1588 24.957
120 2 14.2988 9.11643 33.9262
1639 1 8.92656 0.187664 23.1284
2142 3 14.3742 1.77594 23.0762
2141 1 12.5283 1.76166 25.0464
560 3 14.3096 10.7227 32.105
3181 3 8.96295 9.18088 32.0798
512 1 0.241249 7.18622 21.6873
3186 3 8.93131 16.0873 31.9332
1148 1 5.45962 16.2057 18.0022
3151 3 16.1196 1.90984 24.8834
1136 1 15.9883 5.50232 18.0538
80 2 1.93292 5.5638 24.9399
2188 1 10.9048 15.8976 33.8119
1645 1 2.07459 7.2871 23.2801
1088 3 16.0292 16.0915 35.3704
3642 1 1.9412 3.74835 23.3828
527 2 3.58921 3.72356 25.0202
81 3 7.06238 5.47072 23.3189
1153 2 5.42103 5.55483 25.0091
1648 2 3.71523 7.24706 24.9488
1643 2 7.09759 3.81371 24.9139
1642 1 5.53661 3.59706 23.2025
2143 3 3.7762 5.47823 23.2008
2655 3 7.25364 7.21888 24.9963
3648 2 5.37187 7.3769 23.329
1649 1 9.01563 7.09568 23.3649
2145 2 8.88722 5.35941 25.1094
2144 3 10.693 5.52619 23.0982
2653 3 10.6556 3.64294 24.9933
3650 1 10.5775 7.05494 25.0727
3644 1 8.7795 3.84314 23.0844
530 1 14.1788 7.10567 24.9422
82 3 14.2842 5.42383 23.16
1644 2 12.3985 3.75578 23.3247
3152 1 12.4927 5.20832 24.9316
3652 1 12.4277 7.26684 23.213
3646 2 14.3643 3.73643 24.8771
2316 2 17.715 5.47047 19.8056
2684 3 10.6484 10.9259 32.0571
83 2 16.1456 5.40029 24.933
1651 1 16.0041 7.27637 23.2903
2187 2 3.73819 16.0744 33.8041
3645 1 16.0044 3.46732 23.0896
1154 2 1.90034 9.04878 25.0454
2183 3 10.7901 8.9884 33.8195
1187 3 5.3936 16.235 32.1488
3647 1 1.83885 10.6441 23.2929
84 1 3.53907 8.91361 23.2473
1647 2 5.56731 10.7587 23.2562
2148 2 7.4006 9.00019 23.2452
2147 1 5.58687 9.04741 24.8444
2654 3 3.60141 10.7357 24.9599
3651 2 7.11633 10.8753 25.0048
529 2 10.6964 10.8844 25.0631
85 3 10.6497 9.00968 23.2849
3153 1 9.12247 9.04473 25.164
3649 3 8.97323 10.7768 23.3138
86 3 12.1232 9.00237 24.9793
1652 1 14.3087 10.6656 25.0393
1650 3 12.3806 10.6403 23.3107
2149 3 14.2583 8.95389 23.1037
1155 3 16.0262 8.97542 24.9161
3086 3 12.6933 15.996 35.6114
124 3 7.26724 16.0444 33.8448
3653 3 15.9396 11.0127 23.0983
1683 1 9.13548 10.864 34.0316
1653 2 2.02121 14.1488 23.1448
2150 2 1.86194 12.6635 25.0566
2656 1 0.18026 14.5048 24.8743
531 3 7.20174 14.407 25.1176
88 2 7.04766 12.5779 23.2689
2151 3 3.68235 12.4531 23.2425
3154 1 5.35931 12.3693 25.0464
3655 1 3.62888 14.3668 24.9321
3654 1 5.40076 14.3014 23.3161
89 1 9.02514 12.7292 25.162
1655 2 10.7736 14.3792 25.096
1654 3 8.92515 14.4019 23.3914
2152 2 10.7167 12.4921 23.3399
90 2 14.1392 12.3737 23.2077
1156 1 12.641 12.6101 24.9722
2657 2 14.3529 14.3688 24.8048
3656 1 12.4612 14.1645 23.2464
337 1 17.9555 12.5905 23.1945
1656 1 16.1225 14.0515 23.1397
2153 2 16.0158 12.5269 25.0687
3801 3 2.08011 17.8996 33.8264
3682 1 5.63506 10.7292 33.9162
2154 3 0.128277 16.1046 23.1029
3185 2 2.03595 16.1591 32.0201
3155 2 1.83156 16.1105 24.9194
2682 1 3.62693 10.8605 32.1029
92 2 5.45995 16.0655 24.9292
91 3 3.60505 16.0833 23.0836
2155 1 7.10934 15.9098 23.1957
68 2 0.131202 9.14548 19.7318
2637 3 0.356924 10.8615 21.4256
93 2 10.8456 16.0543 23.1845
1157 1 9.06048 15.8845 25.1916
2182 3 3.65683 9.13919 33.9994
79 2 0.155315 5.43509 23.3533
2157 1 14.3376 15.9894 23.1291
2156 1 12.5558 16.1159 25.0483
2778 3 14.3319 17.7708 24.9377
3769 1 12.4434 17.8484 23.1395
1519 2 16.1068 17.9448 23.1843
2341 2 17.797 15.9377 23.2083
841 1 17.8346 7.23297 25.0339
3156 2 16.2144 16.1806 25.13
1182 3 5.50249 8.97145 32.2528
123 3 0.129867 16.1272 33.6743
1158 2 1.9191 1.91398 28.5037
119 1 7.4528 8.9798 33.9727
533 2 5.28624 0.132441 26.7834
1646 3 0.116605 10.6948 24.9864
1159 1 3.68841 2.00891 26.8639
2159 1 7.1219 1.9513 26.7185
559 2 7.25044 10.8646 32.1905
3157 2 5.42342 1.98465 28.5977
1160 2 8.82421 1.92892 28.5255
3180 2 1.81706 9.04038 32.2682
1681 2 1.87791 10.9315 33.8891
3158 2 10.6136 1.95713 26.8604
2146 2 0.238912 8.85052 23.3477
97 1 14.4341 1.98948 26.5745
87 3 0.059415 12.5327 23.306
3159 2 12.4681 1.94729 28.5187
3688 3 16.1334 14.1692 33.945
2531 3 17.8266 14.3644 24.9646
1161 1 16.2546 1.8385 28.6722
556 2 -0.0596037 10.8547 32.2338
536 1 1.96439 3.78117 26.7861
3660 2 15.9837 0.230332 26.6888
1162 2 0.182406 5.46614 26.7496
1664 2 1.97287 7.18736 26.8288
2659 2 10.6703 0.119794 28.5701
3160 3 1.96433 5.49709 28.5029
537 2 3.68102 3.70599 28.7248
543 2 7.25451 7.26555 28.6059
1163 1 5.49522 5.32205 28.6083
1661 1 5.41628 3.752 26.5943
2162 1 3.49685 5.61338 26.7657
2668 3 3.94399 7.44711 28.524
2667 2 5.48033 7.24962 26.6263
2663 1 7.16723 3.7095 28.6595
3161 1 7.19478 5.57512 26.7146
538 1 10.6548 3.73062 28.4346
99 1 10.6216 5.51144 26.8812
2669 3 10.677 7.28919 28.5087
2662 3 8.71554 3.68417 26.8823
3162 2 8.84596 5.67616 28.5614
3668 2 8.91366 7.17719 26.8314
545 3 12.3943 7.2247 26.5968
546 2 14.2193 7.20457 28.5643
1165 1 14.3613 5.41005 26.8278
1164 2 12.5162 5.39047 28.2938
2664 2 14.3008 3.63728 28.7555
3663 2 12.5406 3.67408 26.7683
1084 2 1.82195 16.1722 35.6554
539 3 16.1208 3.64277 26.7432
1349 1 17.6279 5.40217 26.6346
1670 1 15.9863 7.24842 26.7726
1658 1 9.08888 0.208926 26.6585
3163 2 16.177 5.48305 28.5257
1166 1 1.77805 9.11932 28.6355
771 2 17.8332 14.3351 35.5675
2666 2 0.119659 10.9258 28.4758
2665 1 1.78454 10.7904 26.7213
541 3 3.53158 11.0078 28.5799
103 2 7.16055 9.1406 26.6877
2670 1 7.1477 10.7038 28.5496
3165 2 5.39414 9.18497 28.5364
3164 1 3.52332 9.00707 26.6356
3666 2 5.22396 10.6703 26.7029
542 1 8.93918 10.768 26.6504
544 2 10.5986 10.7755 28.5621
1168 3 9.03884 9.08562 28.4694
1167 1 10.5314 9.05422 26.738
1668 2 12.4528 10.615 26.7631
2168 3 14.2166 8.95623 26.5566
2672 1 14.2616 10.6771 28.4266
3166 3 12.5222 8.9806 28.5355
1169 1 15.9727 9.29481 28.5507
1186 2 16.0667 12.5627 32.0293
2671 3 16.1658 10.9321 26.7591
3184 1 12.4746 12.5371 32.0082
547 2 -0.0133473 14.3388 28.5241
3168 1 1.79716 12.7035 28.4591
3167 1 -0.128557 12.6812 26.8508
3672 3 1.79684 14.3257 26.8052
548 3 5.33555 14.357 26.636
549 3 7.21985 14.2661 28.7398
106 2 3.56913 12.6152 26.709
1171 3 7.17149 12.5223 26.7019
1170 3 5.45975 12.6643 28.5091
2673 3 3.84395 14.3648 28.345
1673 1 8.99567 14.2655 27.0185
2171 2 10.7258 12.5463 26.7994
2674 1 10.9614 14.2246 28.6146
3169 1 9.13086 12.6206 28.5903
550 2 14.3961 14.4576 28.5299
1172 3 12.563 12.5036 28.2841
2675 1 12.6256 14.2621 26.7
3170 3 14.3854 12.6173 26.7537
860 3 17.8105 14.3046 28.5853
3417 1 17.8493 12.6708 26.755
3171 2 16.0978 12.5739 28.6263
3675 2 16.0986 14.3488 26.8398
3685 2 16.1564 7.1047 33.8373
109 2 0.0900388 15.9745 26.6504
1173 3 1.74264 16.0674 28.457
1515 3 9.04432 17.5965 23.3701
94 1 0.0113205 1.92563 26.851
1078 2 16.2316 9.04318 35.6367
1174 1 3.68465 16.0879 26.5959
2174 1 7.01823 16.1107 26.8221
2661 3 0.0499197 3.70827 28.5299
3172 2 5.33087 16.2222 28.355
1175 2 8.85263 16.2153 28.6135
2352 3 17.9611 9.12001 26.5876
1680 3 16.1808 3.70512 33.7035
3173 3 10.7517 16.1073 26.9151
1181 1 16.0802 5.55007 32.0656
112 3 14.2372 16.1363 26.7745
715 2 7.15466 17.9368 25.1463
3174 3 12.5545 16.0811 28.4755
2688 3 14.4514 14.2832 32.1641
359 2 17.7732 16.3338 26.7093
1176 1 16.0721 16.1735 28.5154
2542 1 17.8262 10.9484 28.6057
3680 1 12.532 3.73477 33.9898
2158 1 0.149681 1.77942 30.3273
95 1 3.49864 1.92767 30.3833
2160 2 7.13341 1.80026 30.3629
3179 2 12.6123 5.45574 32.0847
96 3 10.7581 1.97627 30.2877
98 3 0.0262176 5.50553 30.3122
2161 3 14.3426 1.99522 30.285
2166 1 -0.0657008 9.24958 30.306
1660 2 15.982 0.0359099 30.2686
740 1 3.59538 17.8847 31.9558
2186 1 14.3112 12.4456 33.8233
1665 1 1.85002 7.33178 30.255
3661 1 1.87657 3.96826 30.2861
100 1 7.1842 5.57534 30.5826
1662 1 5.50875 3.54856 30.5426
2163 3 3.7856 5.54982 30.3379
3667 2 5.64094 7.31862 30.2984
1667 2 9.00366 7.34413 30.3299
2164 3 10.7148 5.53851 30.4356
3662 3 8.82334 3.7431 30.4614
101 2 14.3237 5.55814 30.3682
1663 3 12.4269 3.76282 30.3588
3670 1 12.4856 7.34787 30.4088
348 1 17.8214 5.44234 30.2603
1671 1 16.0959 7.14364 30.1346
3664 2 16.2352 3.73268 30.3592
1687 2 12.6968 14.2914 33.9025
3665 3 1.64002 10.8285 30.4262
102 3 3.62656 9.1819 30.4361
1666 2 5.48832 10.6558 30.429
2167 1 7.19351 8.98899 30.2544
104 1 10.8167 9.11597 30.3624
3669 2 8.81846 10.8902 30.2973
1669 3 12.4667 10.7978 30.2249
2169 3 14.2934 8.93334 30.3658
3687 3 9.09609 14.111 33.93
3671 1 16.158 10.9091 30.3701
105 1 0.0709625 12.7651 30.2605
1672 1 1.81798 14.2756 30.492
107 3 7.10777 12.5712 30.4126
2170 1 3.64636 12.6138 30.2448
3673 3 5.40479 14.3299 30.2399
1674 3 9.15114 14.2895 30.4318
2172 2 10.8045 12.5431 30.2983
108 2 14.1786 12.6326 30.1474
3674 2 12.7636 14.4462 30.3296
356 1 17.8699 12.7023 30.2825
1675 1 16.1025 14.1465 30.2604
2685 3 14.4211 7.25972 32.2258
1185 1 9.09912 12.5639 31.885
110 3 3.54501 16.018 30.3588
2175 3 7.01647 16.0787 30.2396
2181 2 14.3445 5.29677 33.7851
111 1 10.9493 15.9758 30.3824
1684 1 12.6199 7.39752 33.9125
2176 1 14.5276 16.0714 30.2868
2353 2 17.8652 9.21219 30.2222
555 1 14.344 3.57532 31.9371
122 3 10.9244 12.5047 33.9766
113 1 0.23072 1.87244 33.8392
2676 2 0.108064 -0.036657 32.0017
3175 2 1.81824 1.92568 32.0985
3683 2 9.07338 7.23354 33.7628
2680 3 10.9854 3.66578 32.1226
114 2 7.41735 1.91207 33.7048
1177 1 5.39588 1.93206 32.1043
1679 1 9.2213 3.72077 33.9069
2177 1 3.5433 2.08847 33.7553
1180 1 9.23406 5.38814 32.19
2173 2 0.0837504 16.1286 30.4494
2178 3 10.7615 1.89131 33.8152
3176 1 8.97275 1.99088 32.0869
2360 2 17.9275 16.0989 30.4044
115 3 14.2935 1.86526 33.8009
1178 1 12.6925 1.93513 32.0567
363 1 17.7623 1.79655 33.757
2678 1 14.1279 0.154455 31.9735
562 2 10.9121 14.3805 32.0613
3183 1 5.47343 12.495 32.1206
3177 3 16.144 1.85007 31.9277
3678 3 15.9813 0.105462 33.6842
553 3 0.166703 3.73166 32.0633
1179 3 1.67321 5.53575 31.972
1678 3 1.73758 3.69601 33.9658
2179 1 0.155425 5.34408 33.904
2687 3 7.12002 14.325 32.122
3681 2 1.78883 7.24544 33.8244
554 2 7.24388 3.74171 32.1461
557 3 3.46823 7.34871 32.121
116 1 3.57491 5.43934 33.7303
1682 3 5.37711 7.39082 33.8971
2180 1 7.21677 5.40169 33.7686
2683 2 7.19859 7.25619 32.3418
2679 2 3.37904 3.6679 32.0334
3178 1 5.3673 5.60723 32.2059
3679 2 5.47717 3.6562 33.9017
558 3 10.9112 7.21068 32.0544
117 3 10.9054 5.42151 33.8499
2681 1 -0.0281268 7.33069 32.1774
1064 1 1.96551 1.75221 35.5247
2184 3 0.163423 12.5558 33.8477
2803 3 7.14583 17.6361 32.1878
3641 1 12.5467 0.153499 23.0698
2566 3 10.6893 0.0133848 35.5516
2652 1 14.1819 0.0707044 24.89
1640 3 10.9223 0.294479 25.0126
1504 1 12.4263 17.8082 19.6919
2569 3 0.10249 3.62296 35.7085
3068 2 1.85062 5.39258 35.7058
2757 1 10.6303 17.5891 21.5125
2754 3 3.64871 17.8126 21.3349
1554 2 12.5086 17.7934 33.9076
2805 1 14.1902 17.9908 32.1898
3805 2 16.1627 17.922 33.79
3127 2 8.94772 1.87469 17.8185
971 1 17.9295 17.8926 28.6573
581 3 14.4565 7.32524 35.5694
1072 3 12.6661 5.401 35.5624
1130 3 12.5504 1.95702 18.0805