ITEM: TIMESTEP
5000
ITEM: NUMBER OF ATOMS
4000
ITEM: BOX BOUNDS pp pp pp
-3.6917692833643656e-02 3.5770977692833952e+01
-3.6917692833643656e-02 3.5770977692833952e+01
-3.6917692833643656e-02 3.5770977692833952e+01
ITEM: ATOMS id type x y z
5 1 1.6758 3.79147 1.60928
3148 2 16.3495 14.5059 15.854
1615 2 17.7943 7.14143 10.677
3567 2 0.0109891 7.0187 3.78939
564 3 3.53584 1.74752 1.61575
3569 3 5.12623 3.52163 1.55122
565 3 7.06807 1.35797 1.70116
2566 3 14.2539 0.0446874 0.104067
44 2 16.0549 -0.034734 12.5259
10 3 8.75069 3.6768 1.5798
1627 1 10.847 -0.0567265 14.2575
566 1 10.6994 1.68103 1.58236
2567 1 12.5831 1.73998 3.69977
567 1 14.3272 1.86886 1.93703
3089 3 -0.0276396 5.58214 8.72484
17 2 5.06399 16.1059 0.0275291
3564 3 16.2235 1.92826 3.55151
572 1 16.1349 4.09181 1.62625
3640 2 5.39025 17.6711 16.0695
1628 1 -0.000937097 5.19606 15.9515
1074 3 3.5157 5.3718 1.73355
6 2 1.85897 6.91988 1.93129
3076 2 1.8636 15.9475 -0.00075564
1075 2 5.53594 7.43095 1.712
2079 1 1.76094 12.5733 0.286978
1073 1 3.3978 7.21053 3.5046
3570 1 5.33201 5.21096 3.37371
2571 2 17.7546 7.27122 3.46546
1072 1 6.95854 5.26686 1.899
3571 3 8.88964 5.40219 3.55276
1568 2 8.70984 7.18956 1.95195
570 1 12.8004 3.57717 1.83096
1076 2 10.9132 5.01414 1.62044
2589 2 2.01151 0.0144868 8.88016
1570 2 14.014 5.26972 1.24812
1646 2 12.4107 16.1284 14.4329
3641 1 10.634 15.6342 16.2025
2075 2 16.1251 8.91606 0.0524404
574 1 1.75352 8.7081 3.88595
3621 2 8.87046 0.239145 15.9561
1116 3 10.7141 0.029213 10.9106
1575 3 3.2468 8.77693 1.93559
577 3 5.25697 8.8759 3.46555
1084 2 7.06366 10.7518 3.65003
2064 2 1.78637 1.7079 0.0117011
56 1 16.3383 17.8375 12.444
2068 1 7.13719 7.25717 3.63974
1576 2 7.24488 9.00735 1.75358
569 1 10.8048 6.89786 3.09925
2071 1 10.4633 8.93197 2.00051
1569 2 12.4077 7.03746 1.51873
1579 1 12.3413 8.77088 3.51793
579 1 10.656 10.7444 3.60204
2586 1 7.05237 17.7448 3.59268
1644 2 14.2372 17.8578 14.4708
1572 3 14.1079 7.07655 3.45023
1081 1 15.8017 6.94413 1.52575
2074 3 14.1536 8.89462 1.77556
2647 2 12.5701 14.335 16.103
1580 3 16.009 9.02553 3.51448
1605 2 1.81995 17.7382 5.31288
575 1 1.6701 10.7719 1.72611
1582 2 1.78851 12.4524 3.85589
2125 1 0.0200983 3.42922 17.8738
1083 3 5.21455 10.5942 1.77235
2081 2 3.43962 12.4337 1.98874
2574 2 5.41767 12.4673 3.46103
2610 1 12.1309 17.8126 5.55898
1087 3 8.81581 10.9309 2.02426
2575 3 7.02114 12.3487 1.86213
1583 3 8.85769 14.1817 1.72045
2072 2 14.4237 10.6174 3.50532
2579 1 10.547 12.6552 1.72737
580 1 12.6587 10.7868 1.51131
2085 2 12.3739 14.3032 2.12202
576 2 3.32405 10.4358 -0.00287228
2587 2 14.2484 17.656 3.91201
1581 1 15.8603 10.6831 1.7553
2580 1 14.3057 12.5082 1.90801
2582 2 16.1711 12.5505 3.49795
3067 2 0.0235691 3.56805 0.0599985
2078 2 1.75931 14.3478 1.76084
3576 2 1.66062 16.0008 3.58861
3077 1 3.25531 15.9095 1.587
3643 2 14.3964 15.9384 15.9935
3605 2 5.59834 0.220836 12.618
2082 1 5.12273 14.1813 1.96009
3078 2 6.85778 15.8275 1.70554
2142 2 6.9576 17.8426 14.3026
3080 3 10.3456 16.0355 1.74044
77 3 16.0349 15.991 17.7051
1120 1 17.7511 3.55263 10.4849
3081 3 14.3379 15.979 1.77073
2066 3 10.727 0.245081 3.59719
3111 2 16.2057 17.7532 8.67652
2583 3 15.9597 14.1958 1.74082
508 3 1.81913 8.96493 17.7597
3062 2 8.87111 1.84539 -0.0127307
2095 3 0.260551 8.59959 9.06518
2563 3 1.7651 1.94164 3.34195
584 3 1.75884 1.77052 7.04768
3585 1 3.30631 1.83826 5.05897
2069 3 3.54456 3.63242 3.5947
58 1 5.38139 -0.0434753 16.1563
2564 1 5.36426 1.81863 3.39289
3584 1 7.33769 1.89449 5.21662
22 1 5.22533 1.98652 6.97201
2565 3 8.73749 1.69795 3.4295
586 1 8.84104 1.92713 7.18032
3568 2 7.16845 3.66443 3.4389
3069 2 14.2778 3.64917 3.52879
3586 3 10.5289 2.07992 5.23221
23 1 12.5367 1.65499 7.24329
3134 2 0.0397153 7.0782 17.8336
2590 3 3.67962 0.0836312 7.10468
513 2 0.0150865 14.1823 14.2088
25 3 14.409 1.98204 5.21779
3595 1 16.0089 3.64783 5.4278
1127 2 7.23747 17.8355 10.8336
588 1 16.2206 1.80487 7.38125
3566 2 1.67151 5.22321 3.57557
3090 1 1.83726 3.54107 5.30612
27 2 1.88214 5.27932 6.98323
29 3 3.43313 3.44016 7.10136
3593 1 5.43624 3.47774 5.29259
590 1 3.73655 5.56484 5.44919
1094 3 5.35517 7.17299 5.29726
592 3 7.07375 5.30737 5.40791
31 3 8.91542 3.70246 5.20946
1097 2 8.91856 5.32048 6.99974
3572 3 10.5268 3.54083 3.46078
33 3 12.3555 3.51165 5.26464
594 1 10.8447 5.50262 5.48239
571 2 12.4639 5.32956 3.43406
35 1 14.1129 3.74544 7.05864
1100 1 14.4558 5.26856 5.25416
1099 1 12.5453 5.64277 7.22679
3107 1 6.97256 17.5538 6.97978
573 2 16.1978 5.29387 3.57996
1595 3 16.3286 7.19725 4.98393
595 3 14.3446 7.31377 7.22481
2067 3 0.0952135 3.58096 3.62138
42 3 0.135495 1.71029 12.5889
28 1 2.0498 7.1647 5.23626
3066 1 17.8643 1.5816 1.81776
3114 3 12.4416 0.140934 12.5597
578 1 3.54903 10.6157 3.64318
1103 2 3.68209 9.09378 5.08584
1578 1 8.93938 9.08139 3.4878
1590 3 8.91323 7.12377 5.6693
1597 3 7.21447 8.8224 5.33812
1592 3 12.5976 7.19729 5.26565
2097 1 10.7611 8.61132 4.95676
1598 1 12.7144 9.07883 7.00962
1108 3 12.3703 10.7126 5.21641
2098 1 14.3335 8.89873 5.36936
1599 2 16.1207 9.05021 6.97072
3087 2 12.4415 0.117756 5.52288
3108 3 8.9193 17.7695 8.84774
596 2 1.72418 10.5434 5.42048
2103 1 1.59487 12.4138 7.06651
2102 3 1.82576 14.3464 5.62038
3071 2 3.34762 14.0642 0.0696728
24 2 14.4158 0.0448474 7.05512
1104 2 5.08211 10.7723 5.41775
2600 1 3.30264 12.4012 5.3475
2601 2 7.08798 12.4304 5.22862
599 2 8.80846 10.6993 5.25665
2578 3 8.88356 12.6637 3.6216
2602 1 10.6101 12.1629 5.55296
2604 2 8.69435 14.2241 5.39974
2581 3 12.3276 12.4529 3.50854
2099 3 13.8726 11.0065 7.00757
2100 2 16.0455 10.7334 5.37919
2605 1 14.1438 12.4467 5.25167
3099 1 16.1661 12.245 7.05442
3602 3 3.40936 16.0643 5.27376
1604 1 1.87718 15.9151 7.1571
66 1 17.7329 5.11372 16.1812
3577 3 5.11209 16.026 3.46094
2083 3 3.31597 14.2419 3.66565
2104 2 5.1306 13.9229 5.19312
2577 2 7.25204 14.2716 3.52087
3601 2 6.89032 15.9737 5.42765
3579 1 8.8461 15.9973 3.65678
1567 2 7.24385 7.28107 0.0682331
2107 2 8.82721 15.8595 7.13723
3603 2 10.4006 16.0147 5.50478
3072 1 10.5988 14.3762 3.5443
3580 1 12.373 16.034 3.54776
3575 1 14.3048 14.087 3.56419
3098 1 12.4598 14.2738 5.29014
2608 3 8.6279 17.7563 5.38073
583 2 16.1197 15.8335 3.47623
41 3 14.0013 16.061 5.29933
3100 2 16.2401 14.2186 5.39001
2109 1 16.5713 15.9698 7.08236
1077 3 10.4918 6.91938 0.155648
602 2 14.4886 14.1082 7.10176
47 3 17.813 5.40414 12.3848
3606 1 8.82104 -0.0278208 12.38
1151 2 3.28105 17.5871 14.0634
3140 2 17.5839 6.97083 14.3771
2110 1 1.81664 1.87976 10.5777
2591 1 3.73929 1.70185 8.81908
1086 2 8.88278 8.87577 0.0450643
30 3 5.24859 3.79629 8.82545
3592 2 7.24904 3.73902 7.05822
2616 3 3.5824 3.55968 10.4014
3573 2 17.8215 10.677 3.48635
585 3 6.88398 1.75553 8.81999
2592 1 10.812 1.69518 9.30283
1591 2 8.89977 3.52435 8.97752
2143 1 7.17366 17.5815 17.7857
587 3 14.4252 1.72264 8.97718
3085 1 6.76397 0.0374716 6.85367
2595 1 16.0953 3.67388 8.90923
3086 3 10.8243 0.0284582 7.23733
3582 1 17.8898 17.7388 3.65649
589 2 0.0502629 5.25846 5.53363
2091 3 1.56687 3.78529 8.63779
3117 3 1.67925 5.26098 10.5545
1096 2 3.58434 5.56175 8.90726
3639 3 7.03873 15.7164 15.9495
1095 2 5.27613 5.46994 6.96718
3607 2 5.26254 5.38125 10.6762
3608 2 3.76287 7.30385 10.8877
591 3 6.99034 7.38949 7.07885
3091 3 7.15699 5.40269 8.7818
1588 3 9.13464 7.32635 8.78328
3609 2 8.72919 5.3575 10.7549
3594 1 10.771 3.42589 7.3924
2113 1 10.6417 3.75769 10.7029
1098 3 10.7041 5.47823 8.76519
34 2 12.4662 3.70033 8.99418
36 3 14.3411 5.43065 8.91373
3119 3 14.2355 3.49797 10.8164
1594 3 16.0629 5.25435 7.16282
2093 2 16.2243 7.30295 8.68769
2640 2 0.0102283 12.2924 16.0037
1102 3 1.66626 8.85919 7.05998
1093 1 1.89991 7.03828 8.81131
593 2 3.48914 7.10712 7.26963
2596 3 2.02728 10.8195 9.43401
3637 1 3.69382 15.9425 16.1977
3121 2 3.85602 10.5405 10.7621
38 3 3.26536 10.5146 7.3834
1596 1 5.1354 8.93825 7.03979
3591 2 5.43811 7.30731 8.84839
37 3 3.35196 8.81262 8.96799
1105 1 5.25206 10.4189 8.80531
1107 3 8.96976 8.93433 7.02274
2096 2 7.16943 8.95549 8.69112
1589 1 10.9396 7.34415 7.10148
39 1 10.966 10.5395 7.00329
598 2 10.7642 8.91658 8.97388
32 3 12.7493 7.31457 9.01796
2597 2 14.3122 9.04483 8.82753
1122 3 16.0957 8.79418 10.9019
3 1 16.107 0.0315906 1.51969
2649 2 10.7752 17.8008 14.3808
2599 1 3.57525 14.2081 7.46344
1123 2 1.61725 12.6424 10.9105
1623 3 0.126919 17.8433 10.3574
1600 2 5.35872 12.3686 7.06675
1618 3 3.64447 14.4164 10.5197
3095 3 3.72724 12.3642 8.96785
1111 1 5.51132 14.0897 9.01254
1106 1 7.04937 10.6216 7.02063
3596 3 9.06968 10.5663 8.77244
1601 1 7.10119 12.1998 8.77793
3097 1 8.82403 12.4654 7.18032
1619 1 7.1207 14.4324 10.8618
2603 1 10.535 14.2165 7.13345
1603 1 12.4304 12.7729 7.42975
2598 3 12.7726 10.7762 9.15108
3598 2 10.689 12.5689 8.76355
1620 3 12.5725 12.5852 10.3082
1109 1 16.0678 10.7276 8.62015
1602 2 14.4873 12.611 8.93054
1621 3 16.1132 12.4221 10.7221
3094 3 1.67634 14.0502 8.96525
2119 1 1.66191 16.0828 10.4451
2648 2 1.86114 17.5293 15.9112
3106 1 5.23419 16.0807 7.31295
2632 2 14.5394 0.301128 14.4941
2106 1 3.51314 16.0946 8.82889
40 3 7.15672 16.0957 8.69557
76 1 12.4971 17.7683 16.173
59 1 12.7736 0.147873 15.8812
1112 2 6.70662 14.1765 6.95707
3096 1 8.73832 14.168 8.87849
1625 2 7.1622 0.014368 14.3667
2609 1 14.1586 17.6961 7.15005
3604 2 12.2413 15.909 7.02039
1113 2 12.4199 14.4625 8.96666
2108 3 10.4316 15.9509 8.95358
2626 1 12.5789 16.2997 10.5658
3583 1 0.273681 1.5269 5.17477
1126 3 14.1338 14.6373 10.9684
603 2 14.1532 15.9984 8.63504
3102 2 16.1273 14.4053 9.04532
3063 1 8.97896 0.0514059 1.76565
1091 2 10.7439 17.5631 3.50905
604 3 0.20064 0.0584727 10.729
1150 1 1.8431 15.8842 14.2526
2629 2 1.86494 1.83497 14.2763
3631 1 14.4367 7.08356 14.4385
2111 3 5.36169 1.6801 10.6535
1115 3 12.4147 17.8647 8.92389
43 2 3.78185 2.02662 12.6459
3587 1 9.02555 0.127159 8.61467
605 1 6.98841 2.11811 12.5611
2612 1 8.71996 1.8136 10.5692
2112 3 7.09362 3.90503 10.6616
3129 2 8.914 1.93805 14.0913
1118 2 -0.0251722 5.31301 12.4593
2643 1 5.31734 14.1111 16.0838
2613 2 12.5721 1.79392 10.7131
2141 3 8.80181 14.0065 16.0454
606 1 10.64 2.13082 12.2884
1117 1 14.4238 1.61941 12.3069
3131 2 12.3457 1.90895 14.2372
3142 1 7.04816 12.392 16.1127
3116 3 16.1447 1.49013 10.6079
1121 3 15.9357 3.66563 12.4381
607 2 1.89579 3.50426 12.4639
1610 1 3.33578 5.25478 12.1207
608 2 5.37296 3.66171 12.5259
1612 3 7.08245 5.57334 12.5512
1611 3 5.44429 7.08879 12.4769
3610 2 8.72217 3.55823 12.522
2128 3 7.13717 3.61864 14.3765
1613 1 10.7822 5.30938 12.6944
46 2 10.8138 7.15824 10.7576
3629 3 8.79725 5.57533 14.2903
610 2 12.5359 3.7604 12.3738
3611 2 12.6881 5.48722 10.7023
1614 2 14.2681 5.59566 12.5067
2089 2 5.37701 0.136405 5.02175
3612 1 16.2202 5.32112 10.5892
48 2 1.7539 8.54863 10.9602
1119 1 1.83764 7.00607 12.6535
67 3 1.5197 9.16318 14.1188
2116 1 3.62331 8.81266 12.6454
49 2 5.5394 8.77721 10.6644
2619 1 7.35867 8.82337 12.5263
1616 1 5.43205 10.1181 12.6116
70 2 5.37854 8.6705 14.4766
612 2 6.97651 10.3746 10.5906
45 3 7.13117 6.97925 10.6718
613 3 9.14086 8.85525 10.6505
2114 1 9.02927 7.29579 12.6244
71 2 8.97369 8.82572 14.4148
2617 2 12.5809 7.2426 12.4312
2620 3 11.1331 9.06446 12.3695
614 1 12.8337 9.04451 10.7811
3122 1 14.2249 8.76227 12.4145
2638 1 14.6151 8.90855 16.308
72 2 7.00378 14.1142 14.0147
609 2 14.4078 7.3497 10.5597
2618 2 16.1356 6.90426 12.4834
611 3 1.59859 10.793 12.3211
3124 1 3.41634 12.384 12.0378
3123 3 1.77006 14.4311 12.3356
69 2 7.2653 10.308 14.3422
1124 1 5.44318 12.3836 10.6002
515 3 5.16266 12.471 14.3017
3614 2 5.34498 14.3899 12.3289
1125 1 8.93343 12.1237 10.8623
3125 3 6.92238 12.2664 12.5002
2117 3 9.06114 10.5376 12.4745
3615 2 8.9248 14.4699 12.2787
1145 1 8.94757 12.3659 14.106
3613 2 10.8037 10.7355 10.5308
3616 3 10.5112 12.6016 12.1722
1617 3 12.7546 10.7937 12.4188
3635 1 14.3092 10.7237 14.2462
50 3 14.7003 10.6578 10.7028
2118 1 16.2186 11.0601 12.5757
3617 1 14.3896 12.372 12.4551
1149 2 16.1047 12.3574 14.5132
3088 1 15.9047 0.238112 5.41187
1608 2 7.20979 0.0401293 10.6081
3133 1 16.0908 1.54317 17.7703
516 2 3.62017 14.3165 14.1034
53 3 3.62 16.1983 12.1852
3622 3 17.6975 1.59368 15.9757
3149 1 -0.0273196 15.9322 15.9339
2120 3 5.25635 16.0386 10.4738
618 3 7.03721 16.3161 12.3742
1642 1 5.41939 16.1619 14.1002
1643 1 8.89843 15.932 14.31
617 1 10.6885 14.4254 10.8267
2625 3 8.76901 15.9526 10.6406
73 3 10.5739 14.0066 14.1956
1146 3 14.2286 14.1969 13.9782
74 2 8.84319 17.7293 16.2435
2622 1 12.1371 14.3782 12.3881
54 2 10.6047 16.2097 12.5806
1647 1 16.0435 16.1072 14.2417
2628 2 16.2522 16.1398 10.6405
3618 3 16.0421 14.085 12.4412
620 3 14.1696 16.1622 12.7009
2641 3 1.86087 14.2411 16.0658
2642 1 3.65099 12.4327 16.1652
3112 2 16.1333 17.6902 5.82033
1129 2 3.58435 1.90731 16.1953
3128 2 5.19765 1.81584 14.465
2130 1 12.4166 7.00574 16.191
510 2 12.7027 8.9717 14.4516
1131 2 6.95532 1.86767 16.1466
1133 1 10.5428 1.65412 15.8365
621 2 0.0779268 1.74156 15.8677
3138 3 14.1646 3.55692 14.5095
2568 1 14.4758 0.0160868 3.47761
1586 1 17.7744 16.32 1.66639
514 3 1.75959 12.448 14.0145
511 2 16.3704 9.0446 14.3501
1584 2 17.8336 14.3266 3.3974
3143 1 11.0676 12.4027 16.0802
3132 2 16.0403 1.97064 14.3014
1134 2 14.1657 1.96987 16.1813
1139 2 16.2155 3.398 16.2262
3624 3 1.90163 5.22458 14.1107
3136 3 3.80461 6.69466 14.2462
503 3 1.99554 3.42434 16.0562
504 3 1.74438 6.87764 15.7484
1630 2 3.6037 5.35226 16.2083
3626 2 5.51486 5.30251 14.313
61 1 5.36503 3.56473 16.0643
2126 2 3.59489 3.5693 14.2164
1144 3 12.7983 10.7089 16.4922
3137 3 10.5483 3.56943 14.2355
506 2 8.78272 3.485 16.2018
1629 3 7.24 5.52993 16.1935
1632 1 10.6334 5.23479 15.9484
2129 1 9.20792 7.20982 16.1045
1147 2 12.4647 12.4982 14.402
1136 1 12.4479 3.80495 15.9998
3630 1 12.4978 5.22948 14.3156
2131 3 14.3865 5.25583 16.2702
65 3 16.2076 5.07558 14.1995
1633 1 16.1338 7.37068 16.4037
2135 3 16.3969 10.3815 16.3773
3144 3 14.4185 12.2975 16.075
1141 1 1.90141 10.7469 15.9144
2133 2 3.2055 8.59373 15.9482
3633 1 3.36388 10.7047 14.4672
1631 2 5.32253 7.18148 16.428
60 2 7.24261 7.39564 14.3233
3628 2 10.6976 7.26029 14.3576
3141 1 10.8029 10.4944 14.3121
2134 3 7.19763 8.84621 16.205
2637 1 11.1523 9.00955 16.1557
1636 3 9.06862 10.7094 15.9622
1635 2 5.52503 10.6493 16.1889
3590 3 0.0437308 7.20203 7.04435
3070 2 0.0304863 10.6975 -0.0198322
3642 2 8.94515 15.8792 17.7347
21 3 0.194091 1.71931 8.87332
52 2 0.209413 16.0935 12.4361
3562 2 5.28061 0.0539425 1.65083
3625 3 1.66597 5.25876 17.7496
2090 3 12.628 0.0697526 8.98061
2593 2 8.87725 0.189341 5.4377
3563 1 12.2571 0.213693 1.74417
2123 3 3.68668 0.0577991 14.079
1132 2 7.02594 -0.0424391 17.792
2614 3 17.7158 1.82365 12.6275
2611 2 17.7593 16.2482 9.02477
3105 1 3.53661 17.8223 6.75502
2627 3 17.8816 16.0731 12.4033
1593 1 17.8615 5.41274 8.77257
2570 2 7.14538 3.40726 -0.0317131
3599 2 17.8393 14.046 7.45551
1563 1 0.0705959 -0.0297632 -0.0303796
2132 3 0.130355 8.78737 15.9414
3104 2 0.0344222 16.0794 5.28086
3632 3 0.14376 10.4719 17.8584
1645 1 13.97 17.5961 17.6848
8 2 3.45969 7.27495 0.151502
1143 1 9.19676 8.95476 17.8289
3145 3 14.4602 14.3043 17.713
2122 2 1.60277 1.7765 17.8573
2073 1 12.2794 8.93326 0.0378213
14 3 10.4006 10.5123 0.0864824
3574 3 14.1876 14.2341 0.0173847
3073 1 8.74163 12.4153 -0.015514
1082 3 1.30301 8.89447 0.211007
9 2 8.69688 5.56009 0.156551
2080 1 5.17682 12.3755 0.0874741
18 2 8.81303 16.0405 0.00461579
19 3 12.4097 16.1116 0.240141
7 3 5.38234 5.41734 0.189094
2631 2 8.97178 1.56587 17.8334
62 2 8.86117 5.24187 17.7927
3638 3 5.38946 16.0517 17.8256
2088 1 14.3419 17.7881 0.140473
2136 2 1.80706 12.469 17.6541
1089 1 17.7528 14.4776 0.132236
3154 2 1.65606 3.68661 19.7922
2145 3 1.72673 1.5546 21.3211
3692 1 17.8189 14.2195 28.4953
80 2 3.72147 1.91815 19.7269
79 3 7.10787 1.5151 19.6822
1187 2 17.7856 16.2843 23.1476
2127 1 3.7365 3.24185 17.937
1638 2 12.9713 8.8372 18.054
2652 3 8.94643 1.55012 21.4663
3627 1 5.44027 5.53727 18.1223
81 2 10.7361 1.46739 19.5168
87 2 12.2909 3.20146 19.6773
550 3 0.00179006 8.97998 23.5613
11 2 12.4212 5.39103 35.6632
3164 1 9.16371 17.6852 19.5345
522 1 14.2376 1.49796 19.7814
1158 2 -0.00504459 8.76251 19.6076
557 2 17.8333 12.5994 23.3242
84 3 1.74623 7.22495 19.7077
3155 3 1.59771 5.29603 21.8249
3147 3 16.1112 12.4782 17.892
3210 2 -0.0448066 10.4952 32.0207
2177 3 10.6185 17.7754 25.0344
3649 2 5.32915 3.67369 19.7329
524 1 3.49598 5.41224 19.897
526 3 3.77606 7.0413 21.6784
85 3 8.70017 3.36219 19.798
525 3 7.17589 5.33186 19.7985
1155 1 10.375 5.22948 19.7648
3657 2 0.0378359 1.68835 27.1214
2656 3 10.6795 3.20187 21.274
1156 2 14.3039 5.27272 19.5341
527 3 12.5456 7.08681 19.7353
2688 3 0.0253977 16.2566 23.3287
3651 1 16.4038 3.43 19.6113
1157 1 15.997 6.95285 19.892
2646 3 12.7257 12.7506 18.0189
1663 3 3.62389 17.8435 21.4768
1716 2 12.5104 15.8703 32.3211
3686 2 17.7899 5.61776 30.554
1159 1 3.51872 9.00795 19.7094
3653 2 3.71206 10.6289 21.7366
529 1 1.79948 9.00916 21.5186
1005 2 0.084915 14.1827 28.5866
1657 3 0.0647067 12.4979 19.4674
1152 1 5.1979 7.15088 19.9424
1651 1 7.28621 9.01455 19.8525
532 2 5.3348 10.7191 19.7151
2703 1 5.48048 17.8434 30.5456
1154 2 8.91835 7.10038 19.8343
1161 3 9.16706 8.71734 21.5132
86 3 10.9522 6.93546 21.5342
1013 1 12.422 17.8644 30.6031
2197 2 14.24 0.0507462 31.9603
1652 3 10.8232 8.87004 19.92
1162 3 12.6703 8.75022 21.5707
1653 1 14.327 8.57223 19.7964
1656 3 16.1136 10.7315 19.6877
3217 1 10.5507 16.2375 33.9783
530 3 1.868 10.7116 19.5713
2654 2 17.8071 1.77184 19.6517
1659 3 1.75617 14.2181 19.3924
1658 2 1.81459 12.5457 21.4401
2191 3 0.0731657 12.3477 30.4979
2149 1 3.64192 12.4136 19.9051
2151 3 7.3332 12.3431 19.5659
2645 1 8.96242 12.1917 17.9073
90 3 9.02371 10.7431 19.8942
1142 1 5.33248 8.82165 18.159
1654 1 14.1923 10.4752 21.4355
534 1 12.6255 10.6347 19.632
2152 3 10.9325 12.409 19.8436
2659 1 12.7507 12.5518 21.5834
1017 1 0.123687 5.12604 33.9876
2155 1 14.4729 12.6247 19.6126
2630 2 5.31373 1.67358 18.0605
64 2 12.243 5.01131 17.9909
3161 3 1.71524 15.8889 21.5903
3061 1 5.47546 1.63772 35.5586
2664 2 3.44154 15.7951 19.3337
1163 2 5.2082 14.1573 19.5873
1571 2 14.1787 7.38418 35.6688
1025 1 17.8022 12.6954 34.1927
2138 2 5.27838 12.3493 17.8981
2663 3 7.00758 15.9606 19.766
1662 1 8.79902 14.0643 19.7488
2665 2 10.8068 15.7015 19.713
1673 3 0.146325 9.03876 26.9385
631 2 -0.0116306 1.87521 34.1999
2154 1 12.504 14.3687 19.7302
2658 3 10.6743 14.0919 21.5921
3656 3 12.2178 15.9375 21.4997
2156 3 16.229 14.4206 19.8771
3166 3 14.2304 15.8551 19.6824
2721 3 1.62426 17.6624 33.9066
2660 1 14.2014 14.4178 21.6753
92 3 16.1533 16.3084 21.3591
2692 1 17.7026 1.70786 30.3963
3173 3 1.64016 3.48287 23.434
3710 3 14.2654 16.0505 34.0925
93 1 1.59586 1.63046 25.1631
3169 2 3.50985 1.44803 23.1278
2147 3 5.4909 1.41232 21.4274
2655 3 3.28681 3.42065 21.599
3665 3 5.41447 3.57024 23.3924
2666 3 12.4823 17.7902 19.9369
1010 3 17.8182 12.5502 30.4872
2196 2 10.4637 0.0957017 32.3249
3170 3 7.19366 1.59139 23.1554
3660 2 10.7061 1.55735 23.2472
1189 1 3.57408 0.34123 28.698
2653 3 12.5655 1.66499 21.3457
3179 2 12.3097 3.44837 23.4307
2657 2 14.288 3.33516 21.0304
553 3 17.7175 8.81394 26.995
3663 2 14.2162 1.83614 23.3377
3153 3 16.244 1.87207 21.5303
539 3 15.9857 1.76665 25.185
98 3 1.52602 7.23802 23.5498
99 1 1.48814 5.27627 25.031
3156 1 7.13723 3.52012 21.2408
100 1 3.58285 5.35677 23.5722
3648 3 5.29272 5.15949 21.6465
541 2 5.63969 7.17677 23.2779
543 3 5.44503 5.29751 25.193
3650 1 9.14133 5.29472 21.798
542 2 7.27695 5.31743 23.7731
3666 2 9.1311 3.37174 23.1815
546 2 9.0964 7.06805 23.4447
547 3 9.17146 5.01866 25.2592
1170 3 10.9464 7.06952 25.1279
88 2 12.5416 5.10841 21.2888
102 3 10.7069 5.37385 23.4449
548 1 14.2495 5.14097 23.0739
1670 2 12.2645 6.95075 23.3455
89 1 16.1735 4.97181 21.1661
3668 2 15.7895 3.65176 23.117
1671 2 15.9549 6.81287 23.3319
1172 3 16.1019 4.97066 25.0967
2140 1 7.15042 14.253 18.0745
2674 1 0.205612 5.21166 26.7162
106 1 1.67479 10.694 23.2943
1175 2 1.9046 9.12924 25.1388
540 3 3.52819 7.04599 24.9514
531 2 5.41835 8.92767 21.5604
1177 3 3.36866 8.88758 23.2289
1153 2 7.21278 6.88771 21.4712
108 3 5.41251 10.9292 23.2713
1176 1 5.62893 8.71918 24.9001
1178 2 7.57514 8.70749 23.3151
101 2 7.28181 7.14259 25.2556
2148 2 14.1972 7.00687 21.4768
1674 3 10.8339 9.01529 23.3668
1675 2 14.3599 8.6194 23.177
1676 2 12.6417 8.81856 24.9327
1655 2 16.2418 8.82894 21.4126
1677 1 16.2498 10.5092 23.1494
1678 3 1.49272 12.5177 24.9875
1640 1 16.1945 8.84572 18.3366
3652 3 0.0573841 10.6016 21.2845
2169 2 3.67755 12.6156 23.1574
2150 3 5.38573 12.4348 21.4443
2167 2 7.18883 12.3968 23.3425
2170 1 5.43342 14.2474 23.3835
113 2 7.23686 14.3313 25.0532
533 3 7.06078 10.584 21.4496
552 3 8.76483 10.7109 23.3581
1180 1 7.11698 10.8899 25.1296
2153 2 8.74486 12.4676 21.508
2171 2 10.7427 12.561 23.2178
3160 3 7.18328 14.2723 21.526
2681 1 9.00657 12.5264 25.0441
1160 3 10.7678 10.7201 21.4844
1182 2 12.5859 10.9934 23.1432
2684 1 14.373 12.5093 23.1893
2661 1 15.8761 12.5826 21.7419
2173 3 16.0763 14.4628 23.2492
1184 1 1.5915 14.3609 23.598
507 2 16.1432 5.47455 18.1226
1684 3 1.78066 16.0821 25.0256
1661 2 3.68331 14.2156 21.6715
3185 1 3.51779 16.2948 23.307
3163 2 5.36004 15.9223 21.6909
3186 1 7.14079 16.0001 23.2262
2690 1 12.2721 17.734 23.2097
3655 1 8.69829 16.1191 21.4089
2682 3 8.9614 14.2225 23.3432
3675 1 10.756 15.8318 23.4067
1686 3 9.14631 15.9801 25.1044
2683 3 12.616 14.4831 23.4587
3676 3 14.5755 16.1084 23.3207
1695 3 0.161769 8.81329 30.1602
2157 3 1.73798 17.7838 19.8828
128 1 3.9168 17.833 28.443
115 1 5.48719 17.6904 26.8356
1701 1 6.95414 17.689 28.5455
2180 3 1.79309 1.93248 28.5643
2669 1 3.64141 1.76249 26.7036
3175 3 3.70244 3.67711 25.1544
3658 3 5.46487 1.60465 24.8688
94 2 7.18054 1.82551 26.6905
2675 2 7.06188 3.42483 24.9674
2181 3 5.4853 2.03103 28.4586
537 3 8.89325 1.64224 25.1231
3177 2 10.7262 3.17472 25.2248
2182 1 8.78693 1.61677 28.7235
1171 2 8.97405 3.39462 26.7646
3203 1 5.17944 -0.0266599 34.5057
3162 3 5.33051 17.6825 19.6389
1186 3 17.7994 17.7059 25.1741
2672 3 10.5727 1.68684 26.8269
3661 2 12.5138 1.59907 25.3067
104 1 12.3896 3.45998 27.2463
538 1 14.0827 1.73437 26.8808
3180 3 16.1385 3.44084 26.8264
3193 2 15.998 1.78445 28.5847
3064 3 12.4265 1.96189 35.654
1168 2 1.68324 3.54115 26.7881
544 1 3.49767 5.40324 26.8864
3194 1 1.83157 5.12012 28.6612
3176 2 5.53798 3.38558 26.7403
2676 3 7.1025 5.13921 26.9728
3174 2 5.27879 7.01011 26.8228
3195 3 5.04349 5.1783 28.6396
3197 1 8.96667 5.3066 28.6263
545 3 10.8431 5.34365 26.8795
1169 3 9.16687 6.96642 26.8574
549 2 12.3931 4.73582 25.2295
105 1 14.1937 3.5304 25.0381
3667 2 14.2188 6.92654 25.0621
3178 3 12.4851 7.20211 26.8252
103 2 14.0544 5.27129 26.7371
3681 3 10.7558 7.09826 28.7509
3683 3 12.4606 5.37294 28.7087
643 2 10.5707 14.2516 32.49
3685 1 16.144 5.39537 28.5754
1669 3 1.83949 6.9112 26.8457
107 1 3.6603 8.6567 26.8925
3670 3 3.4256 10.704 25.0319
3687 3 1.95588 8.74042 28.5271
2162 3 7.07874 8.93875 26.7338
3689 1 5.60188 8.65675 28.7672
551 3 10.9493 10.9193 25.1925
1181 3 9.02125 8.85661 25.0814
109 3 9.02266 10.6245 27.1651
625 1 8.82649 8.65436 28.6539
2163 3 14.4029 10.5646 24.6335
110 3 10.7271 8.93455 26.8825
3181 3 12.7164 10.3703 26.5402
626 1 12.5135 8.75138 28.713
3684 1 14.3668 6.72643 28.511
2165 1 17.835 10.8209 24.9335
1183 1 16.0327 8.74608 24.8881
1174 3 16.0547 6.79439 26.5179
2164 3 14.462 8.73558 26.9056
3065 1 15.9669 1.60142 35.71
2161 1 1.90677 10.6937 27.1432
1637 1 14.3731 10.6606 17.8949
2680 1 3.60723 12.5988 26.709
629 1 1.99533 12.6124 28.5966
1185 3 5.50925 12.6053 25.0433
1179 1 5.24398 10.6114 26.9491
122 3 7.13808 10.4358 28.5109
1679 3 7.04394 12.3695 26.8857
2172 1 8.97876 14.1122 26.8262
114 3 14.4466 14.1926 25.1062
3182 3 10.6586 12.3601 26.9749
1681 1 12.3712 12.645 24.9049
1682 1 14.2989 12.3087 26.7021
2685 1 16.1076 12.6658 25.0036
554 2 16.0023 10.407 26.7417
3184 2 16.0882 14.2147 26.6303
3215 2 6.74027 15.9678 34.14
2168 2 3.54135 14.0981 25.08
2679 3 1.74683 14.3899 26.7718
2192 2 1.73718 16.1271 28.4563
3187 1 5.35071 15.8238 24.9991
1685 3 3.5824 15.9881 26.8374
112 1 5.29312 14.1828 26.7885
2193 1 5.23101 15.9894 28.6732
3674 1 7.22252 15.8408 26.9091
1688 3 10.8417 16.0274 26.8727
2194 1 8.72538 16.0934 28.7446
3202 1 15.9561 17.7004 30.279
3189 1 16.1769 17.7887 23.1949
1680 2 10.7054 14.1224 25.1309
556 1 12.6295 14.2207 26.7424
3188 3 12.6351 16.0868 25.2039
3168 3 0.0014722 1.68633 23.4125
2677 1 17.8534 5.05059 23.1372
83 1 0.0496781 7.25992 21.6451
1689 1 16.1352 15.9963 24.9823
116 3 14.4 16.0121 26.6815
1667 3 12.4337 0.0090649 26.8334
140 1 0.314137 14.3213 32.323
1690 2 3.41234 3.40809 28.4968
2696 3 0.154054 10.6754 28.7094
3068 1 10.6953 3.55001 35.7715
117 3 3.40566 1.88028 30.5219
3662 2 14.3003 0.117022 25.2877
2710 3 7.12997 3.51661 31.9378
2585 1 6.92403 17.8677 35.6138
3151 1 1.39817 0.00683428 19.6464
1691 3 6.97677 3.78918 28.8035
118 3 6.92159 1.56184 30.4752
119 3 10.33 1.81778 30.4366
639 1 17.8579 7.35427 32.4878
2184 3 12.005 1.5912 28.9077
2695 1 14.2819 3.42088 28.5069
561 1 14.2798 1.76175 30.3959
3204 1 12.2057 1.68856 32.1343
2569 1 3.46204 3.49402 35.6821
3205 2 16.0589 1.70291 32.0678
623 2 16.0733 3.58647 30.4129
3214 3 -0.0270077 15.8535 34.036
2179 1 17.7852 15.9417 26.8798
120 3 1.65466 3.50298 30.5391
1001 1 3.36347 5.24331 30.4429
3680 1 5.32638 3.65853 30.582
3208 2 5.2098 5.13448 32.0171
2694 1 10.4312 3.35024 28.8187
3682 2 9.07725 3.78807 30.435
1191 3 7.06576 5.25381 30.5071
2693 3 8.91594 6.84384 30.392
3702 2 8.86604 5.32797 32.1641
2712 2 10.5235 6.94576 32.4025
1002 3 10.912 5.34373 30.3465
1003 1 12.6549 3.53485 30.5127
1693 3 14.2652 5.31689 30.344
3219 2 17.6778 17.7937 32.1909
1694 2 16.1766 7.19279 30.4445
3704 2 16.2248 5.4054 32.1202
523 3 0.0710757 5.3534 19.6768
3688 1 3.72185 10.5584 28.8371
121 2 1.96858 7.23206 30.5414
3196 3 3.59831 7.23569 28.5951
563 1 7.09663 6.97946 28.4127
1692 2 5.3241 6.8709 30.3572
1696 3 3.6534 8.80466 30.531
134 2 5.38931 8.73745 32.1455
3211 3 3.71842 10.7982 32.1088
2188 2 5.44103 10.7292 30.4496
3700 1 3.46857 7.01318 32.1637
2698 2 10.8239 10.4547 28.7175
2189 1 7.20134 8.86226 30.2982
2697 1 10.552 8.66825 30.6036
1697 1 8.96858 10.6767 30.2105
3209 1 14.438 6.91472 32.3356
2187 3 12.5402 7.18961 30.4598
627 1 12.5298 10.7222 30.3779
2699 3 14.3816 8.86643 30.4974
1088 2 14.144 10.7674 35.6884
628 2 16.1092 8.95288 28.6095
2190 2 16.2519 10.65 30.3331
136 2 14.142 10.6847 31.9902
2176 3 8.85106 17.6904 26.782
1660 2 0.236804 14.3411 21.4798
624 3 1.91446 10.537 30.3845
2700 1 3.41377 12.3933 30.4942
3707 1 3.31237 14.1278 32.2527
3691 2 1.62365 14.1364 30.3642
642 3 5.22136 12.4552 32.3439
1006 1 5.17432 12.7374 28.6513
1007 1 3.48559 14.1835 28.8814
3199 2 7.22512 12.3961 30.1841
644 3 8.7765 12.508 32.1269
1008 3 8.88943 12.5672 28.6254
630 1 6.96172 14.2027 28.7067
2701 3 8.80842 14.1406 30.4065
124 2 10.5695 14.3024 28.8505
1699 2 14.2448 14.2667 28.6994
3200 3 10.5518 12.3339 30.4268
1009 2 12.3092 12.7034 28.7338
3201 1 14.5747 12.5471 30.4788
1011 1 15.9394 12.5003 28.4637
3690 3 14.2429 10.4957 28.5831
1024 2 16.0512 12.1933 32.1649
1715 3 7.10327 17.8356 32.5997
126 2 3.41237 16.029 30.3872
2206 3 1.78817 14.0992 34.1828
1026 1 1.59711 15.8827 32.1836
2198 3 0.107526 7.11392 31.999
1027 3 5.30184 16.1384 32.1614
3198 1 5.23106 14.1821 30.6943
63 1 10.7336 7.16541 18.0181
1029 1 8.83366 16.0651 31.9899
127 2 7.10243 16.0071 30.6388
3696 1 10.6694 15.9487 30.6212
2084 1 10.7552 14.4588 35.6824
2702 2 12.3196 14.2664 30.6128
2195 1 12.377 16.2268 28.603
645 2 14.3519 14.3286 32.273
1717 2 16.1319 16.1401 32.0996
125 3 16.1311 14.5563 30.294
129 3 14.1087 16.0649 30.7054
2704 2 16.1263 16.0429 28.6174
2707 1 1.66934 1.84937 32.2765
3699 2 1.85007 3.38048 34.0926
3647 3 16.1476 0.145106 19.7043
3216 1 3.63045 16.0974 34.1727
2708 2 5.22452 2.09558 32.4048
633 1 3.41928 1.62815 34.0437
632 1 7.13299 1.77959 34.0341
132 3 5.37698 3.66013 34.2771
1020 1 8.90109 3.61532 33.9447
2709 3 8.76835 1.89227 32.1542
634 1 10.4916 1.7774 34.0027
2175 2 6.82077 17.787 25.0192
3167 3 15.9565 17.7099 19.4901
3074 2 12.204 12.6649 35.7191
2720 1 16.037 14.1142 33.9188
2718 3 14.2324 12.4676 34.0164
2200 1 14.6214 3.62945 32.2803
1016 1 14.2493 1.95341 33.6939
521 3 3.468 -0.0353831 21.3292
640 2 8.73482 10.714 33.8378
3213 2 12.3486 14.2096 33.9212
2714 2 16.2591 10.6842 34.1059
3207 1 1.91828 5.32028 32.094
636 3 1.45188 7.03957 33.966
1705 1 3.54999 3.48682 32.3176
1018 2 3.43391 5.36973 33.8784
1019 3 6.83463 5.22007 34.0172
3701 2 6.97496 7.02237 32.3023
1707 2 10.6604 5.11629 33.9087
1706 3 8.83468 7.13275 34.1057
1023 1 12.2375 10.6915 33.8483
2711 1 10.5632 3.56985 32.1516
3703 2 12.8436 5.24242 32.296
1708 1 14.1935 5.35988 34.112
637 2 12.4193 3.53025 33.7981
2717 2 10.5615 12.5619 34.1396
646 3 12.4742 12.3723 32.0946
133 3 16.2186 3.59738 34.0642
3706 3 1.95185 8.98335 32.5035
1135 1 7.20219 7.20182 18.1795
1712 3 3.51833 8.75118 34.0665
2201 3 7.18636 9.01628 33.887
2199 2 5.49895 7.05904 34.0546
1012 3 10.7108 17.7436 28.7218
3212 3 7.02657 10.9126 32.215
135 2 9.00786 8.90394 31.96
2202 1 10.6895 8.85842 34.0688
2713 1 10.4847 10.7444 32.3028
137 1 12.299 8.83972 32.0189
2203 3 14.0656 8.87303 34.0113
1021 2 12.2253 7.09921 33.7538
2207 2 8.80073 14.3219 34.2853
139 3 16.0766 8.80384 32.1808
1709 2 16.031 7.44335 34.1475
1022 3 5.30997 10.8217 33.994
641 2 1.7118 12.2714 32.2761
2715 1 3.40595 12.2656 33.9966
1710 2 1.6233 10.6479 34.138
1713 2 5.10397 14.0801 34.1743
3708 3 6.83594 14.2395 32.3657
2716 2 7.0277 12.4375 33.9859
1573 1 17.794 3.57833 35.7529
1687 3 8.98686 17.7453 23.5308
3677 2 1.72426 0.0471005 30.7022
1030 3 14.2567 17.7303 32.2356
3165 1 14.3756 17.6946 21.5492
558 3 12.4008 17.8525 26.6858
3664 3 16.0582 0.143312 27.0261
1714 1 3.53698 17.7185 32.1914
2635 3 10.6559 3.46737 17.9782
2576 1 7.02522 14.1932 35.6932
1190 3 0.142942 5.43419 30.0943
2706 1 17.7592 17.6325 28.3644
635 3 12.3614 -0.0371737 34.2992
3711 3 15.945 17.8143 34.1304
3672 3 1.93396 17.8337 26.8187