ITEM: TIMESTEP
5000
ITEM: NUMBER OF ATOMS
4000
ITEM: BOX BOUNDS pp pp pp
1.8915506453472730e-01 3.5908624935465610e+01
1.8915506453472730e-01 3.5908624935465610e+01
1.8915506453472730e-01 3.5908624935465610e+01
ITEM: ATOMS id type x y z
3566 3 1.78191 4.1376 2.03668
3063 1 1.62794 2.27006 3.70575
47 1 0.0233367 16.0199 12.6317
578 2 0.275566 10.6589 3.78293
678 1 7.20553 17.9055 14.4148
3064 1 5.40886 1.85733 0.199519
1 2 3.73647 1.75918 2.27514
1065 1 5.57807 2.2201 3.9023
1580 3 0.405447 3.94049 7.30631
2065 3 7.25928 1.95989 2.04079
3567 3 9.06912 3.61624 1.90728
2 2 10.989 2.1701 2.03762
3837 2 17.7957 10.8315 7.27621
278 3 18.11 16.3597 5.63057
2066 1 14.5039 2.19557 1.88237
629 1 3.65299 18.0194 3.86785
1067 3 12.647 2.15733 3.78309
3595 2 2.0768 0.366065 12.7139
3067 2 16.1939 1.97159 3.83719
2106 1 0.227773 12.851 12.6668
297 3 18.0126 16.0154 12.5158
2099 1 0.118627 5.63138 12.6774
258 2 18.164 12.8349 1.89092
1069 2 1.93696 5.88332 3.88721
2067 1 3.68544 5.55121 1.91372
2570 2 3.4627 3.67169 3.71014
1625 3 16.3518 14.5753 16.2778
1566 3 5.32523 3.49532 2.0148
3569 3 5.65172 7.29476 2.10138
574 2 3.88258 7.24298 3.68112
1597 1 16.0267 0.0571087 8.93968
3577 1 8.92532 0.267329 5.51108
4 2 7.44012 5.41672 2.01588
1071 2 9.15637 5.51512 3.73366
2110 2 0.17696 16.334 8.8905
2068 2 10.848 5.46896 2.08498
1567 2 12.6424 3.78651 1.66965
5 3 14.5339 5.61736 1.80405
1578 1 12.8136 0.202202 5.55904
2871 2 18.4307 10.8562 14.5208
3568 1 16.2468 3.87415 1.95532
1073 3 16.2728 5.63418 3.71197
1570 1 15.9439 7.49239 2.0575
1568 2 1.9216 7.33017 1.97811
3073 3 1.98659 9.02944 3.8798
1742 3 16.1822 18.1241 16.1262
6 3 3.85074 9.02583 2.07009
1571 1 5.5385 10.8012 1.68156
2580 3 3.76316 11.1756 3.82838
1692 3 16.3755 18.0172 2.03082
2595 1 0.322271 -0.046817 11.1856
2584 2 0.258234 14.5767 3.43445
1569 2 9.09559 7.19956 2.03728
2070 2 7.31235 9.14798 2.03409
3075 3 9.16253 8.99935 3.79996
3572 3 9.18389 10.8322 2.04773
7 1 10.9844 9.12141 2.03737
3570 2 12.7146 7.08386 1.68011
1572 2 12.8743 11.008 1.81877
2071 1 14.5233 9.23428 2.08762
3701 1 2.16378 18.2252 5.6321
3692 2 12.6393 18.1268 2.08811
3571 3 1.88159 10.7025 1.92297
2724 2 7.15851 17.9954 10.96
1079 3 1.80716 12.8425 3.79061
2072 1 3.66863 12.8436 1.94349
9 1 7.48323 12.5928 1.89176
3574 2 5.57321 14.4049 1.93226
32 2 0.0688335 2.03129 12.7549
623 3 0.251424 14.2279 14.3572
1574 2 9.04406 14.4803 2.03872
2073 2 11.1107 12.4308 1.95074
1615 3 16.2103 0.0712527 16.0539
1081 2 9.37379 12.8094 3.64438
3575 1 12.9382 14.658 1.78471
10 2 14.4172 12.655 1.78244
1070 3 5.57243 5.43854 0.20282
582 2 14.3414 10.8946 3.67978
3573 1 16.4438 11.0173 1.81342
1575 3 16.144 14.4987 2.08908
2568 3 14.464 0.403455 3.62389
1126 2 16.4363 16.2084 14.3951
2051 2 17.8998 1.93166 16.2553
3080 1 9.48344 12.8639 0.307195
1573 1 2.05395 14.6767 1.91337
3083 2 2.09302 16.3566 3.83553
1724 2 12.6807 18.2679 12.693
11 3 3.8697 16.2273 1.936
2075 3 7.41038 16.3593 1.91682
3098 1 0.162295 5.82388 9.03583
585 2 7.59815 14.3225 0.0923339
12 3 11.2368 16.2814 2.20514
3085 3 9.02626 16.4205 3.828
2076 3 14.5985 16.3196 2.04149
2588 1 14.3403 14.2091 3.6561
662 3 12.7849 18.0267 9.32222
2061 2 18.1405 16.4439 16.2801
2603 3 0.0353547 7.21251 11.0188
3087 2 16.3588 16.1651 3.87691
263 3 18.0546 2.11233 5.53268
1614 3 9.2344 0.153388 16.0993
2616 2 0.224639 3.78312 14.3106
2074 2 0.0819333 16.4545 1.86027
2077 3 3.56308 2.06311 5.514
2126 3 14.3114 16.1286 16.1278
2124 3 0.116416 16.2754 16.2018
3580 1 5.44786 3.97978 5.33253
2078 2 5.42567 1.88558 7.27136
14 1 7.32606 1.93633 5.44177
3065 2 8.97577 1.90618 3.83436
3088 3 8.79689 1.86146 7.50419
2079 1 10.6097 1.84159 5.52971
2615 2 10.8796 0.152158 14.3558
15 3 12.8851 1.94766 7.30517
3582 3 12.629 3.77838 5.59833
16 2 14.5866 1.85974 5.50498
757 1 18.0029 3.64479 3.70172
3597 2 9.04029 0.0847325 12.6263
1090 2 16.2134 2.19274 7.29494
1579 1 1.93294 4.03297 5.54717
3579 1 16.3318 0.241534 5.37085
3069 2 5.36799 5.44505 3.45715
17 3 3.76667 5.614 5.4666
2082 2 7.36115 5.47591 5.50238
1584 1 5.59261 7.36112 5.35873
3581 2 7.22189 3.67824 7.15359
570 1 7.29794 3.63727 3.77596
1581 2 9.06712 3.85046 5.44414
2576 1 7.3721 7.26335 3.85864
3585 3 9.27917 7.4835 5.47004
2572 1 10.8681 3.76217 3.61799
572 1 14.3592 3.80769 3.76352
3071 2 12.8407 5.50654 3.73295
19 2 10.855 5.51391 5.56023
2083 2 14.5306 5.69362 5.36934
2578 3 14.302 7.28234 3.79286
1582 2 16.0429 3.73315 5.26568
3586 3 15.95 7.62942 5.77053
3583 2 1.87337 7.382 5.63905
2085 3 3.91032 9.5209 5.50546
592 2 4.11767 11.0043 7.22821
1587 3 1.81438 10.8607 5.65805
1740 3 9.10094 17.9545 16.2838
1075 2 5.66019 9.09638 3.86271
3588 3 5.55693 11.0372 5.28761
591 1 7.32726 7.35758 7.21875
1589 2 6.9148 11.0431 7.3508
576 3 11.0858 7.38444 3.53503
22 1 7.34232 9.2227 5.77419
1588 3 9.25889 11.1246 5.54442
2086 3 11.1803 9.1797 5.60093
1585 2 12.6716 7.15907 5.56602
1077 3 12.9087 9.05868 3.63592
23 1 14.288 9.09856 5.57443
3077 3 16.1103 9.17328 3.75261
62 3 10.9645 16.3772 16.4569
25 3 3.88857 12.9904 5.47018
3591 2 1.97645 14.5905 5.56512
2125 3 7.27741 15.9077 16.1762
24 2 2.00511 12.7654 7.29067
2742 1 10.8316 18.2427 14.4957
580 3 7.50929 10.9617 3.58729
3079 2 5.62726 12.795 3.88795
2582 3 11.0998 10.7075 3.7207
2089 2 7.45766 12.7895 5.60245
26 3 11.0849 12.6811 5.31164
2586 1 7.16723 14.4129 3.69381
2090 2 9.09093 12.7272 7.42169
3589 2 12.8759 10.9548 5.54221
3081 3 12.7721 12.7023 3.79707
2091 3 14.479 12.8147 5.5327
594 2 14.631 14.5511 7.58654
1083 3 16.414 12.4685 3.75361
1590 3 16.2862 10.8027 5.46091
27 1 16.3044 12.7289 7.1209
901 3 18.218 18.1099 7.55244
1592 3 3.53858 14.5 7.40807
1094 3 2.01247 16.371 7.37739
1591 3 5.75684 14.4536 5.54103
584 2 3.57329 14.8046 3.74989
1085 3 5.64926 16.2105 3.81665
2092 1 3.89283 16.0699 5.48908
2093 2 5.23604 15.9972 7.39169
3592 2 9.13277 14.5737 5.46029
29 2 7.43185 16.3309 5.60621
2094 3 11.016 16.0826 5.53192
2621 3 0.0856211 10.9936 14.4602
586 2 11.0828 14.3049 3.61261
1593 3 12.7989 14.3653 5.37759
1087 2 12.8854 16.1505 3.89676
2017 1 17.937 5.45053 5.38647
13 2 0.192906 1.99581 5.73907
31 2 14.4863 16.1592 5.71657
3594 1 16.049 14.4631 5.54821
3123 2 5.55828 16.2087 14.4987
1596 1 12.6964 0.135889 12.5189
1089 1 1.98103 1.99103 7.39459
282 3 18.1078 1.86441 12.4957
2025 3 18.1402 12.5452 5.55895
3095 1 3.53334 1.84369 9.14843
3599 2 5.30403 3.78823 9.17012
33 3 7.14648 1.97729 9.15886
2722 3 5.29471 17.8173 8.97572
1097 1 10.8551 2.0617 8.88083
3096 1 9.05551 1.8878 10.8354
633 1 10.9534 17.9744 4.04167
590 3 10.848 3.78869 7.19218
2841 3 18.3527 7.35042 7.42044
2601 3 10.814 3.75035 10.7294
1600 2 12.6306 3.7641 9.12728
1098 1 12.4371 2.04101 10.6119
601 3 14.5171 3.74383 10.8653
2098 3 14.5068 2.1235 9.0795
1583 1 14.497 4.22787 7.37896
3097 1 16.1175 2.12297 10.8068
3584 1 3.89427 7.22603 7.05349
2599 1 1.8802 3.81967 9.18808
2081 2 2.0536 5.71757 7.267
2590 3 3.65214 3.783 7.24707
3089 3 5.61273 5.53834 7.23867
36 3 3.69023 5.67865 9.07408
1100 2 7.25989 5.69675 9.18483
599 2 8.94229 3.68294 9.01513
18 1 9.09642 5.5438 7.3558
1603 2 9.13276 7.30487 8.99675
2101 3 10.9959 5.70943 9.04302
1091 2 12.5885 5.47006 7.33187
2605 1 12.6405 7.62645 9.44745
2084 1 16.1719 5.75646 7.44965
2602 1 16.377 4.15915 9.04122
3101 3 14.3597 5.61055 9.27126
1622 1 12.9279 10.7373 16.2891
1102 1 16.2884 5.49743 10.8989
3090 2 1.8053 9.12421 7.36773
3602 2 1.90713 7.45521 9.11381
605 3 2.28239 10.8643 8.89995
3625 1 12.6237 14.4944 16.3532
21 3 5.4533 8.86224 7.36906
602 2 5.47472 7.44277 9.03757
1103 1 3.76389 9.09622 9.08503
1104 3 5.32535 9.13109 10.8799
2104 1 7.31499 9.34047 9.14312
607 2 7.41812 11.0143 10.841
1092 3 9.34436 9.07325 7.56079
2608 1 8.96428 10.944 9.08835
3103 2 9.1689 9.27975 10.8191
2593 3 10.884 10.9222 7.72893
2592 3 14.4238 7.32149 7.5153
1586 2 11.0639 7.40982 7.41668
3104 2 10.8978 9.21831 9.18022
2087 3 12.6866 9.25618 7.36095
42 2 14.5974 8.95966 9.20917
3605 3 16.6826 7.3298 9.17599
3091 1 16.1857 9.07008 7.46289
3105 1 16.3699 9.03811 10.8199
3624 2 5.57504 14.3921 16.2555
609 3 14.5976 10.782 11.0458
608 1 16.3814 10.8356 9.17297
2755 3 7.17754 18.1731 17.9088
1107 1 2.02381 12.6851 10.8573
1606 3 5.38946 10.9074 9.28314
1093 1 5.50591 12.9415 7.28855
2107 3 3.57208 12.8867 9.09052
3107 1 7.13537 12.6889 8.98983
2607 3 3.72818 11.2005 11.0242
45 1 11.0224 12.7325 9.22296
1108 1 9.12096 12.6026 11.1216
3092 3 12.6541 12.578 7.27234
3590 1 14.7123 10.864 7.30235
3593 3 10.7381 14.4821 7.40812
3608 1 12.9238 11.0094 9.16812
1109 3 14.4793 12.8236 9.11085
61 3 3.81219 16.4119 16.1597
1612 3 16.5338 14.4671 9.13768
39 2 0.166691 9.13539 9.09213
1609 3 1.85121 14.6044 9.35308
3110 1 3.70851 16.0598 9.09762
610 1 3.84099 14.5533 10.9839
3074 2 5.40634 8.97065 0.0506672
3109 2 1.83929 16.3074 10.9964
2611 2 5.54603 14.5528 9.27694
1111 2 5.45157 16.0168 11.0188
1142 3 2.11283 12.5754 17.9056
2594 2 7.31225 14.7099 7.33631
1138 1 5.70011 8.97792 17.9984
3611 2 9.01457 14.4356 9.15681
48 1 7.36635 16.2523 9.27899
3093 3 9.23158 16.3006 7.28545
2612 1 7.39891 14.5488 11.01
1112 1 10.8229 16.1959 9.28113
30 1 12.5306 16.034 7.33071
611 2 12.8945 14.5133 9.34694
2113 1 14.4475 16.3362 8.84859
1706 3 12.8572 17.8717 5.56906
2866 3 17.9419 3.95149 14.4689
2638 2 7.3956 7.4087 17.8863
1095 3 16.4375 16.4042 7.58289
3094 1 1.99402 1.93166 11.1292
1114 1 1.90231 2.25102 14.4046
1598 2 2.13837 3.92476 12.7676
2096 1 3.91385 2.03434 12.5732
616 3 3.82957 3.76043 14.419
598 1 0.351129 3.86715 10.9903
1096 1 5.4338 1.88583 10.9715
34 3 7.15295 1.92268 12.7738
2036 1 18.272 5.47955 12.544
3600 2 5.41292 3.76089 12.5102
1599 2 9.12932 3.39848 12.5837
1115 1 9.18209 2.15946 14.403
28 1 0.175549 16.2032 5.40092
3707 1 16.2322 17.977 5.54287
2097 2 10.9848 1.86765 12.7224
3601 1 12.6446 3.63857 12.4523
3114 3 12.5755 1.76018 14.4566
617 2 10.9154 3.7392 14.4365
2618 1 14.3424 3.46198 14.4154
1595 2 5.2734 0.111107 12.8712
625 1 14.3585 14.3022 14.3766
35 3 14.5171 2.03009 12.5468
1601 2 16.425 3.68001 12.4419
1116 1 16.3752 1.97868 14.3842
1099 3 1.92909 5.70572 11.0384
1086 1 9.31133 16.2578 0.402097
37 1 3.84219 5.67787 12.6745
1124 1 1.93208 16.2449 14.4909
600 1 7.27286 3.60889 10.9806
3099 1 5.6775 5.62498 10.734
2600 2 3.65068 3.65052 10.6421
1117 3 5.7501 5.44966 14.2685
2100 1 7.64853 5.40024 12.7594
1101 1 9.03603 5.45894 10.9519
2604 1 7.40188 7.45198 10.9208
38 2 10.8879 5.29028 12.6348
3116 1 9.26926 5.306 14.3119
3604 3 9.21176 7.2812 12.5597
3100 2 12.6317 5.40978 10.978
2102 3 14.3894 5.31318 12.5458
1604 1 12.5072 7.3098 12.6339
1118 3 12.8074 5.45391 14.3414
2606 2 14.6625 7.52203 11.2854
3606 1 16.5503 7.38133 12.9191
1594 2 1.93023 0.0453691 9.27348
3603 2 1.95649 7.16226 12.72
3102 3 1.89136 8.99995 10.8479
1119 3 1.81554 8.9106 14.4542
2103 3 3.68335 8.89581 12.8391
1602 3 5.69306 7.35106 12.5229
603 2 3.61917 7.36261 10.6652
3118 1 5.65235 9.00039 14.3991
604 1 10.9386 7.30625 10.7452
41 2 7.41683 9.12282 12.7324
1120 2 9.05928 9.02962 14.421
622 2 10.8429 10.7041 14.4963
1607 2 9.14219 10.6328 12.6582
2105 2 10.9562 8.90084 12.7267
2609 2 10.9089 11.0425 10.7302
619 1 7.45593 7.34936 14.3464
1105 1 12.739 9.22609 11.1549
3119 1 12.628 9.06495 14.5651
2624 2 3.836 14.3791 14.3727
43 1 14.7154 9.28178 12.8525
2623 3 14.6124 10.9149 14.4617
1148 2 5.42559 16.1615 17.923
1605 1 1.96042 10.706 12.7141
3607 3 5.68271 10.9506 12.7554
44 1 3.7546 12.8128 12.7543
3106 3 5.64067 12.6727 11.079
1122 2 5.42392 12.6863 14.442
2108 2 7.68774 12.7953 12.7158
3121 2 9.35509 12.7121 14.3756
46 2 11.0218 12.5837 12.5904
3612 1 9.33418 14.531 12.7221
624 2 7.48793 14.3839 14.3212
3108 1 12.8019 12.4623 11.1676
3609 1 12.683 10.9346 12.7539
1123 1 12.6117 12.6066 14.488
1110 3 16.1998 12.5156 10.988
2109 2 14.5748 12.6307 12.7451
1608 1 16.2657 10.8865 12.7262
3565 3 12.6367 0.266478 1.98001
3610 2 2.06284 14.4253 12.5324
2111 2 3.72873 16.4364 12.8592
1610 3 5.75159 14.4328 12.6933
49 2 7.24567 16.3416 12.8091
3111 1 8.99248 16.5007 10.9294
612 2 10.9981 14.4601 11.0357
2625 1 11.1754 14.3997 14.6081
1125 1 9.08798 16.3223 14.4313
3124 2 12.8087 16.2713 14.3881
1113 1 12.7274 16.2524 10.8346
2613 2 14.7181 14.4356 10.9917
2112 2 10.9675 16.4704 12.565
1611 3 12.8074 14.5213 12.6322
3596 2 9.0187 0.246263 9.24078
3112 1 16.2453 16.3156 10.9409
50 3 14.5113 16.2593 12.5695
3613 3 16.2616 14.2482 12.6716
3578 3 10.7713 0.326363 7.22437
51 1 3.61094 2.09828 16.1917
3616 2 1.92579 3.83416 16.0598
2589 1 7.19024 0.175165 7.41299
3113 3 5.4401 2.04278 14.7552
1616 2 5.70569 4.02314 16.3772
2115 3 7.37089 1.91527 16.4867
569 1 3.48701 3.69829 0.122802
618 2 0.0595309 7.28723 14.4871
522 3 3.80454 14.5317 17.9168
676 2 0.129658 17.9065 14.3479
2617 2 7.38311 3.59104 14.4356
52 2 11.0399 1.99579 16.13
3617 2 9.0759 3.70314 16.157
1624 1 9.22644 14.2935 16.3889
2116 3 14.4624 1.90626 16.1421
2095 1 0.417517 1.88175 9.16494
2835 2 18.1733 14.4552 4.00633
3618 1 16.2749 3.50711 16.2581
60 2 14.3446 12.7167 16.3254
3115 1 1.88195 5.70912 14.4324
2619 2 3.8203 7.27491 14.3545
2117 2 3.6862 5.76699 16.2818
3619 3 5.73541 7.01949 16.0633
2698 1 14.5485 17.8588 3.82331
1564 1 9.23417 0.255801 1.91535
2598 3 14.4194 0.175195 10.7561
54 3 7.57318 5.63804 16.2199
1619 3 9.28323 7.35692 16.2862
2118 2 11.0105 5.49113 16.4266
2620 2 10.9439 7.18029 14.4478
59 1 7.30814 12.5563 16.1276
55 2 14.4656 5.49349 16.1365
3620 1 12.761 7.28054 16.2533
1617 1 12.8 3.76222 16.0444
2123 3 10.9782 12.6031 16.2526
2122 3 3.9173 12.6172 16.1861
620 3 14.406 7.29313 14.1411
3117 3 16.1544 5.51444 14.503
1620 3 16.2855 7.2275 16.0882
659 3 3.70089 17.9787 10.9542
3122 3 16.4231 12.8084 14.5371
621 3 3.81119 10.6264 14.4536
1618 3 2.04965 7.43525 16.1987
1623 1 1.93403 14.2051 16.2132
56 3 3.91866 8.77902 16.3166
1621 3 5.69755 10.7437 16.2704
2120 3 7.25173 9.11805 16.0812
2622 1 7.55893 10.8294 14.4408
3622 2 9.17938 10.8509 16.1237
3723 2 9.11495 17.8752 9.07609
57 1 10.9241 9.17542 16.0691
2121 2 14.4099 8.76408 16.2298
3621 3 2.09987 10.8741 16.1828
653 3 14.3003 18.0016 7.3287
1121 2 16.295 9.18882 14.6035
3623 3 16.3604 11.1385 16.1628
3120 3 2.00196 12.6787 14.4348
3615 2 12.9447 -0.00496093 16.4047
2581 1 7.28858 10.7943 0.167102
614 3 7.28293 0.36155 14.5066
2585 3 3.83751 14.4469 0.0691373
634 1 14.5948 18.2697 0.0971824
2114 3 0.0813131 2.15869 16.1336
8 1 0.211629 12.7086 1.85697
3614 3 5.53094 0.180849 16.2561
2614 2 3.50976 0.303664 14.5541
1613 3 1.72914 0.269251 15.988
3720 3 1.88631 18.1397 12.7357
589 1 14.5581 0.0198996 7.25665
2740 3 3.71928 18.2736 14.4927
1064 2 1.99973 2.04869 0.616404
3143 3 12.656 12.6235 18.212
2634 1 10.9778 3.65184 18.0041
2642 1 3.71469 10.8592 18.1592
2644 3 10.8791 10.564 18.0251
771 2 17.9409 14.6717 0.281773
510 1 14.5217 3.82283 17.9718
2577 2 10.6977 7.33977 0.208704
520 2 14.6492 10.8818 18.0403
3086 3 12.8723 16.3635 0.0979215
3125 1 2.02563 2.19367 18.0554
1136 3 16.4951 5.44133 17.965
502 3 3.66378 0.334793 17.9907
3149 2 16.3727 16.1649 18.1914
2695 3 11.0744 17.9273 0.222341
2632 3 3.57493 3.88589 17.8881
3139 3 16.2287 9.11723 17.8099
3078 1 2.08825 12.6763 0.0165631
1072 1 12.6253 5.47721 -0.218435
581 2 11.0256 10.9636 0.0970788
3137 3 8.99342 9.07806 17.8899
3082 1 16.3331 12.8455 0.225349
2628 3 7.31665 0.158766 18.1625
575 1 7.19962 7.35876 0.16238
1088 1 16.2293 16.1932 0.0312293
2501 3 17.9859 0.186677 17.9877
3084 2 5.64492 16.0494 0.240817
3127 3 9.34106 1.80106 18.1391
2571 1 7.2406 3.65154 0.0918393
1076 3 8.98885 8.92105 0.38754
2759 1 14.6689 18.0936 18.1634
2691 3 3.87195 18.173 0.32256
3676 1 1.91447 0.144393 34.3386
1628 3 2.22312 3.85885 19.6926
1132 1 1.80258 5.74803 17.8832
2561 3 18.2076 14.5125 32.1952
694 3 7.20734 17.9933 21.2899
2127 3 3.89286 2.00201 19.7423
64 2 7.35054 2.0288 19.8225
3629 3 5.73872 3.94821 19.6979
3126 1 5.63811 2.07576 21.5122
1677 2 12.9347 0.10106 34.1134
1629 2 9.01927 3.54828 19.5892
2128 1 11.0636 2.15884 19.7826
509 1 11.0761 3.79334 21.5341
2633 1 7.41791 3.62916 21.7335
3630 1 13.1813 3.53607 19.6607
65 1 14.864 1.79293 19.8624
1630 1 16.2554 3.62219 19.8596
2635 1 14.7972 3.65495 21.534
1131 2 16.4239 1.90682 22.0174
1639 1 8.98597 0.500872 23.7009
505 1 14.6885 0.0528107 21.6727
66 2 3.98959 5.62534 19.7051
1532 3 2.02749 17.8604 30.5872
337 3 17.8918 12.7994 23.6122
1631 3 5.82736 7.12735 19.7214
2130 3 7.50771 5.56312 19.7812
3145 2 1.91793 16.2259 17.9627
67 1 10.9671 5.19916 19.7024
2131 3 14.47 5.52522 19.7275
2639 2 11.0227 7.09604 21.3073
1135 2 12.7245 5.46095 21.4295
2326 1 18.2861 2.06533 23.7354
3633 1 16.5137 7.24562 19.77
3134 2 16.5093 5.35577 21.5463
526 3 7.15367 0.152326 25.1455
2352 3 17.9913 9.09853 26.7253
3631 1 1.83533 6.95693 19.8937
1633 3 2.1945 10.9027 19.7446
1137 3 1.95283 9.10416 21.6192
3147 1 8.7509 16.1378 17.8585
3187 3 16.1484 16.25 32.4485
2132 3 3.92656 9.00967 19.7294
3136 1 5.64025 9.20018 21.5822
517 1 3.46831 10.7391 21.7238
698 2 14.5138 18.2009 21.5813
323 3 18.1292 16.1619 19.7523
841 2 18.2771 7.24532 25.1675
69 3 7.35324 9.00115 19.8192
3632 1 9.03043 7.34973 19.6886
1139 3 9.14674 9.09683 21.8334
2133 1 10.7779 9.07654 19.7546
1632 1 12.9046 7.38889 20.066
70 1 14.7899 9.11039 19.6958
3635 3 12.6685 10.6536 19.6912
521 3 0.204147 14.5055 21.5343
71 1 3.75576 12.8014 19.8147
3140 1 1.78122 12.8348 21.5356
3636 3 2.01515 14.385 19.6975
87 1 0.022134 12.7542 23.3821
3634 1 5.43443 11.0016 20.1045
1636 3 5.37539 14.4799 19.7457
503 1 7.13926 0.16395 21.7143
1634 2 9.2727 10.8472 19.8054
2135 2 7.14565 12.4457 20.05
72 1 11.0775 12.6983 19.7724
1145 3 12.7029 12.7353 21.4878
1637 3 12.9083 14.538 19.6649
525 1 14.47 14.4328 21.7554
853 3 18.2616 7.60564 28.5584
1150 3 12.7786 16.2688 18.124
2136 1 14.6516 12.7463 19.5193
1635 3 16.4387 11.0197 19.8453
508 1 7.32557 3.586 17.9089
2137 1 3.85226 16.2541 19.5539
715 1 7.23151 18.0315 24.8598
3751 1 2.09902 18.087 20.1063
2341 2 18.1374 16.2077 23.4034
3068 3 1.88411 5.59754 35.6238
1146 2 16.2728 12.6421 17.8215
3637 3 9.42512 14.4177 19.7489
74 2 6.95502 16.2583 19.7068
1149 3 8.80694 16.3541 21.1518
2678 2 14.7864 0.371591 32.2992
2567 1 10.7354 -0.044247 35.9406
2138 3 10.808 16.2966 19.6007
3148 3 12.4443 16.3008 21.3277
573 1 0.0301282 7.38907 36.0515
3638 2 16.1228 14.3645 19.9364
75 1 14.6075 16.1651 19.859
1151 3 16.2202 16.3562 21.5395
3801 1 1.9591 18.255 34.2895
1127 3 2.18818 1.75712 21.6586
511 2 0.300669 7.28409 21.765
2316 3 18.2018 5.49489 19.8829
76 3 3.56218 1.63484 23.4578
1642 2 5.50261 3.83619 23.3385
3072 1 16.3261 5.86165 35.9911
2140 3 7.30479 2.17249 23.5052
1129 2 9.36322 1.97061 21.6739
3644 3 9.34093 3.96431 23.363
78 1 10.9733 1.9833 23.2248
2653 1 10.929 3.92466 25.2222
3128 2 12.9354 1.89028 21.7679
2141 3 12.5852 2.10904 24.9691
2142 3 14.6705 2.00304 23.5485
1644 3 12.8354 3.60198 23.3384
2371 1 17.8651 12.9451 34.1821
3141 3 5.61072 12.5525 18.1009
3151 1 16.5123 2.081 25.0793
3645 2 16.5623 3.79917 23.4871
3130 3 2.03139 5.31103 21.8253
507 1 4.06045 3.60706 21.5845
3642 3 2.16773 3.76845 23.487
1645 1 2.30282 7.34082 23.3865
80 1 2.12203 5.70757 25.2398
630 2 7.50349 17.9363 36.1848
1188 3 12.6709 16.234 32.2074
2637 3 3.71308 7.2907 21.608
527 3 3.49626 3.62809 25.4084
2143 2 3.8416 5.48809 23.4945
1133 3 5.42333 5.79124 21.6939
3647 1 5.59106 7.30923 23.2989
513 3 7.51722 7.53048 21.6952
1153 2 5.29218 5.3262 25.1183
3132 3 9.29328 5.56513 21.5863
81 2 7.1911 5.56158 23.1717
2144 2 9.12927 5.55034 25.186
2145 2 11.0598 5.44593 23.2445
3152 2 12.5976 5.56396 25.0949
529 1 14.4171 7.60508 25.0117
3648 1 12.5751 7.20639 23.2535
82 3 14.4892 5.54916 23.3329
515 1 14.686 7.49409 21.5835
1648 2 16.4895 7.2068 23.1892
3417 3 17.9502 12.6755 26.8937
1154 1 2.11502 8.98495 25.2777
1130 3 12.7297 1.92313 17.9479
84 2 3.66482 9.08601 23.3607
2147 1 5.57297 9.18543 24.9108
1650 1 5.47001 10.7204 23.1157
1647 1 9.177 7.10648 23.4347
2148 2 7.3208 9.23367 23.3318
3649 2 10.8428 7.21117 24.9627
3138 3 12.6729 9.2351 21.4384
85 2 10.9138 9.12062 23.4006
2149 2 14.4281 9.2788 23.3333
1651 3 12.7265 10.7341 23.3192
1141 3 16.3931 9.03771 21.6265
3653 1 16.165 10.8208 23.3227
79 2 0.379632 5.65225 23.3248
1519 3 16.3234 18.0289 23.3163
3650 3 1.84543 10.646 23.4204
2150 1 1.91077 12.6093 25.1388
2151 3 3.64686 12.9163 23.2002
523 1 7.22806 14.3474 21.3601
3652 3 7.34102 11.0216 25.2024
1143 2 5.36465 12.583 21.7543
3154 1 5.18566 12.6775 25.0533
3654 2 5.51028 14.6132 23.3248
2643 1 7.45232 10.9278 21.5527
519 2 11.0664 10.8261 21.6433
3142 3 9.27805 12.7534 21.5456
3651 3 8.97664 10.9697 23.4616
88 1 7.14526 12.5947 23.4171
1654 1 9.04018 14.4728 23.3638
2649 3 10.9869 14.519 21.6298
2152 1 10.7816 12.6046 23.4945
1156 3 12.8506 12.7383 25.4439
3144 2 16.228 12.6992 21.5927
2645 2 14.2674 10.8832 21.5448
90 1 14.4662 12.5754 23.3955
1656 1 16.156 14.6309 23.2399
3753 2 8.95198 18.2507 19.4488
2647 1 3.81432 14.3525 21.3882
1147 2 2.04526 16.1664 21.7078
1653 3 1.91044 14.4433 23.2775
91 1 3.62041 16.3172 23.3231
724 2 7.35038 18.0502 28.6966
534 3 7.35791 0.367977 28.6094
3146 3 5.20851 16.2929 21.4149
1659 1 9.04116 0.467306 30.4288
2155 1 7.55805 16.0304 23.1905
113 1 0.218046 1.88211 34.1477
3656 3 12.6329 14.2106 23.5591
93 1 10.9431 16.1906 23.3941
2157 2 14.2234 16.3457 23.2237
2156 2 12.726 16.1701 25.1709
1655 3 10.8127 14.3852 25.1041
2587 2 11.0984 14.4934 36.1354
125 3 14.5162 16.2108 33.9743
1641 2 16.4619 0.114599 23.5917
2657 2 14.622 14.6439 25.2295
3156 3 16.1947 16.5085 25.2066
2784 2 3.59982 17.9079 28.5808
2631 1 0.377776 3.66613 21.7623
318 3 17.9272 9.11306 19.7704
3150 2 1.76654 1.84919 25.2841
1159 2 3.6352 1.97415 27.2431
536 3 2.06094 3.84781 27.1067
77 2 5.31215 2.06049 25.23
3157 2 5.46978 1.9434 28.7076
2159 2 7.27088 2.14311 26.9101
742 2 10.656 18.0172 32.344
1152 3 9.08318 2.21172 25.1286
2660 2 10.8612 0.370439 28.8524
1643 1 7.4031 3.89199 24.9865
2662 3 9.0078 3.85616 26.837
3158 3 10.7656 2.05183 26.691
3663 2 12.5723 3.84746 26.7835
97 1 14.2769 2.25932 26.7934
2664 2 14.8426 3.76669 28.757
3646 1 14.4742 3.84764 25.1514
539 1 16.3577 3.87574 26.9537
1078 1 16.2993 9.37782 35.9345
3160 3 2.08773 5.4849 28.8224
1661 1 5.50555 3.62851 26.8549
2162 2 3.76636 5.60751 27.0403
1646 3 3.99266 7.13432 25.2633
2665 1 5.76898 7.31296 26.7105
3161 2 7.33723 5.37105 26.7449
3666 2 9.10173 7.29225 27.035
100 3 10.9714 5.66471 26.9583
1165 1 14.4539 5.58143 26.9633
542 2 12.5177 7.2216 26.8217
1164 3 12.558 5.59308 28.6733
543 3 14.4222 7.10012 28.7464
83 2 16.1283 5.70812 25.2452
1667 1 16.3002 7.38569 27.085
528 3 0.236937 7.21795 25.2209
1664 3 1.94278 7.3933 27.292
2666 3 4.17057 7.36744 28.802
2655 2 3.6279 10.8592 24.9944
2668 1 2.09531 10.8428 27.0273
2654 1 7.3013 7.31919 24.7675
3164 3 3.85254 8.84797 26.8629
541 2 7.24727 7.18846 28.5279
103 3 7.33269 9.0896 26.7179
3153 1 9.06485 9.16305 25.0718
1168 3 10.7463 9.05463 26.8823
545 3 9.12241 10.9562 27.0182
546 2 10.8553 10.8781 28.7121
86 3 12.4377 9.12173 25.1585
1652 1 14.4968 10.8482 25.3054
2168 2 14.4622 9.16753 27.0734
3166 1 12.4678 8.9268 28.8827
690 3 0.303031 17.9925 21.6761
3769 3 12.6747 18.2467 23.2119
1155 3 16.1229 9.10733 25.0572
348 3 18.4203 5.7804 30.6541
106 2 3.69271 12.7516 27.0111
2353 1 18.0916 8.97689 30.6419
3669 1 5.46643 10.9664 26.9388
3655 1 3.98877 14.659 25.2143
531 1 7.36862 14.7053 25.2672
530 1 10.8344 11.0342 25.0216
89 3 9.11022 12.7624 25.3163
1171 1 7.35887 12.6361 26.9489
3169 3 9.02141 12.7087 28.8322
2171 2 10.8647 12.7435 27.3393
1670 3 12.7152 10.9166 27.1339
3170 3 14.6652 12.9407 26.8637
2153 1 16.0673 12.7553 25.1759
2671 2 16.1372 10.7799 26.9341
550 1 14.4136 14.6214 28.8586
3155 1 1.93604 16.1297 25.2205
3672 2 1.9613 14.2439 26.7007
1173 1 2.03994 15.9117 28.7826
3186 2 9.07817 16.1219 32.2752
548 3 5.58924 14.5893 26.8507
1174 1 3.73839 16.2153 26.8497
92 2 5.5588 16.2105 24.9896
2174 1 7.26239 16.3773 26.7202
2139 2 0.464312 1.97516 23.4218
3639 2 5.40816 0.134692 23.2452
1157 1 9.10361 16.4051 25.4116
1673 2 9.12201 14.4752 27.0654
3173 3 10.7142 16.2109 27.1063
2674 1 12.6998 14.6054 27.0056
3174 1 12.6166 16.349 28.6558
3675 3 16.3529 14.6355 27.1271
112 3 14.4454 16.2632 27.0581
1074 3 2.01184 9.21838 35.7655
547 2 0.120317 14.5015 28.5505
1158 3 1.77586 2.15835 28.8557
3175 2 1.80444 1.98612 32.3085
2787 3 12.7473 17.9381 26.8886
1626 2 5.5872 0.119692 20.0846
95 3 3.79498 1.85401 30.7373
1177 2 5.53399 1.79703 32.4087
2565 2 3.84443 0.200973 36.1089
538 2 10.7287 3.90152 28.6327
2160 1 7.32945 1.95432 30.418
1160 2 9.07654 2.17697 28.6188
96 2 10.6507 2.11521 30.5067
2517 1 18.1234 11.1381 21.6555
1640 3 11.2861 0.027315 25.1634
3766 2 5.5599 17.8687 23.1256
3159 3 12.47 2.21788 28.5918
2161 1 14.6016 1.88459 30.3168
1663 3 12.9541 3.80046 30.1152
105 2 0.304928 12.878 30.4239
2134 3 -0.0124505 12.7212 19.7777
1161 1 16.2778 2.03722 28.6607
2184 3 0.268641 12.9267 34.1556
3661 2 1.68054 3.76472 30.4525
1179 1 1.81764 5.4029 32.1579
2163 2 3.76161 5.56395 30.4898
537 3 3.86337 3.6247 28.9861
1163 3 5.44307 5.35455 28.6894
556 3 4.04327 7.4517 32.1545
1662 1 5.4169 3.72311 30.4196
3665 1 5.96349 7.33812 30.6859
2663 2 7.31319 3.83361 28.7838
3162 1 8.951 5.40483 28.6619
3662 1 9.0532 3.6755 30.5968
99 2 7.33979 5.42925 30.4715
2667 1 10.887 7.13929 29.0318
1666 1 8.91609 7.50919 30.4607
2682 3 7.52283 7.35217 32.2012
2164 1 10.6252 5.38897 30.5269
101 2 14.4741 5.6787 30.6245
2680 1 10.8534 3.671 32.3915
562 1 10.8219 14.6754 32.3863
2179 2 0.133692 5.79556 34.0899
2188 1 10.8275 16.2915 34.2274
3163 1 16.5193 5.53174 28.7723
3664 2 16.3355 3.82663 30.5396
1181 3 16.3714 5.81534 32.2698
1187 2 5.68778 16.3085 32.4446
1166 2 2.06813 9.06174 28.9003
1665 2 2.02088 7.35497 30.6771
3180 2 2.10023 9.00799 32.2844
102 3 4.14429 9.07439 30.6229
3165 1 5.7749 9.16418 28.6966
1182 1 5.77845 9.12178 32.4244
1167 2 8.97401 9.027 28.5764
2167 3 7.37907 9.26547 30.5293
3670 2 9.24618 11.0525 30.4959
104 2 10.9061 9.0868 30.6717
3667 1 12.6693 7.55253 30.7804
2169 2 14.3335 9.20729 30.4681
560 1 14.2615 10.8353 32.1028
1169 3 16.1704 8.94589 28.7807
1668 1 16.0838 7.48703 30.6873
3671 3 16.1626 10.7404 30.3911
721 2 0.311197 18.1238 28.8815
544 1 3.75286 10.8651 28.887
3668 3 2.04302 11.046 30.6126
3168 3 2.03483 12.651 28.6329
1184 3 1.91901 12.8921 32.4593
2187 3 3.91159 16.2073 34.2964
1669 3 5.75192 10.9911 30.7001
2170 2 3.75114 12.6848 30.3975
1170 2 5.62433 12.6452 28.6366
3673 3 5.67618 14.4618 30.3926
2670 2 7.2777 10.8801 28.6811
2685 1 10.8411 10.9165 32.3496
107 3 7.53427 12.7528 30.593
2172 1 10.9582 12.6013 30.7105
2672 1 14.5935 11.0545 28.667
1671 1 12.5796 10.8395 30.2794
1172 2 12.7353 12.8955 28.795
3674 1 12.6183 14.4962 30.6036
3171 1 16.318 12.9183 28.9221
108 3 14.4035 12.9181 30.8215
124 1 7.35488 16.2642 33.9633
1675 1 16.3207 14.5259 30.7621
1186 1 16.2462 12.8937 32.4301
727 1 14.2868 18.1174 28.9828
1672 2 2.23096 14.3474 30.3264
2673 1 3.85899 14.4251 28.5541
110 3 3.97612 16.418 30.8139
1685 2 16.1399 10.9879 33.8981
2661 1 0.112676 3.81869 28.6576
1513 2 1.91708 17.7759 23.4773
3172 1 5.55878 16.4775 28.6032
2175 1 7.06259 16.5729 30.4881
2675 3 10.9297 14.617 28.8015
549 1 7.27733 14.4735 28.5721
1674 2 8.99094 14.6221 30.3038
1175 1 9.06681 16.3831 28.7623
3688 1 16.3893 14.6599 33.9537
524 2 10.9679 14.5441 17.9381
740 1 3.73212 18.0193 32.5764
2650 1 14.7717 14.5254 17.8705
111 3 10.8547 16.4135 30.6135
2176 3 14.4021 16.3154 30.6379
2186 1 14.1479 12.7839 34.0446
2656 3 -0.138226 14.3936 25.197
3076 3 12.7039 9.04588 35.7856
1176 2 16.2686 16.4583 28.8302
561 1 3.83722 14.4013 32.2016
3185 3 2.03333 16.2121 32.3421
3129 2 16.3005 1.99488 17.8799
2177 2 3.6584 2.15246 34.1048
559 3 7.46567 10.9954 32.444
1686 2 5.65495 14.3065 34.0031
114 2 7.30657 1.82343 34.1148
3679 1 5.54907 3.73809 34.0712
2805 3 14.606 18.1648 32.3719
109 2 0.249824 16.2428 26.9788
3183 1 5.67701 12.7032 32.2311
3176 2 8.94585 2.03706 32.3382
3658 2 5.4141 0.0698751 30.7955
1178 3 12.4568 1.9996 32.2877
2178 3 10.9403 1.86474 34.4175
3680 3 12.6069 3.75313 34.0002
555 2 14.2331 3.59531 32.1782
121 2 3.76263 12.7308 34.0481
122 2 10.8918 12.8244 34.2659
3177 3 16.4679 2.19467 32.2461
558 1 0.0405169 10.9623 32.6649
115 1 14.4723 2.08878 34.0375
1678 3 1.91942 3.86157 34.1103
3681 1 1.94636 7.53198 34.0165
3684 1 5.4634 10.6139 34.084
2679 1 3.59512 3.82504 32.4346
3178 2 5.70771 5.42948 32.3229
554 3 7.20101 3.73016 32.2254
116 3 3.88846 5.70112 34.1911
1681 1 5.69593 7.25399 34.0012
2684 1 3.75363 11.0928 32.5423
1180 3 8.96131 5.49547 32.3466
1679 3 9.06036 3.57604 33.9792
2180 3 7.35114 5.40845 34.0753
3682 2 8.85797 7.42195 34.1942
1684 3 9.19892 10.8584 34.5074
117 2 10.8069 5.66385 34.0632
3179 1 12.6199 5.467 32.3996
2181 3 14.433 5.30185 34.0188
2185 3 7.53498 12.8042 34.0903
2575 1 3.60814 7.49476 35.9969
2688 3 14.2791 14.5068 32.3934
2687 3 7.43232 14.4397 32.134
1680 3 16.2931 3.88592 34.1114
1683 3 1.96301 10.9985 34.055
3686 1 2.01143 14.6779 34.0575
3066 2 12.8265 1.90704 35.9309
3184 2 12.4772 12.6426 32.4743
1687 1 12.6698 14.5503 34.0729
2182 2 3.7979 8.91367 34.0112
3181 3 9.25454 9.23212 32.4443
119 3 7.35578 9.01793 34.1967
2183 2 10.7985 8.94544 34.2561
1185 3 9.06589 12.7983 32.327
557 1 10.4111 7.23831 32.4517
1682 2 12.7014 7.34582 33.7513
3685 3 12.8359 10.9004 34.1103
2683 2 14.5265 7.38041 32.3316
1183 2 12.645 9.2251 32.4765
120 1 14.511 9.1747 34.196
3687 1 9.24113 14.3976 34.0832
3167 2 0.340474 12.6878 27.1702
3182 3 16.1286 9.07838 32.3456
3683 2 16.5642 7.59456 33.9991
98 2 0.152768 5.57157 30.3875
2803 2 7.27094 18.1896 32.2064
551 2 3.677 0.158739 32.5228
3678 2 16.2903 0.245934 34.2445
3641 2 12.8692 0.1595 23.4551
3659 2 12.7375 0.426256 30.2614
1676 3 5.50208 0.259505 34.1628
2551 3 18.1665 0.144809 32.2445
1660 1 16.2502 0.44485 30.3198
533 3 5.59992 0.483032 27.055
2801 2 0.252151 17.8548 32.4474
1502 1 5.23024 17.8952 19.4676
1518 1 11.2095 17.8693 25.0252
1128 3 5.42441 2.13006 17.8312
1080 1 5.45682 12.6702 36.07
2640 2 14.6483 7.13501 17.9716
1144 1 9.10404 12.5339 17.9917
577 2 14.4847 7.05404 35.6128
3070 2 8.85905 5.44982 35.9616
2579 3 0.196707 10.8352 35.8902
2583 2 14.3293 10.9645 35.9048