ITEM: TIMESTEP
5000
ITEM: NUMBER OF ATOMS
4000
ITEM: BOX BOUNDS pp pp pp
1.3385648466930533e-01 3.5600203515330989e+01
1.3385648466930533e-01 3.5600203515330989e+01
1.3385648466930533e-01 3.5600203515330989e+01
ITEM: ATOMS id type x y z
1 2 0.106577 1.87091 1.93645
1563 2 0.082076 0.212114 0.165368
2064 2 1.84135 1.98799 0.204411
3561 1 1.89389 0.25901 1.88515
564 3 3.72592 2.09217 1.79044
565 1 7.13249 1.98887 1.89809
1565 3 7.24627 0.245805 0.188566
2065 2 3.52313 0.292398 0.0284726
3061 2 5.51088 1.96641 0.0408464
3562 1 5.40996 0.424456 1.81353
566 3 10.7255 1.86436 1.86006
1070 2 10.7893 0.0433935 0.117951
3063 1 9.08274 0.0680156 1.85669
3062 3 8.92664 1.96572 0.126433
567 2 14.5018 1.83423 1.94585
2566 2 14.4776 0.00423153 0.151941
3064 3 12.5207 1.89322 0.0566758
3563 1 12.5599 0.128908 1.85147
2 1 17.9134 0.15502 0.177896
3 2 16.1859 0.068718 1.84913
3066 3 17.8597 1.92942 1.94888
3065 2 16.0158 1.95715 0.162513
4 1 1.97512 5.53297 -0.0441901
5 3 1.82567 3.8027 1.84815
6 3 1.87155 7.06379 1.89212
1071 2 0.0366119 5.54135 1.9858
3067 2 0.0790443 3.57999 0.0590484
3565 2 0.152312 7.27406 0.185693
7 3 5.47187 5.51435 0.122591
8 1 3.5095 7.30505 -0.0420174
1072 3 7.19088 5.50181 1.90287
1075 1 5.51127 7.44694 1.83562
1074 2 3.70704 5.68161 1.75398
1567 3 7.20307 7.14998 0.134745
2570 3 7.22944 3.67463 0.199916
2569 3 3.80368 3.72528 0.0312021
3569 2 5.46333 3.74108 1.82982
9 3 9.07707 5.29923 0.211547
10 3 9.07042 3.76649 1.8944
1077 2 10.8202 7.26721 0.202051
1076 3 10.8907 5.35777 1.99687
1568 1 9.13249 7.14374 1.93393
3068 1 10.9333 3.68767 0.139665
11 2 12.534 5.44839 0.175631
12 2 14.111 3.68277 0.156746
570 1 12.63 3.6399 1.9062
1571 3 14.3882 7.26214 0.238092
1570 1 14.273 5.38997 1.83911
1569 2 12.5872 7.2548 1.98199
572 1 15.9757 3.7234 1.9412
1081 1 16.128 7.35212 1.7985
1079 2 17.7665 5.58462 1.87173
1078 2 16.0841 5.4583 0.114149
1573 3 17.6729 3.67777 0.135545
2070 2 17.8836 7.35644 0.13047
575 3 2.13714 10.9001 1.99556
1082 3 2.11846 9.10457 0.174688
1574 2 0.162767 9.08477 1.99425
3070 3 0.0924778 10.7973 0.345437
576 2 3.87034 10.7244 0.264851
1085 3 5.41887 8.84501 0.0253254
1083 1 5.34525 10.5705 2.04206
1577 1 7.2971 10.6878 0.132254
1576 2 7.34888 8.95197 1.81684
1575 2 3.73299 8.98077 1.79655
14 3 10.7245 10.7181 0.164236
1087 1 9.13572 10.6101 1.91794
1086 3 9.07683 8.98541 0.187271
2071 2 10.8476 8.99821 2.0667
580 3 12.582 10.8466 1.84517
1088 3 14.4434 10.8275 0.207552
2073 3 12.5741 9.11137 0.330793
2074 1 14.2938 9.01113 1.97817
15 1 17.9356 8.99413 1.92845
1581 1 16.068 10.8466 1.87053
2076 2 17.7858 10.8341 0.335744
2075 2 16.119 9.08868 0.123899
2079 3 2.0612 12.4574 0.0616089
2078 1 1.97249 14.3993 1.9057
2077 3 0.044282 12.5689 1.91272
2572 3 0.0257349 14.3712 0.128122
2082 1 5.65836 14.2161 2.00793
2081 3 3.9121 12.5953 1.93358
2080 3 5.59834 12.4764 0.207016
2576 2 7.29277 14.2494 0.198499
2575 3 7.41452 12.4227 1.98254
3071 2 3.87775 14.3088 0.114716
1583 3 9.10298 14.2865 1.98099
2084 2 10.8612 14.1376 0.148651
2579 2 10.8731 12.5732 1.90719
3073 3 9.0755 12.4723 0.0374177
2085 1 12.522 14.3257 1.80175
2580 3 14.2081 12.63 1.82121
3074 3 12.6408 12.47 0.130162
3574 3 14.2818 14.4634 0.121212
581 3 17.9178 12.5653 1.90611
1089 1 17.8739 14.3555 0.137499
2583 3 16.0506 14.3938 1.9975
3075 1 16.149 12.7158 0.256049
16 1 0.161353 18.0438 0.159465
2086 2 1.88088 17.7732 1.84901
2584 3 0.272366 15.979 1.93232
3076 3 1.8743 16.0721 0.107238
17 1 5.4097 15.9569 0.0195277
1090 2 3.6313 17.6722 0.232214
2585 2 7.20306 17.9045 0.112621
3079 3 5.57868 17.6963 1.87707
3078 1 7.32715 16.2183 1.80857
3077 2 3.77086 16.0265 1.91372
18 2 9.04414 16.0182 0.118417
1585 2 10.7938 18.0217 0.243249
3080 3 10.7819 16.1285 1.80872
3578 2 8.87514 17.8614 1.89936
19 1 12.4753 16.2036 0.0759794
2088 2 14.2971 17.7533 0.104323
3081 2 14.4733 16.1431 1.7664
3581 3 12.6343 17.9729 1.79268
20 1 15.9765 16.0885 0.0929853
1586 2 17.8096 16.1646 1.99355
3083 2 16.109 18.0334 1.87087
3082 2 18.0002 17.8102 0.127664
584 1 2.01642 1.95259 7.15422
1564 3 0.189421 0.100344 3.70133
2588 1 1.90121 0.264973 5.26453
2563 2 1.92552 2.10439 3.62946
3084 1 0.240635 0.255372 7.01231
3583 2 0.116296 1.95005 5.37074
22 1 5.48366 1.95227 7.11077
1069 2 3.77933 0.233797 3.59222
1566 1 7.15638 0.172645 3.71064
2089 1 5.31435 0.311948 5.28969
2590 1 3.85097 0.178533 6.95228
2564 2 5.38163 2.02869 3.66614
3085 1 7.23374 0.230547 7.13606
3585 3 3.73094 2.16016 5.26781
3584 3 7.18542 1.9091 5.52523
586 3 9.04385 1.97127 7.25565
2066 3 10.644 0.0666618 3.73693
2593 1 8.90454 0.123136 5.4747
2565 3 9.06402 1.85464 3.58043
3086 3 10.8189 0.149541 7.20457
3586 3 10.7409 2.06521 5.45576
23 2 12.6379 1.96008 7.41197
24 3 14.2432 0.1179 7.12865
25 1 14.3098 1.85691 5.57451
2568 2 14.3529 0.297879 3.56676
2567 1 12.4952 1.89119 3.80148
3087 3 12.4689 0.0257862 5.37867
568 3 17.892 0.12374 3.74537
588 2 16.0655 1.82715 7.22028
1587 1 17.8585 0.112868 7.17806
3088 1 16.2176 0.0888064 5.46325
3588 1 17.8318 2.02616 5.59677
3564 3 16.1814 1.84697 3.69508
27 1 1.87954 5.51799 7.09734
28 3 1.90744 7.27449 5.39837
589 2 0.0312493 5.38443 5.27999
2067 1 0.217178 3.67666 3.66821
3090 2 1.90788 3.80502 5.42446
3590 2 0.201907 7.12739 7.33284
3589 1 0.266658 3.57189 7.02892
3567 1 0.0963258 7.27669 3.61661
3566 2 1.97769 5.63517 3.7791
29 1 3.61896 3.86055 7.13564
593 3 3.57768 7.16804 7.11528
592 1 7.21589 5.44172 5.47755
591 2 7.20115 7.2666 7.27908
590 2 3.74221 5.557 5.26614
1095 3 5.40507 5.39795 7.31185
1094 2 5.41677 7.13719 5.47733
1073 2 3.78626 7.28956 3.58233
2068 1 7.33122 7.25504 3.70232
2069 2 3.68965 3.82312 3.63006
3593 2 5.46759 3.9373 5.45805
3592 1 7.23189 3.82444 7.10575
3570 2 5.42609 5.59649 3.62339
3568 2 7.10719 3.7396 3.55262
31 1 8.86243 3.7267 5.43197
569 1 10.8892 7.23659 3.62571
594 1 10.747 5.28805 5.47848
1097 2 9.00134 5.37077 7.41866
1590 3 9.03065 7.16037 5.49483
1589 3 10.6845 7.31158 7.27775
3594 2 10.8045 3.71342 7.14273
3572 1 10.7904 3.69363 3.64845
3571 2 9.03577 5.24109 3.55402
33 2 12.6286 3.5859 5.37051
35 1 14.2911 3.61218 7.19999
571 3 12.6579 5.3279 3.72284
595 2 14.3916 7.27074 7.19869
1100 1 14.4025 5.47433 5.4211
1099 3 12.4887 5.49618 7.07705
1592 3 12.3971 7.21648 5.5525
1572 1 14.3871 7.13582 3.63041
3069 1 14.4356 3.61502 3.68136
573 3 16.1504 5.42858 3.73291
1080 2 17.8025 3.59686 3.67636
1595 3 16.0975 7.28382 5.23848
1594 3 16.2768 5.40645 7.16127
2094 3 17.9445 7.12538 7.16523
2092 1 17.9739 3.69407 7.20093
2571 3 17.8711 7.29601 3.61688
3092 1 17.9127 5.45263 5.33747
3595 2 16.0999 3.65609 5.5697
13 3 0.281385 10.8654 3.60202
597 1 0.00410516 10.8229 7.25924
596 1 1.80983 10.6622 5.49792
574 3 2.07073 9.04129 3.70947
1102 1 1.80332 9.04366 7.21258
1101 3 0.092877 9.05262 5.21083
38 1 3.70162 10.9133 7.19688
578 2 3.73961 10.7409 3.75109
577 3 5.56206 9.05426 3.90408
1106 1 7.26835 10.921 7.36456
1104 3 5.538 10.8648 5.45319
1103 3 3.82785 9.10125 5.5578
1084 2 7.43475 10.756 3.64471
1597 3 7.33805 9.05824 5.41943
1596 1 5.5389 9.17289 7.20002
39 1 10.9029 10.8055 7.2256
599 3 9.20881 10.7479 5.45432
579 3 10.862 10.9049 3.77413
1107 1 8.98179 9.03241 7.1068
1578 3 9.09881 8.90797 3.62903
2097 3 10.7143 9.0014 5.37559
1108 1 12.709 10.8775 5.51964
1598 2 12.3261 9.00949 7.11796
1579 3 12.5476 9.09202 3.76883
2072 3 14.3533 10.9497 3.72924
2099 1 14.2555 10.7323 7.27789
2098 2 14.307 9.00053 5.51419
1599 3 16.174 9.03222 7.27438
1580 2 15.9421 8.95088 3.75397
2100 2 16.0269 10.7365 5.45344
3093 2 17.779 10.7843 7.25806
3597 2 17.8341 9.06255 5.47037
3573 3 17.8881 10.786 3.60321
1110 3 0.190815 14.3121 7.20728
1582 2 1.96034 12.5854 3.6059
2103 3 1.8811 12.495 7.12665
2102 3 1.85935 14.3884 5.45713
2101 3 0.180679 12.4148 5.45812
2573 1 0.126623 14.182 3.72164
1112 3 7.18961 14.3552 7.15395
1600 2 5.46193 12.6561 7.16479
2104 2 5.62906 14.3758 5.26974
2083 2 3.88311 14.3667 3.5837
2601 3 7.42978 12.5972 5.50588
2600 1 3.73161 12.7652 5.44651
2599 2 3.72582 14.4665 7.12376
2577 2 7.29282 14.3942 3.63968
2574 2 5.67946 12.5901 3.61286
2604 2 9.08445 14.5472 5.50249
2603 3 10.732 14.3544 7.12276
2602 2 10.8266 12.6529 5.42067
2578 1 9.22405 12.5322 3.74323
3097 2 8.89116 12.5707 7.29555
3072 1 10.7754 14.3881 3.69822
602 2 14.3926 14.3402 7.33376
1603 2 12.6511 12.6751 7.21799
2605 3 14.2033 12.8013 5.51636
2581 3 12.5776 12.6445 3.70664
3098 1 12.6271 14.5011 5.54277
3575 1 14.3199 14.4499 3.74096
1114 2 17.7062 12.5088 5.42572
1584 3 17.8381 14.2885 3.66101
2582 1 16.1258 12.6344 3.65026
3100 2 16.158 14.3751 5.43013
3099 2 15.9889 12.5342 7.21801
3599 2 17.6983 14.2435 7.29705
582 3 0.00514089 17.8047 3.60124
1605 3 1.76604 17.8603 5.31244
1604 3 1.94068 15.9958 7.23159
3104 1 0.0981585 16.1466 5.60467
3103 3 0.133249 17.9505 7.15498
3576 3 1.93747 15.8784 3.75001
2087 3 3.67925 17.8944 3.59539
2607 1 5.4927 17.9147 5.30145
2586 2 7.31956 17.9243 3.77114
3107 3 7.21238 17.8253 7.21749
3106 2 5.407 16.1699 7.19433
3105 1 3.62551 17.845 6.99958
3602 2 3.64951 16.2013 5.44124
3601 1 7.26838 16.1013 5.44721
3577 2 5.54026 16.0275 3.65063
1091 1 10.806 18.0743 3.59297
2107 3 8.99875 16.2578 7.26304
2608 1 8.99325 17.9254 5.42116
3109 1 10.9132 17.8964 7.23946
3603 2 10.7493 16.2937 5.29497
3579 3 8.99781 16.3124 3.59949
41 1 14.3586 16.1411 5.60142
2610 2 12.5159 17.9089 5.33944
2609 1 14.3912 17.8151 7.31566
2587 1 14.3037 17.9065 3.78969
3604 3 12.5707 16.1627 7.2832
3580 2 12.537 16.1784 3.59853
583 2 15.9677 16.0898 3.83907
1606 2 17.8593 17.9783 7.07845
2109 1 16.0463 16.1436 7.27487
3112 3 16.1316 17.8196 5.41643
3110 2 17.9302 16.1217 5.49653
3582 3 17.8484 17.9101 3.5764
21 1 0.250864 1.78812 8.94623
604 1 0.159038 0.116536 10.7277
2110 2 1.81647 1.78417 10.7249
2589 2 1.96636 0.148909 8.87246
585 2 7.0165 1.86875 8.98282
1092 2 5.44656 0.180095 8.80591
1608 1 7.0295 0.0610194 10.6898
1607 2 3.6151 0.0575933 10.4929
2111 3 5.3142 1.8224 10.6816
2591 3 3.74815 1.89433 8.85417
1116 1 10.725 0.209595 10.7438
2612 2 8.80863 1.85314 10.6585
2592 1 10.8327 1.85329 8.99615
3587 3 9.02547 0.0511068 8.94829
587 3 14.3462 1.86939 9.00978
1609 2 14.2471 0.0595358 10.7264
2090 1 12.5056 0.210393 9.03652
2613 3 12.5202 2.04873 10.7768
26 2 16.0469 0.12772 9.0392
2594 2 17.9252 1.73136 9.02865
3116 3 16.0456 1.9993 10.8345
3115 3 17.7877 0.0833569 10.8606
1093 1 2.05143 7.40832 9.20617
2091 3 1.83959 3.70478 8.81621
2615 2 0.151705 3.46647 10.6797
3118 3 0.0785616 7.23122 10.6971
3117 1 1.86885 5.42605 10.7876
3089 1 0.20731 5.34256 9.00071
30 3 5.44215 3.63287 8.81071
45 1 7.10881 7.26631 10.6872
1096 3 3.62049 5.41179 8.97723
2112 3 7.14933 3.73698 10.7118
2616 3 3.73579 3.53601 10.638
3091 2 7.1285 5.34829 8.97767
3608 3 3.76403 7.20171 10.9239
3607 2 5.3803 5.32479 10.822
3591 1 5.51555 7.06867 8.88726
46 2 10.6513 7.23629 10.8096
1098 1 10.7331 5.5419 9.07225
1591 1 9.10484 3.6067 9.01981
1588 1 8.86401 7.23622 9.15635
2113 1 10.5478 3.64831 10.7177
3609 2 8.90582 5.44635 10.679
32 2 12.513 7.35952 8.77743
34 1 12.326 3.67261 9.113
36 2 14.2333 5.27458 8.81421
609 3 14.3175 7.33136 10.5687
3119 1 14.3469 3.84503 10.796
3611 3 12.5332 5.53016 10.7346
1120 3 17.7617 3.66665 10.7393
1615 3 17.7642 7.41944 10.8412
1593 1 17.9519 5.54498 9.08143
2093 3 16.1036 7.14068 9.00459
2595 1 16.1473 3.56347 8.95031
3612 2 15.8519 5.37446 10.7506
48 1 2.00648 9.06644 10.7199
2095 3 0.155253 8.96208 8.85032
2596 1 1.92265 10.946 9.05967
3120 2 0.231972 10.7921 10.7359
37 1 3.89723 8.90327 8.79895
49 1 5.37812 9.09239 10.6243
612 1 7.2337 10.8615 10.6485
1105 2 5.53014 10.951 8.91758
2096 3 7.25968 9.01572 9.05167
3121 2 3.76006 10.8265 10.6262
613 3 9.08696 9.11583 10.6879
598 2 10.6065 8.93543 9.0153
3613 3 10.8884 10.9546 10.7107
3596 1 9.22 10.7029 8.90089
50 2 14.3146 10.918 10.8544
614 3 12.4412 9.10327 10.7293
2598 3 12.6335 10.6839 8.85794
2597 3 14.4508 8.99793 8.96792
51 3 17.8925 10.811 10.9434
600 3 17.809 9.02781 8.95901
1122 3 16.0112 9.06822 10.8217
1109 2 16.0835 10.843 9.10514
616 3 0.107812 14.3887 10.7316
601 2 0.176894 12.6644 8.82051
1123 2 1.95643 12.504 10.6757
3094 1 1.9125 14.2622 8.95021
1124 2 5.48857 12.6671 10.7081
1111 1 5.43908 14.4526 9.04164
1619 2 7.17046 14.4285 10.7233
1618 2 3.53802 14.4211 10.6736
1601 2 7.16527 12.621 8.92822
3095 3 3.71232 12.6888 9.00427
617 2 10.8264 14.3296 10.7056
1125 2 9.03666 12.6789 10.6017
3096 3 8.94005 14.3566 8.90903
3598 2 10.7367 12.6177 8.87457
1126 3 14.2825 14.4949 10.9484
1113 3 12.5336 14.4768 8.89457
1620 3 12.4895 12.7427 10.5208
1602 1 14.2453 12.5187 9.04757
1621 2 15.9886 12.5717 10.898
3126 3 17.8524 14.2679 10.8783
3102 2 15.9376 14.2259 9.11519
3101 1 17.7498 12.4778 9.03181
1623 2 0.118908 17.899 10.8128
2119 1 2.01209 16.2152 10.7438
2606 2 1.95218 17.8042 9.02051
3600 2 0.167453 16.0936 9.07023
40 1 7.01498 16.1794 8.85171
619 2 3.7669 17.9081 10.8021
1127 3 7.24381 17.7866 10.705
2120 2 5.453 16.1734 10.7201
2106 1 3.73857 16.321 9.04756
2105 1 5.50618 17.8619 8.98689
1624 2 10.7045 17.8828 10.9933
2108 2 10.7243 16.0581 9.07671
2625 3 9.03491 16.086 10.6885
3108 1 9.09566 17.8309 9.08006
603 1 14.4106 16.1016 8.98378
1115 2 12.4826 17.9045 9.159
2626 3 12.6507 16.1569 10.6966
3620 3 14.1594 17.9162 10.706
2628 3 15.9679 16.1551 10.9266
2611 3 17.7233 16.1653 8.94758
3127 3 17.8561 17.6523 10.9102
3111 3 16.0351 17.8604 8.98643
42 2 0.13947 1.81202 12.5006
2121 2 0.100583 0.0182611 14.3815
2629 1 1.90712 1.94012 14.3852
3113 1 1.8774 0.132872 12.4885
43 2 3.47067 1.85985 12.5033
605 2 7.21583 2.08241 12.4899
1625 2 7.2653 0.369867 14.3273
2123 2 3.51634 0.194615 14.2111
3128 3 5.44958 1.98822 14.353
3605 3 5.41947 0.102825 12.5184
606 2 10.6297 1.80439 12.4441
1627 1 10.6284 0.0465269 14.2344
3129 1 9.02764 1.9935 14.4188
3606 1 8.78811 0.0922821 12.5253
1117 3 14.2214 1.84563 12.5145
2632 2 14.2505 0.118446 14.3549
3131 1 12.4819 1.87442 14.3256
3114 2 12.4511 0.101084 12.4754
44 1 16.0365 0.156239 12.463
501 1 17.8912 0.288745 13.9815
2614 2 17.8685 2.0543 12.566
3132 3 16.0264 1.9436 14.2623
607 3 1.95339 3.65125 12.4607
1119 1 1.85362 7.28769 12.5264
1118 3 0.136568 5.40175 12.3995
2634 3 0.200207 7.222 14.2159
2633 1 0.142216 3.74255 14.3633
3624 1 1.80184 5.33403 14.2857
60 1 7.36022 7.22294 14.2643
608 1 5.29988 3.72066 12.5237
1612 1 7.16084 5.2635 12.5
1611 1 5.51163 7.05449 12.5637
1610 3 3.69471 5.44072 12.6264
2128 2 7.24847 3.78055 14.3022
2126 2 3.60452 3.68189 14.4277
3136 1 3.59901 7.30223 14.2304
3626 3 5.56283 5.43068 14.3923
1613 3 10.6544 5.33525 12.459
2114 1 9.01192 7.20618 12.4488
3137 1 10.8253 3.68879 14.2388
3629 3 8.96278 5.42922 14.3313
3628 1 10.6909 7.19042 14.2955
3610 2 8.8092 3.67604 12.5023
610 1 12.5119 3.74441 12.462
1614 2 14.215 5.553 12.5572
2617 3 12.4444 7.32549 12.4686
3138 3 14.2132 3.79216 14.2946
3631 2 14.3121 7.10516 14.2903
3630 3 12.4389 5.50354 14.1461
47 1 17.704 5.40853 12.4659
65 2 15.9759 5.50218 14.2594
1138 1 17.7712 3.74535 14.2944
1121 1 16.0408 3.74727 12.5899
2618 3 16.0278 7.15812 12.5238
3140 3 17.7958 7.06834 14.318
67 3 1.76915 9.11132 14.3286
611 3 1.9274 10.9268 12.6015
2115 3 0.0826619 9.14082 12.4373
2636 1 0.111487 10.8905 14.3157
69 3 7.21097 10.7755 14.1784
70 2 5.4427 8.99489 14.2269
1616 2 5.49166 10.7709 12.4202
2116 3 3.7165 9.09048 12.4393
2619 2 7.16891 8.92681 12.3899
3633 2 3.7446 10.8071 14.3164
71 1 9.02433 9.0615 14.1962
2117 3 9.01886 10.9818 12.4414
2620 2 10.7396 9.10573 12.5705
3141 2 10.7702 10.8176 14.3799
510 3 12.4717 8.92548 14.3205
1617 1 12.5407 10.8408 12.444
3122 3 14.2516 9.16395 12.4296
3635 3 14.1678 10.9317 14.3838
511 1 15.9436 9.11441 14.3601
615 1 17.7798 8.97773 12.6135
1639 2 17.7061 10.8277 14.3713
2118 3 16.0399 10.8109 12.666
513 3 0.134648 14.3077 14.2826
514 1 1.87597 12.7182 14.3521
2621 2 0.0220104 12.4416 12.5446
3123 2 1.89418 14.3575 12.5655
72 2 7.24764 14.3247 14.3002
515 3 5.42902 12.5163 14.2277
516 2 3.72526 14.3805 14.3413
3125 2 7.15509 12.5722 12.3251
3124 3 3.72421 12.5087 12.4073
3614 2 5.54718 14.3129 12.4783
73 1 10.7056 14.2838 14.3844
1145 2 9.17816 12.5289 14.3031
3616 2 10.8668 12.5435 12.4737
3615 2 9.00188 14.2726 12.5323
1147 3 12.347 12.5872 14.4009
1146 3 14.1806 14.2816 14.3965
2622 2 12.476 14.3436 12.5137
3617 1 14.2182 12.6011 12.5435
1149 1 16.1173 12.6154 14.3918
1622 1 17.7671 12.6338 12.6463
3146 1 17.9322 14.3707 14.3385
3618 3 16.0071 14.432 12.6269
52 2 0.378263 16.134 12.4886
518 1 0.269549 17.8713 14.3801
1150 1 2.02748 15.9539 14.3434
2623 2 1.94622 17.875 12.501
53 1 3.70667 16.0798 12.6974
618 2 7.24258 16.2028 12.5882
1151 2 3.66201 17.9526 14.2653
1642 1 5.44163 16.0178 14.3652
2142 3 7.22391 17.9275 14.4791
2624 1 5.54935 17.8614 12.5476
54 2 10.6106 16.0201 12.5666
1643 1 8.84373 15.9646 14.2843
2649 1 10.7396 17.8632 14.2516
3619 1 8.89557 17.6975 12.5307
55 2 12.419 17.7351 12.5265
620 1 14.2297 16.0318 12.7158
1646 3 12.4654 16.1066 14.2643
1644 1 14.2872 17.8705 14.4985
56 3 15.9727 17.8211 12.6028
1647 1 16.1161 16.0258 14.5646
2627 1 17.8249 16.1243 12.6304
3644 3 17.8115 17.8566 14.3258
57 1 1.80306 0.0383601 15.983
621 3 0.226372 2.07898 16.1018
1128 1 0.277044 0.0722914 17.9144
2122 1 2.03868 1.74646 17.865
58 3 5.49936 0.068499 16.0797
1132 3 7.13151 0.160036 17.8106
1131 2 7.23571 1.99059 16.0399
1130 3 3.78044 0.0786336 17.8462
1129 3 3.61623 1.8828 16.0734
2630 2 5.39413 1.966 17.892
1133 1 10.7462 1.91137 16.0149
1626 3 10.8056 0.119758 17.6937
2631 3 8.9509 1.95196 17.8696
3621 2 9.06314 0.14349 16.1055
59 2 12.3559 0.115602 15.993
1134 1 14.3127 1.95956 16.115
2124 1 14.4347 0.150121 17.9398
3130 1 12.6457 1.78346 17.7312
502 1 16.0575 0.177608 15.9469
3133 2 16.2214 1.88711 17.8647
3623 2 17.8321 0.209943 17.9425
3622 1 17.9345 1.89356 15.9283
503 2 1.96122 3.67093 16.1856
504 1 1.99646 7.2032 16.1436
1628 3 0.231257 5.56559 15.9616
2125 3 0.242823 3.7947 17.9122
3134 2 0.0679729 7.10312 17.9235
3625 2 2.02446 5.36773 17.845
61 2 5.45446 3.5988 16.2011
505 3 3.64927 7.27051 17.8854
1135 3 7.14187 7.22168 17.8803
1631 1 5.39253 7.38075 15.9941
1630 3 3.77666 5.56098 15.9396
1629 1 7.20442 5.45226 16.1222
2127 1 3.54845 3.51822 17.8954
3135 2 7.13529 3.57605 17.854
3627 1 5.45832 5.49658 17.7973
62 3 9.02557 5.51781 17.7338
63 3 10.7842 7.19083 17.7196
506 3 8.87218 3.70882 16.0563
1632 2 10.6612 5.44629 16.0217
2129 3 8.95406 7.21797 15.9921
2635 1 10.822 3.67862 17.8502
64 1 12.6403 5.62613 17.7914
1137 1 14.3245 7.30814 17.6883
1136 3 12.4269 3.60388 16.1072
2131 2 14.3166 5.64771 15.9884
2130 2 12.5357 7.12378 15.9705
3139 2 14.3376 3.69403 17.8465
66 3 17.856 5.46338 16.1812
507 3 15.93 5.52632 17.8346
1140 3 17.952 3.83111 17.7761
1139 3 16.1118 3.62993 16.0597
1634 1 17.6936 7.33645 17.8932
1633 2 16.0779 7.35551 16.0838
508 1 1.86628 9.0809 17.9166
1141 3 1.80554 10.7896 16.1436
2132 1 0.189948 8.95673 16.0845
3632 1 -0.0417095 10.8516 17.7892
68 1 3.63412 10.7913 17.9264
509 3 7.09308 10.8368 17.6839
1142 2 5.42011 9.10541 17.5921
1635 1 5.42933 10.7375 16.0486
2134 3 7.18453 9.04838 16.0514
2133 1 3.49204 9.07276 15.9863
1143 3 8.93791 8.92422 17.7647
1636 2 9.03954 10.7346 16.0202
2637 2 10.7433 8.85527 16.0842
3634 1 10.7356 10.7015 17.8516
1144 1 12.3859 10.8393 16.134
1638 3 12.3381 9.03364 17.6934
1637 2 14.3052 10.7499 17.8221
2638 2 14.2737 9.09212 16.1914
512 2 17.7491 9.05294 15.9506
1640 2 15.9132 9.01186 17.9062
2135 1 16.0605 10.7691 16.0908
2639 1 17.8717 10.8102 17.9312
2137 1 0.030612 14.3876 17.9003
2136 3 1.92996 12.6203 17.9843
2641 3 1.94847 14.3733 16.1461
2640 1 0.0933878 12.5336 16.0835
2140 1 7.22395 14.479 17.9368
2139 2 3.78983 14.2884 17.9176
2138 3 5.44661 12.6177 17.962
2643 1 5.39605 14.34 16.0948
2642 3 3.68356 12.4713 16.0081
3142 3 7.19035 12.5608 16.0616
2141 3 8.87542 14.2598 16.2146
2645 1 9.04988 12.5175 17.9218
2644 3 10.7431 14.2016 18.0148
3143 2 10.6723 12.6694 16.1885
2647 3 12.5083 14.2973 16.1723
2646 2 12.4222 12.5617 17.8508
3145 2 14.3481 14.28 17.8314
3144 2 14.1448 12.5185 16.0375
517 3 17.7291 14.2632 17.9753
1148 1 17.9472 12.5469 16.176
3148 1 16.0848 14.3035 16.1457
3147 2 16.0363 12.5286 17.8551
2648 1 1.74955 17.846 15.9884
3150 3 1.87188 16.0257 17.9304
3149 2 0.107866 16.0181 16.1491
3636 1 0.149303 17.8082 17.7834
1641 2 3.68098 17.9094 17.8975
2143 3 7.32513 17.8088 17.7581
3640 3 5.3752 17.8725 16.0772
3639 2 7.19287 16.1637 16.0839
3638 2 5.49589 16.1136 18.0545
3637 3 3.65104 16.1888 16.0998
74 1 9.07713 17.6601 15.9709
519 3 10.7634 17.9113 17.8149
3642 3 9.02243 16.1762 17.8585
3641 3 10.8099 16.0696 16.1799
75 2 12.4629 16.0025 17.9669
76 2 12.408 17.9473 16.0003
1645 1 14.3532 17.8051 17.7476
3643 1 14.251 15.9995 16.0942
77 1 16.1504 16.0113 17.738
2144 3 17.8644 15.9776 16.1516
2650 2 17.7075 17.8418 17.9177
3645 3 15.9733 17.8924 16.0193
520 3 0.087408 0.100221 21.5736
78 3 0.17112 1.79084 19.776
2145 3 1.91137 1.94647 21.5201
3151 3 1.96204 0.0561172 19.6084
521 2 3.67981 -0.0112902 21.4144
80 2 3.75634 1.92472 19.914
79 2 7.29176 1.78548 19.7256
2147 2 5.50094 2.01262 21.3899
2146 3 7.28497 0.241481 21.5025
2651 1 5.51539 0.232834 19.7648
81 2 10.7744 2.03451 19.5554
1648 3 10.8227 0.129126 21.4502
2652 1 9.04696 1.87543 21.3895
3152 3 9.00921 0.30498 19.6861
522 1 14.4143 1.8864 19.5238
1649 1 14.3189 0.0864291 21.3763
2653 2 12.6003 1.91331 21.4507
3646 3 12.4675 0.0423261 19.6057
82 3 17.8716 0.177537 21.3881
2654 1 17.7716 1.86221 19.5331
3153 3 16.191 1.9321 21.3993
3647 2 15.9721 0.248699 19.5636
523 2 0.141877 5.2722 19.7427
84 3 1.97904 7.16579 19.6584
83 3 0.147022 7.24159 21.3677
1650 2 0.194926 3.71325 21.4294
3155 3 1.97563 5.48177 21.33
3154 2 2.06126 3.52747 19.5812
524 1 3.67529 5.42709 19.4728
525 3 7.22203 5.46051 19.5139
526 1 3.73291 7.26152 21.3307
1153 1 7.21616 7.28185 21.2964
1152 3 5.31984 7.2988 19.6818
2655 2 3.80836 3.74809 21.3526
3156 3 7.35137 3.70288 21.3098
3649 2 5.50781 3.78389 19.6333
3648 1 5.66869 5.56211 21.3635
86 3 10.7968 7.16357 21.3966
85 3 8.94507 3.59882 19.4809
1155 3 10.8677 5.28107 19.6227
1154 3 9.18802 7.14677 19.5402
2656 2 10.6185 3.53297 21.3169
3650 2 8.9276 5.5578 21.3231
527 3 12.5647 7.23883 19.7023
88 2 12.4587 5.32171 21.3606
87 2 12.5624 3.50714 19.5924
1156 2 14.3084 5.38441 19.5514
2148 1 14.2906 7.049 21.5098
2657 3 14.364 3.69098 21.3645
528 3 17.7986 3.73093 21.4407
89 2 16.0161 5.41667 21.4257
1157 3 16.1706 7.15871 19.6558
3158 1 17.8182 5.52247 19.7479
3157 1 17.9108 7.06339 21.5631
3651 1 16.0495 3.72049 19.6724
529 1 1.85259 9.02413 21.4465
530 3 1.97289 10.8272 19.6339
1158 3 0.213799 9.10671 19.6093
3652 3 0.156729 10.6977 21.549
531 2 5.39963 8.98053 21.4058
532 2 5.41337 10.8585 19.6348
533 1 7.54754 10.6794 21.4678
1159 3 3.69232 9.10545 19.5931
1651 1 7.20854 9.04374 19.6389
3653 1 3.81486 10.8811 21.5374
90 1 9.0649 10.5196 19.6237
1161 3 9.17069 8.95482 21.5352
1160 1 10.6515 10.9089 21.5064
1652 1 10.7515 9.07889 19.5738
534 1 12.3567 10.7287 19.5732
1162 3 12.3273 9.05003 21.3719
1654 3 14.1978 10.8043 21.4793
1653 2 14.2408 8.85138 19.5597
1656 3 15.9478 10.7909 19.7304
1655 2 15.9359 8.95315 21.5062
3159 1 17.9304 10.6732 21.4406
3654 3 17.7911 9.01657 19.7466
1660 2 -0.0458731 14.3253 21.4374
1659 2 1.93191 14.2287 19.662
1658 2 1.96412 12.4683 21.4449
1657 3 0.106938 12.5151 19.6064
1163 2 5.47071 14.3201 19.6932
1661 1 3.67147 14.366 21.433
2151 1 7.23128 12.4791 19.6492
2150 1 5.50358 12.5777 21.3783
2149 1 3.7426 12.4905 19.7623
3160 2 7.21193 14.2028 21.5983
1662 3 9.09778 14.3171 19.6646
2153 1 9.09594 12.6318 21.3929
2152 2 10.7214 12.3938 19.6379
2658 3 10.8575 14.1932 21.471
2155 3 14.1486 12.4466 19.5499
2154 2 12.4837 14.5444 19.7187
2660 3 14.2475 14.4681 21.3696
2659 2 12.4442 12.457 21.4961
535 2 17.7288 12.56 19.6375
1164 3 17.7138 14.381 21.4342
2156 2 16.0123 14.3089 19.7761
2661 1 16.0128 12.5461 21.4385
1165 3 -0.0130999 17.8569 21.452
2157 3 1.93192 17.8125 19.626
2662 1 0.0174652 16.0395 19.6705
3161 2 2.07193 16.0897 21.4324
1664 2 7.33307 17.7272 21.5137
1663 1 3.6899 17.8599 21.4075
2664 3 3.65805 16.1539 19.614
2663 3 7.29085 16.0342 19.7602
3163 1 5.39897 16.0551 21.4977
3162 1 5.63577 17.7721 19.7239
536 3 10.7589 17.7917 21.4453
2665 2 10.8947 16.1823 19.7046
3164 3 9.01269 17.9189 19.6311
3655 2 9.0521 16.0505 21.3954
2666 2 12.6382 17.9063 19.5945
3166 2 14.5292 16.2111 19.6317
3165 3 14.2717 17.8835 21.4434
3656 2 12.6042 16.2869 21.4435
92 3 16.1478 16.2905 21.5241
91 1 17.93 18.005 21.3729
1166 1 17.8147 16.1213 19.7825
3167 1 16.0094 17.9185 19.5748
93 3 1.94664 2.08162 24.8733
1665 2 1.86585 0.102659 23.2894
2667 3 0.0317365 0.0553317 25.0495
3168 2 0.0750531 2.1227 23.1618
2158 2 5.47067 0.133366 23.0392
2670 1 3.68931 0.155523 24.8523
3170 2 7.33724 1.95284 23.1464
3169 2 3.81797 1.85053 23.1711
3659 1 7.2101 0.181079 24.9542
3658 3 5.44258 1.96529 24.8578
537 1 9.00661 1.79564 25.0556
2671 2 9.00434 0.0729743 23.2874
3171 1 10.7132 0.00792998 24.9545
3660 3 10.7268 1.83184 23.2475
2673 3 12.6286 0.07668 23.2844
3663 1 14.2768 1.74472 23.0019
3662 2 14.2912 0.107407 24.9471
3661 1 12.5468 1.88148 25.0232
539 2 16.0328 1.88322 25.0288
1167 1 17.9633 0.0953619 24.8928
1668 1 17.796 1.89383 23.332
2160 3 16.0431 0.0843073 23.1557
99 3 1.98706 5.44963 24.8215
98 1 1.93629 7.19755 22.9997
97 1 0.0660588 7.16598 24.8907
96 1 0.212628 5.39818 23.2103
3173 2 2.11109 3.80755 22.96
3172 2 0.106542 3.7655 24.8124
540 1 3.63142 7.24545 24.9319
541 1 5.53519 7.13876 23.0962
542 1 7.34321 5.39816 23.2388
543 2 5.26388 5.41851 24.8599
101 2 7.30473 7.15186 24.9679
100 2 3.73154 5.55011 23.0965
2675 3 7.31476 3.55396 25.0319
3175 1 3.63195 3.57706 24.9144
3665 3 5.51315 3.71198 23.2523
546 1 8.92692 7.11533 23.1677
547 1 9.11717 5.40543 25.0451
102 2 10.752 5.33149 23.1321
1170 2 10.6456 7.20676 25.0365
3177 3 10.7478 3.59357 24.9407
3666 1 9.03841 3.75687 23.1232
548 3 14.2984 5.38734 23.2582
549 3 12.4219 5.26569 25.1379
105 2 14.3673 3.5619 24.9292
1670 3 12.5636 7.20236 23.3033
3179 1 12.4889 3.7401 23.0223
3667 3 14.4156 7.10833 25.0665
1172 1 16.1537 5.15334 25.0793
1672 2 17.8784 3.66441 25.0898
1671 3 16.1847 7.27758 23.2117
2678 1 17.8884 7.14963 25.0614
2677 3 17.9342 5.45652 23.2536
3668 2 16.0769 3.59548 23.2531
550 3 0.133977 8.97579 23.1288
106 2 1.98213 10.6595 23.1701
1175 2 1.91276 8.76894 24.7465
3669 1 0.0655539 10.7245 24.8075
108 2 5.6755 10.7928 23.205
1180 2 7.16271 10.7006 25.0177
1178 2 7.27512 8.83067 23.2533
1177 3 3.75304 8.96783 23.0737
1176 1 5.57077 8.99354 25.0184
3670 1 3.75371 10.7959 24.928
551 2 10.9127 10.7963 25.038
552 2 9.05044 10.7077 23.3767
1181 1 9.03442 8.98468 25.0133
1674 1 10.892 8.99847 23.3676
1182 1 12.4082 10.6907 23.3492
1676 3 12.6303 8.8647 25.0583
1675 3 14.2267 9.04066 23.1415
2163 1 14.3563 10.597 24.9275
1183 2 16.0423 8.77983 25.0468
1677 3 16.069 10.6881 23.2018
2165 3 17.8024 10.9262 24.9887
3671 3 17.8715 8.90571 23.3412
555 3 0.12561 14.3689 24.8927
1184 2 2.01424 14.1777 23.2203
1678 3 1.92071 12.5413 24.9482
2166 3 0.195068 12.494 23.1792
113 2 7.33764 14.3022 25.1196
1185 3 5.51248 12.5705 25.046
2170 1 5.7187 14.3888 23.279
2169 3 3.7742 12.6417 23.1669
2168 1 3.71791 14.2571 25.0448
2167 3 7.32714 12.4905 23.4086
1680 1 10.8814 14.5893 25.0198
2171 1 10.7432 12.6778 23.5296
2682 3 9.07577 14.203 23.2969
2681 1 9.00557 12.4914 25.1313
114 3 14.2886 14.3885 25.0269
1681 2 12.5351 12.5334 24.9344
2684 2 14.1288 12.7863 23.2842
2683 2 12.4817 14.525 23.2253
557 1 18.0161 12.5112 23.2072
2173 3 15.9848 14.239 23.1608
2685 2 16.1293 12.4222 24.801
3183 2 17.8282 14.2955 24.8329
1684 3 1.74055 16 25.0018
1683 2 1.86414 17.7988 23.2835
2688 2 0.200717 16.0596 23.211
2687 1 -0.0396248 17.9523 25.0495
2175 3 7.25584 17.7954 24.9067
2174 1 5.54787 17.7448 23.199
2689 1 3.77323 17.7282 24.9915
3187 3 5.54299 16.1407 24.8442
3186 1 7.38881 16.1512 23.1776
3185 2 3.53459 15.9303 23.3721
1687 3 9.03102 17.8818 23.1675
1686 1 9.01181 16.0757 25.0564
2177 1 10.6822 17.9235 25.0353
3675 1 10.7846 16.1554 23.1494
2178 2 14.2972 18.0548 24.9167
2690 3 12.4931 17.9128 23.1887
3188 3 12.6679 16.2347 24.9739
3676 3 14.4065 16.1716 23.273
1187 1 17.9319 16.0242 23.2633
1186 2 17.8612 18.0198 24.9417
1689 1 16.2192 16.0769 25.0381
3189 1 16.1219 17.9971 23.2209
1188 3 0.0596455 0.228142 28.5483
2180 3 1.81392 2.06857 28.5078
2668 3 1.95714 0.191425 26.5908
3657 3 0.169534 1.89573 26.6294
559 3 7.20086 0.121496 28.5797
94 3 7.29968 1.85485 26.7304
1189 3 3.8414 0.0834001 28.3482
1666 1 5.4931 0.158115 26.6197
2181 2 5.54057 1.96088 28.5033
2669 3 3.66616 1.90648 26.7346
560 3 10.7957 0.098489 28.5087
95 2 9.04465 0.0881503 26.8385
2182 1 8.9982 1.97409 28.5127
2672 1 10.8942 1.93859 26.6603
538 1 14.2814 1.89387 26.8109
1667 2 12.4132 -0.0141723 26.6744
2184 3 12.552 1.72317 28.386
2183 3 14.3607 0.000358669 28.3549
2159 2 17.8418 1.91929 26.8411
3193 3 16.1732 1.91609 28.4299
3679 2 17.7555 0.0981618 28.3765
3664 1 16.1094 0.000188322 26.5654
1168 1 1.94291 3.73563 26.7138
1669 2 1.85752 7.28946 26.6599
2186 3 0.123014 7.17758 28.4997
2185 1 -0.0262338 3.7261 28.6616
2674 3 0.156809 5.40712 26.6814
3194 1 1.99062 5.57935 28.3844
544 2 3.85335 5.54375 26.6273
563 2 7.27429 7.28354 28.4647
1691 1 7.1554 3.68741 28.4439
1690 1 3.90353 3.63229 28.4887
2676 1 7.18285 5.52514 26.5765
3196 1 3.73583 7.0782 28.4081
3195 1 5.44592 5.49037 28.5952
3176 1 5.4497 3.64712 26.6109
3174 2 5.41017 7.24302 26.6902
545 3 10.9742 5.44468 26.9796
1171 1 9.03205 3.68035 26.9557
1169 3 9.07509 7.15925 26.8306
2694 2 10.8063 3.60441 28.5018
3197 2 8.94465 5.4143 28.4895
3681 2 10.7529 7.22986 28.6025
104 1 12.6893 3.64122 26.781
103 1 14.3889 5.32566 26.6599
2695 1 14.3947 3.7746 28.5395
3178 2 12.6004 7.09497 26.8529
3684 3 14.3839 7.21786 28.4863
3683 3 12.6616 5.27279 28.6928
622 1 17.8015 3.83339 28.6426
1004 1 17.9686 7.28684 28.6127
1174 1 16.1978 7.12495 26.7904
1173 2 17.8995 5.47452 26.9423
3180 2 16.1265 3.60768 26.7928
3685 3 16.1285 5.54078 28.5392
1673 1 0.292662 8.95971 26.6429
2161 3 2.06677 10.82 26.6432
2696 3 0.367709 10.7819 28.3376
3687 2 1.93683 8.91162 28.5176
122 2 7.11935 10.8541 28.5254
107 3 3.6113 8.90541 26.7076