ITEM: TIMESTEP
5000
ITEM: NUMBER OF ATOMS
4000
ITEM: BOX BOUNDS pp pp pp
1.6254110250045528e-01 3.5571518897499686e+01
1.6254110250045528e-01 3.5571518897499686e+01
1.6254110250045528e-01 3.5571518897499686e+01
ITEM: ATOMS id type x y z
3149 1 16.0049 16.0611 17.9481
1064 3 1.93123 1.93935 0.0476751
1128 1 5.59529 1.93229 17.8307
2061 2 17.9543 16.0964 16.0216
1 2 3.84269 1.96115 1.92083
57 2 10.8024 8.92458 16.0707
2065 2 7.1635 1.90065 1.95653
2638 3 3.71733 10.8682 17.9412
3064 2 5.44732 1.97271 0.0372866
2120 1 7.33551 8.96611 16.171
2 2 10.6816 1.79098 1.92908
51 2 3.72508 2.05511 16.1107
1564 2 8.97767 0.232611 1.81568
2566 2 10.7674 0.0371421 0.05798
1619 1 5.45213 10.8599 16.1869
2066 3 14.4017 1.85295 1.92599
3066 2 12.516 1.85921 0.133837
3565 3 12.5488 -0.000713742 1.85764
751 2 17.8229 0.24971 0.140967
1068 2 16.0027 2.00691 0.131372
3125 1 1.95998 1.93683 17.8507
2056 2 17.7462 9.0114 16.1558
3 1 0.286221 5.57506 1.98419
3742 3 12.51 17.7821 16.1183
1568 1 1.98153 7.28593 1.92672
56 2 3.66008 8.98072 16.2027
3068 2 2.00867 5.6114 0.16796
3566 1 1.9548 3.69852 1.94236
4 3 7.18427 5.44432 1.89529
569 2 3.66172 3.73662 0.104917
1613 2 1.977 0.17112 16.1621
1070 3 5.4795 5.31461 0.0822567
1566 1 5.55302 3.60611 1.95323
2067 1 3.73919 5.47895 1.96643
2576 3 3.73736 7.2272 0.215867
2571 2 7.21868 3.5677 0.0624883
3570 1 5.4722 7.14551 1.84993
2115 2 7.29575 2.02118 16.0942
1570 3 9.05687 7.25132 1.9295
2068 2 10.7449 5.4743 1.93852
2578 2 10.8316 7.33329 0.15982
1126 3 16.0638 16.0654 14.3161
3567 3 9.04005 3.62815 1.91175
5 3 14.2033 5.556 2.01414
581 2 14.3813 7.32318 0.165032
1072 2 12.4565 5.43525 0.213919
1567 1 12.4983 3.60371 1.77265
3614 1 5.49546 0.329724 16.1714
3572 2 12.5343 7.30638 1.95821
2126 2 14.1835 16.0029 16.2085
761 3 17.8179 7.24754 0.241995
1572 1 16 7.21309 1.91246
1150 2 12.493 16.0522 17.8536
3124 2 12.4848 15.9142 14.3544
3568 3 16.017 3.75293 1.96146
1074 3 1.91492 9.00753 0.107097
52 3 10.7792 1.92587 15.9772
1614 2 8.97917 0.258603 16.0769
3569 1 1.93126 10.8521 1.74359
6 3 3.70047 9.02528 1.8593
50 2 14.2781 16.1932 12.6727
1569 1 5.58819 10.9271 1.85559
2070 1 7.33577 8.79761 1.84409
3724 1 8.94334 17.8447 12.3688
2741 2 10.7649 17.747 14.3292
7 1 10.8474 9.02427 1.82801
578 3 10.7599 10.8927 0.290872
2112 3 10.7825 16.0303 12.6234
3571 3 9.01983 10.8019 1.81641
1571 2 12.4875 10.7603 1.93084
2071 3 14.3645 8.89094 1.97086
2582 2 14.2897 10.7876 0.166742
3076 1 12.5493 9.09913 0.106428
1078 1 16.0295 9.03636 0.212163
2006 2 17.8419 8.99423 2.00534
1125 3 8.97919 16.1435 14.2325
3573 3 16.107 10.7379 2.02443
8 3 0.164218 12.6259 1.97784
583 2 0.216518 14.4132 0.124925
1573 2 1.94781 14.4742 1.832
3078 1 1.99472 12.5753 0.153315
9 2 7.35025 12.692 2.00983
3123 3 5.44661 15.9988 14.1657
1080 1 5.42063 12.5551 0.00954366
2072 2 3.74392 12.6255 1.77784
2585 3 3.61963 14.2907 0.0581414
3574 1 5.38838 14.4127 1.96596
1574 3 9.08333 14.3884 1.89348
2073 1 10.748 12.611 1.98437
2111 1 3.71555 16.116 12.399
1721 1 5.50223 17.8488 12.473
10 1 14.4434 12.5288 1.9213
587 2 14.3706 14.237 0.221759
49 1 7.33503 16.0876 12.4509
3575 3 12.5503 14.2912 1.96539
3619 3 1.94577 10.6877 16.0853
2116 1 14.2848 1.85977 16.1356
1575 3 16.2173 14.3148 1.96973
3082 1 16.1547 12.5688 0.152384
3135 1 1.99421 8.98091 17.8932
1124 3 1.93834 16.0873 14.2554
3137 2 9.0663 8.88624 17.9788
2074 2 0.19963 16.1185 1.96
11 2 3.66994 16.1411 1.89375
3621 1 9.10869 10.6467 16.0659
2075 3 7.31279 16.1084 1.76668
3623 3 16.1326 10.8429 16.0531
3084 1 5.45061 16.1583 0.187932
3690 1 5.59454 17.8893 1.92887
12 3 10.8558 16.1182 1.86843
3613 3 15.9991 14.3292 12.5271
1690 1 9.09364 17.8691 1.98668
2693 3 10.7983 17.9106 0.190474
3618 3 16.038 3.79344 15.9483
2076 1 14.2345 15.9583 2.01257
3122 3 16.0918 12.5743 14.2978
2044 1 17.8445 12.5195 12.519
62 3 10.8098 15.9998 16.2742
811 2 17.8589 14.3038 14.2364
1622 3 15.9315 7.18066 16.0698
3740 1 5.47574 17.8736 15.9276
13 2 0.273021 2.1445 5.40012
588 3 0.144644 0.195497 7.22134
1089 1 1.96076 1.85054 7.31139
2109 2 14.2935 12.5245 12.4314
3063 2 2.04289 1.98508 3.59644
3576 2 1.95959 0.250605 5.48993
14 3 7.21982 2.00487 5.46914
564 1 3.66509 0.30112 3.82459
1065 2 5.39848 1.96021 3.63837
1577 3 3.71453 0.321873 7.31355
1611 3 12.5329 14.2893 12.5523
2078 1 5.3936 2.13039 7.16926
2077 2 3.67639 2.04172 5.44738
1140 1 12.6582 9.03723 17.8135
3622 2 12.6401 7.3755 16.0946
566 2 10.5796 0.218987 3.65477
2079 3 10.6889 2.00287 5.46208
3065 1 8.9948 2.00521 3.65306
3088 2 8.9685 2.01634 7.3544
3133 1 12.6544 5.37898 17.7777
3577 1 9.00473 0.338101 5.50786
15 3 12.4022 2.03808 7.18788
16 3 14.2686 1.87367 5.46312
1123 3 12.5917 12.5171 14.2853
1067 2 12.4897 1.86967 3.51611
1578 1 12.524 0.29094 5.33276
1617 2 12.4408 3.54083 16.1492
263 2 17.9489 1.87579 5.34268
625 1 14.3029 14.3716 14.371
1090 2 16.2651 1.85734 7.3566
3612 3 9.02514 14.2513 12.466
3067 1 16.0831 1.94752 3.71965
55 3 14.2808 5.22254 16.0853
2125 3 7.30708 16.1937 16.0831
1069 2 2.01442 5.48068 3.70398
1580 1 0.206132 3.72247 7.22734
1579 2 2.1201 3.80825 5.49441
2081 1 1.96945 5.46671 7.40341
1148 3 5.52343 16.1979 17.7807
3121 2 9.15178 12.4654 14.3887
61 1 3.59006 16.2076 16.1475
3583 2 1.83919 7.24707 5.37205
17 2 3.85371 5.56419 5.4255
571 3 7.24068 3.80222 3.66561
592 3 7.17922 7.315 7.14286
576 2 3.70868 7.32374 3.83012
1585 3 5.50749 7.38546 5.40018
2082 3 7.29445 5.4925 5.42305
2590 2 3.84911 3.69146 7.33999
2580 3 7.31398 7.30281 3.60726
2570 1 3.71684 3.80221 3.67712
3069 1 5.44829 5.58579 3.70126
3089 2 5.50292 5.54447 7.23966
3586 3 3.68056 7.31472 7.23384
3581 1 7.3024 3.83959 7.37725
3580 3 5.46539 3.8812 5.40232
18 3 10.6809 5.44324 5.37848
19 2 9.07266 5.6709 7.18297
590 1 10.6579 3.6739 7.22525
579 3 10.7164 7.24091 3.68472
1071 1 9.00354 5.39852 3.633
1587 2 10.6939 7.29575 7.2775
1581 3 9.04048 3.80356 5.55823
2572 2 10.784 3.58601 3.64221
3587 1 9.01402 7.29973 5.37385
572 3 14.1945 3.66187 3.67369
1091 2 12.5135 5.20489 7.38955
1589 2 12.6014 7.15218 5.76809
1583 1 14.3197 3.70461 7.17021
2083 2 14.4002 5.44591 5.56333
2593 1 14.2367 7.01473 7.34692
2583 3 14.3089 7.14032 3.83783
3071 1 12.4445 5.37835 3.8462
3582 1 12.5973 3.71094 5.32009
757 3 17.8418 3.83219 3.64249
1073 1 16.0698 5.40069 3.79311
1768 2 17.921 3.70176 7.15905
1582 2 16.1514 3.72512 5.47406
2084 3 16.0841 5.38646 7.1742
2017 2 17.9292 5.42028 5.49375
2841 2 17.9736 7.15383 7.27302
2826 1 17.8336 7.14024 3.73181
3589 2 16.1649 7.14385 5.62173
20 3 0.168168 9.02991 5.53014
574 1 0.136528 10.6993 3.65047
1584 3 1.85201 10.8723 5.29148
3073 2 1.91661 9.15192 3.72643
3090 3 1.86739 8.981 7.12879
3584 1 0.13094 10.8318 7.32272
21 2 5.49868 9.09991 7.2123
22 1 7.21918 9.11086 5.45381
591 3 3.53694 10.8658 7.06636
580 1 7.28724 10.802 3.5559
1075 2 5.51621 9.01583 3.59824
1588 2 7.23653 10.8794 7.23875
2085 1 3.73407 9.1299 5.37831
2577 3 3.83113 10.8341 3.56601
3585 3 5.49119 10.7968 5.3439
1092 2 8.90746 8.9776 7.22154
1586 1 8.95819 10.8089 5.23807
2086 3 10.7556 9.04354 5.4499
2592 2 10.7358 10.6682 7.18171
2581 2 10.8694 10.7663 3.69101
3075 2 8.9681 9.01872 3.60461
23 1 14.3439 8.98956 5.78494
582 1 14.2791 10.7678 3.66809
1077 3 12.5322 8.93712 3.80059
2087 3 12.6318 9.0348 7.29708
3590 1 14.4144 10.8339 7.31524
3588 1 12.5854 10.7547 5.2599
2625 1 10.7498 14.175 14.3912
1738 1 1.93013 17.7973 16.1555
1590 3 16.1535 10.7337 5.50569
3091 1 16.1381 8.8779 7.19252
3077 3 15.9902 8.9292 3.79429
2521 3 17.8172 14.3692 17.9119
24 1 1.97555 12.6406 7.32835
593 2 0.244322 14.3299 7.21683
1079 3 1.86942 12.6117 3.71697
2088 1 0.140033 12.607 5.5106
2584 1 0.0579845 14.5012 3.673
3591 3 1.94128 14.402 5.44404
25 3 3.59582 12.5444 5.31713
584 1 3.70168 14.3297 3.68494
1093 1 5.35394 12.4068 7.18444
1592 3 3.80235 14.2714 7.36311
1591 3 5.44857 14.2663 5.46301
2089 3 7.23465 12.47 5.42634
2594 3 7.21521 14.2661 7.20061
2587 1 7.19746 14.2717 3.72125
3079 3 5.42176 12.6228 3.64138
26 2 10.9308 12.5462 5.42868
586 1 10.7387 14.3089 3.8154
1081 2 9.04024 12.6553 3.83263
2090 1 9.07328 12.6817 7.23721
3593 1 10.8664 14.2411 7.29342
3592 3 9.03049 14.2901 5.56166
594 1 14.2178 14.523 7.26447
1593 2 12.4178 14.4164 5.46129
2091 1 14.3099 12.8864 5.57232
2588 2 14.3043 14.3514 3.74908
3092 3 12.517 12.5256 7.16059
3081 3 12.6388 12.6287 3.6392
27 3 16.2066 12.5043 7.20443
781 1 17.9027 14.304 7.46487
1083 3 16.2137 12.5178 3.71253
1625 2 16.1447 14.1663 16.1685
2835 3 17.9428 14.3016 3.80392
3594 1 15.9391 14.2645 5.45812
28 1 0.244306 15.9315 5.56095
651 2 0.152608 17.8721 7.25285
1094 2 1.93469 16.1588 7.30954
46 3 10.751 12.5323 12.5853
3083 2 1.88861 16.2542 3.68871
3617 3 9.17022 3.82378 16.004
29 1 7.18187 16.2555 5.43102
2633 1 10.9575 3.66833 17.7908
1085 3 5.46827 16.007 3.85714
2118 2 10.9395 5.56669 15.9942
1620 1 9.04471 7.1375 16.0841
2093 3 5.35139 16.0227 7.17165
2092 1 3.6601 16.042 5.3772
2715 2 7.25511 17.7405 7.25582
2695 2 7.36153 17.8653 3.64623
1134 3 9.2422 5.27143 17.8006
2094 1 10.5531 16.1975 5.5024
3093 1 9.13067 16.2362 7.29347
3085 2 9.01281 16.0871 3.77533
515 1 10.8989 7.27971 18.0099
3703 2 8.96454 18.0038 5.5204
30 2 12.3563 16.1302 7.24869
31 1 14.2835 16.0167 5.54867
3620 2 5.35387 7.21522 16.1604
1087 2 12.5479 16.0974 3.77807
2624 2 3.71819 14.3461 14.231
2108 2 7.32647 12.4959 12.5845
278 3 17.8753 16.0707 5.62481
308 1 17.9533 12.4439 16.104
1095 1 16.0234 16.3187 7.33974
2878 1 17.8884 17.7364 3.73989
3087 2 16.1336 16.0278 3.75728
2640 2 7.21932 7.18284 17.8428
1594 2 1.8901 0.244219 8.99748
2095 2 0.0893614 2.01464 9.0423
2595 2 0.207753 0.0392919 10.6451
3094 1 1.91089 1.91343 10.8281
33 3 7.22424 1.9074 9.03785
595 3 3.77118 0.195868 10.8262
1096 1 5.47402 1.94456 10.7572
2597 2 7.24111 0.14905 10.782
2117 1 3.71412 5.4238 16.029
3095 2 3.67237 1.99715 9.15222
1616 3 5.46635 3.72609 16.05
1097 2 10.7538 1.88028 9.07878
3096 1 9.03655 1.93201 10.5865
3596 1 9.05159 0.208472 8.89172
513 3 3.74127 7.11755 17.9377
1098 3 12.5244 1.93373 10.7899
2098 2 14.3812 1.94426 8.83867
1610 3 5.53461 14.3716 12.5117
54 1 7.26519 5.64087 16.1397
2032 2 17.9176 1.88885 9.07557
3625 1 12.6135 14.2518 16.1265
3097 2 16.0827 1.77194 10.7363
598 2 0.139448 3.78303 10.6635
1099 2 2.05065 5.55035 10.6699
2603 2 0.20439 7.18293 10.8457
2599 3 2.10568 3.78801 9.09304
3143 1 12.6212 12.3878 17.9755
3602 2 1.94275 7.42173 9.03308
36 1 3.73597 5.61795 8.9866
605 3 3.77668 7.31636 10.7772
604 1 5.52645 7.28607 8.96552
600 3 7.21075 3.71101 10.7807
1100 3 7.18534 5.56876 8.99956
2606 3 7.2425 7.34944 10.7672
2600 2 3.75945 3.73046 10.8008
3099 2 5.33623 5.58384 10.8127
3599 2 5.54603 3.67442 9.14748
606 3 10.7892 7.32785 10.7244
599 2 9.05153 3.75639 9.05253
1101 3 8.95109 5.43832 10.7751
1605 1 8.93867 7.21383 9.01692
2100 2 10.8924 5.51945 8.993
2601 1 10.7732 3.74705 10.8362
601 2 14.4486 3.62743 10.7493
1600 1 12.5624 3.61668 9.09521
2609 3 14.3494 7.18222 10.7393
2608 1 12.5724 7.16306 8.98429
3101 2 14.4202 5.30138 9.03946
3100 3 12.6802 5.42766 10.6746
786 1 17.8014 3.58155 10.7548
1102 2 16.2531 5.33482 10.574
2650 1 14.3804 14.2374 17.9569
2602 2 16.0813 3.5962 8.97488
3348 1 17.8328 5.36887 9.06253
3608 3 16.0033 7.23943 9.03035
60 2 14.2415 12.6623 16.2716
603 3 0.296395 10.9348 10.7351
602 3 1.99207 10.8276 9.03111
3102 1 1.99373 9.17524 10.9012
607 1 7.31483 10.7617 10.8368
1104 3 5.5863 9.14191 10.9038
1103 2 3.70289 9.07505 8.95201
1603 1 5.38915 10.7366 9.15924
2104 2 7.24408 8.95738 8.91628
2604 2 3.75295 10.8671 10.8873
2607 3 10.9045 10.73 10.8771
2605 3 9.04648 10.7669 9.0541
3104 3 9.06548 9.08075 10.7587
3103 2 10.7361 9.08834 8.94247
42 1 14.3654 9.01336 8.89656
609 2 14.3198 10.6599 10.5434
1105 3 12.6042 8.82648 10.703
3606 1 12.4011 10.7879 8.97648
289 3 17.9113 8.90885 9.03131
792 3 17.835 10.8218 10.9157
608 2 16.21 10.6828 8.96756
3105 1 16.1384 8.98753 10.6864
1107 2 1.86117 12.7009 10.7722
1106 2 0.121051 12.5749 9.05645
1609 1 1.84738 14.2716 9.04602
2123 2 10.803 12.378 16.1266
610 3 3.71782 14.3684 10.6941
2107 2 3.86368 12.6224 9.04596
2612 2 7.32831 14.1923 10.7309
2611 1 5.53499 14.2456 9.01278
3107 1 7.19113 12.4604 8.92539
3106 3 5.56621 12.4465 10.8142
45 2 10.8325 12.4564 9.08801
611 1 10.7923 14.3406 10.7392
1108 1 9.04413 12.5059 10.7375
3611 2 9.01094 14.24 8.90409
612 2 12.6497 14.3627 9.09656
1109 1 14.3586 12.5768 9.00526
2613 2 14.2534 14.3502 10.9089
3108 1 12.5576 12.6126 10.6708
1293 3 17.9416 12.4455 9.05991
1110 3 16.0694 12.6035 10.8955
1612 1 15.9 14.402 9.18066
2860 3 17.8449 14.3381 10.7863
3616 3 1.91799 3.69513 16.0638
1624 1 8.95332 14.2421 16.2102
1144 3 9.08999 12.4244 17.8619
3109 2 1.8061 16.2484 10.8372
48 1 7.19054 16.048 9.05109
659 2 3.72454 17.8215 10.759
1111 3 5.54761 16.0793 10.7872
2636 3 0.0494303 7.20314 17.9375
2722 1 5.53913 17.8431 8.93077
3110 3 3.72069 16.2176 9.04312
661 1 10.7094 17.8648 10.7161
1112 2 10.9007 16.0775 9.02577
3111 3 9.05314 15.9808 10.7986
3723 1 8.98829 17.7933 9.03656
1618 1 1.77823 7.14716 16.2088
1113 2 12.5682 15.9988 10.8602
2113 1 14.1529 16.2495 9.05435
1122 3 5.56596 12.601 14.312
1725 1 16.0196 17.9051 9.13388
2047 3 17.7476 16.1114 9.10832
523 3 10.7252 14.2664 17.7786
3112 1 16.0182 16.1847 11.0032
32 2 0.078668 1.81724 12.4851
613 1 0.176004 0.0513329 14.1455
1114 2 1.97986 1.92063 14.2388
1621 2 12.4968 10.7931 16.2427
34 3 7.24459 1.95408 12.5099
614 2 7.26148 0.252525 14.2524
1595 2 5.54397 0.156301 12.445
2096 2 3.62774 1.9522 12.4587
2614 1 3.65729 0.116102 14.3381
3113 1 5.4054 2.00213 14.3186
1115 3 8.8922 1.90025 14.2773
2097 1 10.8321 1.92771 12.7313
2121 2 14.28 9.13882 16.0679
3597 3 9.05678 0.0894443 12.4836
35 2 14.4725 1.84854 12.4388
624 3 7.37206 14.3009 14.4563
2051 3 17.893 1.87264 16.2013
3114 3 12.5426 1.86724 14.4509
3624 1 5.49777 14.3753 16.0193
1615 1 16.0752 0.132894 16.0116
1116 3 16.125 1.9503 14.3029
3615 2 12.4718 0.0288277 16.1655
3141 2 5.48828 12.5349 17.8497
1598 2 1.93312 3.72161 12.4568
44 2 3.96685 12.5721 12.5713
2122 3 3.67876 12.5285 16.1674
3115 3 1.88847 5.48156 14.2938
3603 2 2.01277 7.07284 12.3847
37 1 3.65962 5.33192 12.5002
620 1 6.99786 7.15585 14.5006
616 2 3.67477 3.71026 14.16
1117 2 5.45496 5.36277 14.1366
1604 3 5.3585 7.33961 12.5508
2101 2 7.27036 5.676 12.5224
2620 1 3.61558 7.15733 14.3479
2617 1 7.37848 3.84439 14.224
3600 3 5.51983 3.70783 12.4685
38 3 10.8546 5.49474 12.4425
617 1 10.8804 3.65179 14.2394
1599 3 9.11859 3.71003 12.512
2621 3 10.9175 7.22423 14.3095
3116 2 9.0427 5.51843 14.2376
3605 1 9.09216 7.33178 12.5839
622 1 14.1436 7.11838 14.5527
1118 1 12.6772 5.36919 14.4592
1607 1 12.7041 7.14999 12.5801
2102 1 14.4305 5.50222 12.5158
2618 2 14.3753 3.61851 14.1113
3601 2 12.6428 3.69287 12.4554
806 1 17.8312 7.30506 14.3666
1601 1 16.051 3.55748 12.4526
522 1 3.83738 14.2864 17.9052
59 1 7.12501 12.4483 16.2735
3117 3 16.0323 5.4272 14.3154
3609 2 15.9951 7.29698 12.5702
40 2 0.122486 9.00264 12.6261
1119 3 1.95068 8.95323 14.4726
1602 2 1.92884 10.8941 12.6849
2619 3 0.224584 10.7726 14.3516
41 1 7.32869 9.03598 12.7249
619 3 3.65993 10.8355 14.4716
2103 1 3.58135 9.13167 12.7143
2622 1 7.30414 10.6911 14.4404
3118 3 5.34024 9.11424 14.434
3604 1 5.39636 10.8108 12.5284
621 1 10.9287 10.7137 14.5276
1120 2 9.04855 8.80734 14.3216
1606 1 9.05612 10.7767 12.7361
2105 2 10.8874 8.98853 12.6702
43 1 14.3052 9.03204 12.524
2623 1 14.3186 10.7692 14.4364
3119 2 12.7357 9.06745 14.4203
3607 3 12.5802 10.8189 12.5623
290 2 17.8816 8.82466 12.6183
1121 1 16.2196 8.92465 14.3794
1608 3 16.0689 10.7894 12.6284
2870 2 18.03 10.8771 14.2366
623 1 0.210174 14.4748 14.1974
1623 3 1.96392 14.4277 16.0598
3120 2 1.88169 12.7762 14.3098
3610 2 1.94374 14.4635 12.4673
1183 3 12.6204 8.80741 32.0904
63 2 0.192933 1.95674 19.5154
1127 2 1.89622 1.82153 21.4802
3626 3 1.96283 0.141704 19.631
120 1 14.3168 9.00372 33.9086
64 2 7.27951 1.87234 19.6923
1626 1 5.50293 0.286433 19.5341
2127 3 3.68426 2.00812 19.69
2627 2 3.74012 0.245796 21.3218
3126 3 5.49262 1.96174 21.4147
1129 2 8.97655 1.84976 21.4251
2128 3 10.7669 1.90838 19.6729
2629 3 10.7522 0.216706 21.4667
560 1 14.2337 10.7884 31.9999
505 1 14.3388 0.110166 21.4203
65 1 14.3563 1.84184 19.4953
1627 3 12.4947 0.0196572 19.5779
3128 1 12.6973 1.7995 21.3644
3181 2 9.02378 9.0048 31.9702
3187 3 16.1279 16.0495 32.1633
1131 1 16.2822 1.95932 21.4197
2684 1 10.8209 10.7951 32.039
373 3 17.8613 16.0076 33.9071
1628 1 1.83581 3.6627 19.7755
2805 1 14.3451 18.0257 31.941
2183 3 10.71 8.9827 33.8037
3130 1 1.93701 5.63453 21.3188
3631 1 1.90126 7.28676 19.5403
507 1 3.76924 3.68213 21.3218
517 2 7.25816 7.22144 21.3857
66 2 3.69356 5.45791 19.6844
1133 1 5.58181 5.42596 21.4155
1632 2 5.54917 7.34785 19.6456
2130 2 7.23879 5.61815 19.7665
2639 1 3.77468 7.20689 21.2837
2634 3 7.24101 3.64103 21.4385
3629 1 5.62172 3.74767 19.723
509 1 10.6689 3.81176 21.4823
67 1 10.9426 5.49613 19.6489
1629 2 9.19222 3.66113 19.6245
2642 1 10.7251 7.18426 21.4197
3132 3 8.97538 5.43714 21.6327
3633 2 9.08108 7.16621 19.5809
520 1 14.283 7.20974 21.381
1135 3 12.6752 5.40444 21.3519
1634 1 12.6336 7.3482 19.5711
2131 1 14.3194 5.35506 19.5502
2635 3 14.4871 3.48927 21.3111
3630 3 12.6213 3.5788 19.7362
1188 1 12.4933 16.1114 32.079
1630 2 16.1898 3.648 19.6283
125 2 14.4349 16.1889 33.7241
3803 1 9.10199 17.8249 33.8539
3134 3 16.1679 5.48574 21.4315
3635 3 16.1829 7.19878 19.6423
68 3 0.277196 9.06781 19.7447
1137 1 2.06945 8.94167 21.3553
1631 1 1.92354 10.8456 19.6873
2637 2 0.341289 10.8668 21.5354
514 2 3.90739 10.763 21.2847
69 1 7.26923 8.95486 19.5933
2132 2 3.83042 9.11478 19.6429
2643 2 7.01982 10.8136 21.5055
3136 1 5.39818 9.00572 21.5051
3632 1 5.5782 10.7719 19.5893
518 1 10.745 10.9782 21.5312
1139 1 8.98826 8.98168 21.4572
1633 3 8.91146 10.6682 19.626
2133 3 10.8645 9.01833 19.7218
70 3 14.3161 8.92916 19.647
2645 1 14.461 10.7447 21.3843
3138 2 12.6091 9.01209 21.4486
3634 3 12.5614 10.7703 19.6448
3186 2 9.0342 16.1426 32.1399
1141 2 15.9531 9.07145 21.3818
1635 2 16.1364 10.775 19.7575
2514 3 17.8261 10.8044 21.4204
521 3 0.29399 14.1425 21.4632
2188 2 10.8201 16.1718 33.8844
3140 1 2.08128 12.4734 21.4966
3636 1 2.03405 14.35 19.5301
524 1 7.16501 14.3824 21.2675
71 2 3.85122 12.6369 19.6209
1143 1 5.37588 12.7013 21.3059
1636 2 5.54424 14.4894 19.5903
2135 3 7.23154 12.4924 19.5818
2647 2 3.68021 14.3342 21.4175
72 3 10.7978 12.4762 19.5836
2649 2 10.8291 14.2665 21.3323
3142 1 8.8762 12.4213 21.4031
3637 2 8.89797 14.2704 19.6495
525 3 14.2572 14.4229 21.3746
1145 2 12.6103 12.6213 21.408
1637 1 12.6384 14.5492 19.5784
2136 2 14.38 12.6631 19.6556
1683 1 8.98464 10.7606 33.8134
3682 2 5.45172 10.7602 33.7103
3144 2 16.2433 12.5682 21.2942
3638 1 16.1154 14.3143 19.7275
2682 2 3.6545 10.821 32.0255
73 2 0.184267 16.1179 19.6023
1147 2 2.00016 16.0834 21.3956
3751 1 1.95681 17.8225 19.6884
695 1 7.26955 17.9099 21.293
74 2 7.19406 16.172 19.5934
2182 3 3.7322 8.95694 33.802
2137 1 3.81252 16.1169 19.6315
2754 3 3.65694 17.773 21.4178
3146 2 5.40341 16.2087 21.3692
1149 2 8.88195 16.0549 21.2722
2138 3 10.7293 16.0768 19.5962
2757 3 10.7658 17.7387 21.3735
1182 1 5.39705 9.08552 31.94
119 1 7.33868 9.00407 33.7108
75 1 14.3636 16.1931 19.7268
559 2 7.18977 10.8201 31.9991
3148 2 12.6148 16.1519 21.3665
2187 2 3.82441 16.136 33.7454
1552 1 5.64596 17.9072 33.8614
1151 3 16.1866 16.2158 21.4282
3180 1 1.90079 9.12964 31.9616
1681 1 1.88844 10.7587 33.6405
2139 1 0.170684 1.88543 23.1915
1187 3 5.54826 16.2368 31.9022
3150 2 1.88898 1.9897 24.9115
3684 2 12.5297 10.7973 33.7921
77 3 5.60004 1.83074 24.96
76 1 3.49748 1.70308 23.2487
2140 3 7.37968 1.98981 23.1724
368 1 17.7445 8.8703 33.8147
3639 1 5.48177 0.182616 23.0157
78 1 10.6951 1.75429 23.2207
1152 2 9.05492 1.94414 25.1071
3685 1 16.0677 7.1076 33.7919
2556 2 17.7782 7.16848 31.8922
2142 3 14.4653 1.84891 23.1214
2141 2 12.5415 1.88654 25.0032
1685 2 15.9896 10.7707 33.8197
3641 2 12.6777 0.153477 23.2182
1641 3 16.1933 0.0350189 23.1229
2326 2 18.0117 1.91407 23.198
2526 2 18.0224 0.233825 24.9262
3151 1 16.3147 1.92604 24.8152
528 1 0.284059 7.28675 25.024
80 2 1.99896 5.32001 24.9688
124 2 7.20935 16.0361 33.749
1645 3 2.02392 7.19815 23.3573
3643 1 0.194274 3.62884 24.9222
3642 3 1.92604 3.87224 23.0493
527 1 3.74064 3.62134 24.8571
81 2 7.18387 5.44591 23.2129
1153 3 5.38021 5.3693 24.9923
1648 3 3.71126 7.16664 25.0064
1643 1 7.279 3.61632 24.9501
1642 1 5.42412 3.58504 23.4045
2143 1 3.83611 5.41317 23.2791
2655 3 7.20013 7.051 24.9141
3648 3 5.45809 7.22699 23.2191
1649 2 8.97892 7.23533 23.2099
2145 3 9.02165 5.3737 25.0589
2144 3 10.7185 5.44281 23.2101
2653 1 10.8347 3.62693 25.0113
3650 2 10.7998 7.15044 24.921
3644 3 9.0818 3.56631 23.3204
530 1 14.3862 7.06912 24.9423
82 3 14.428 5.36119 23.2017
1644 1 12.5525 3.61951 23.2584
3152 2 12.6084 5.41237 24.9162
3652 1 12.5471 7.28755 23.1293
3646 1 14.3593 3.78075 24.8718
1680 1 16.0636 3.65941 33.6352
1181 1 16.0362 5.40508 31.8438
83 2 16.1241 5.43443 24.9749
1651 3 16.1578 7.17976 23.0738
3185 3 1.92101 16.0596 32.0992
3645 3 16.1988 3.71414 23.1112
1154 2 1.92735 9.11577 24.9878
1646 1 0.09987 10.6587 24.7794
866 2 17.8081 3.75525 31.828
3647 2 2.06543 10.791 23.3013
84 3 3.7219 8.94369 23.2629
1647 2 5.50749 10.8827 23.3631
2148 2 7.31703 9.08608 23.232
2147 1 5.52878 8.97511 25.025
2654 2 3.79081 10.6447 25.0452
3651 3 7.29657 10.8556 24.9368
529 2 10.7695 10.7913 24.8198
85 2 10.8333 9.01976 23.0856
3153 2 9.11528 9.09986 24.9661
3649 1 9.07724 10.7994 23.122
86 3 12.5661 8.99968 25.0787
1652 1 14.3955 10.6805 24.8739
1650 1 12.5132 10.728 23.2528
2149 2 14.3879 9.00298 23.2404
1155 1 16.0979 8.93628 25.0064
1835 2 17.7744 10.9132 24.9734
123 3 0.283855 16.23 33.7169
3653 2 16.1886 10.7879 23.138
87 1 0.279412 12.5861 23.3446
1653 3 1.95548 14.255 23.132
2150 2 2.16538 12.4545 24.9269
3688 2 16.1305 14.2062 33.8761
531 3 7.33535 14.3944 24.952
88 3 7.21576 12.6624 23.2195
2151 2 3.82904 12.5996 23.1885
3154 3 5.52899 12.6297 24.9144
3655 3 3.75727 14.2691 24.9575
3654 1 5.51416 14.2451 23.2273
89 3 8.99923 12.6145 24.8743
1655 1 10.7472 14.3387 25.0222
1654 2 9.11075 14.4113 23.0537
2152 1 11.0461 12.6176 23.25
90 3 14.3318 12.5516 23.239
1156 2 12.6247 12.5147 25.0047
2657 2 14.2168 14.3704 24.9075
3656 1 12.5414 14.2701 23.2252
337 3 17.7175 12.5933 23.2635
1656 3 16.0461 14.4542 23.2233
2153 1 16.0562 12.706 24.9412
1186 2 16.1177 12.4991 32.1341
1513 3 1.92618 17.9202 23.118
2154 3 0.311395 16.1561 23.1139
3184 3 12.4822 12.5697 31.958
3155 1 2.12415 16.1269 24.9483
3680 3 12.5139 3.74924 33.8805
92 3 5.59445 16.0883 25.0377
91 1 3.78045 16.0053 23.2645
2155 3 7.26997 16.112 23.2196
3179 2 12.6734 5.67002 32.0231
2685 2 14.4395 7.23049 31.7797
93 2 10.8003 16.0556 23.2339
1157 2 9.03227 16.2492 24.986
1515 2 9.13749 17.9027 23.1843
1516 3 10.8729 17.8749 24.9574
2157 3 14.2182 16.2158 23.1525
2156 2 12.5494 16.0692 25.0037
2778 2 14.317 18.0106 24.9728
3769 1 12.5702 17.8571 23.2026
1519 3 16.0314 17.9551 23.1073
2341 3 17.7927 16.1441 23.2347
2181 1 14.2828 5.55342 33.6293
3156 1 16.0457 16.1192 25.106
2688 3 14.4213 14.2209 32.0255
2186 1 14.3278 12.3963 33.8587
1158 3 2.04031 1.90173 28.7243
1684 3 12.5117 7.34582 33.9042
533 3 5.58565 0.0728336 26.8155
555 3 14.2337 3.76377 32.0645
1159 2 3.77006 1.88535 26.6441
2159 3 7.28277 1.99829 26.5767
3683 2 9.04256 7.19019 33.7019
3157 2 5.5693 2.00655 28.4913
1160 1 8.8538 1.81317 28.5032
2680 3 10.8957 3.722 32.1113
1679 3 9.06746 3.47228 33.7636
3158 1 10.7709 1.91782 26.7578
535 3 14.374 0.163565 28.4846
97 1 14.4945 1.96044 26.6411
2660 3 12.6728 0.261835 26.8289
3159 1 12.4941 2.0144 28.4723
1687 3 12.6021 14.4495 33.8416
3687 1 8.99792 14.4119 33.8442
1161 3 16.1308 1.91971 28.595
3660 3 16.0821 0.0799797 26.6828
536 3 2.01973 3.66455 26.8636
540 2 0.240927 7.15137 28.3887
1162 1 0.275553 5.42737 26.701
1664 3 2.0429 7.2716 26.7933
2661 1 0.25886 3.66407 28.5624
3160 2 1.87778 5.44638 28.5068
537 3 3.69671 3.72997 28.5222
543 3 7.28706 7.34443 28.4315
1163 2 5.36902 5.52284 28.5159
1661 3 5.4262 3.83921 26.7882
2162 1 3.61378 5.43261 26.7027
2668 3 3.66225 7.31465 28.5251
2667 3 5.38785 7.19617 26.7137
2663 2 7.23988 3.80603 28.4331
3161 1 7.21948 5.44077 26.8925
538 2 10.8146 3.64577 28.4766
99 1 10.8467 5.51391 26.563
2669 2 10.8012 7.07464 28.4603
2662 2 9.11912 3.78774 26.9208
3162 1 9.18109 5.5462 28.5837
3668 3 9.14634 7.2233 26.6478
545 1 12.5642 7.18799 26.8053
546 2 14.189 7.17341 28.5544
1165 1 14.2868 5.40151 26.7662
1164 2 12.4486 5.33603 28.5266
2664 2 14.428 3.68522 28.4608
3663 3 12.5665 3.59168 26.6359
853 3 17.8943 7.26608 28.4706
539 1 16.3253 3.6453 26.584
1185 2 9.06045 12.5104 31.9696
1670 1 16.1134 7.06137 26.756
122 2 10.8195 12.4541 33.7854
3163 1 16.1309 5.42696 28.5368
1166 2 2.0411 9.02649 28.5349
2165 1 0.124603 8.99151 26.8258
2666 1 0.0457706 10.7946 28.4781
2665 1 1.90728 10.7821 26.6845
541 2 3.65315 10.6971 28.6842
103 2 7.23909 8.89305 26.5536
2670 1 7.23169 10.746 28.5025
3165 1 5.50439 9.16145 28.5299
3164 3 3.72897 9.05803 26.8067
3666 3 5.60941 10.7597 26.806
542 3 8.8781 10.8491 26.7427
544 2 10.5648 10.868 28.504
1168 1 9.04103 9.03521 28.5047
1167 3 10.8259 9.01662 26.7719
1668 3 12.621 10.7463 26.6544
2168 3 14.433 9.04783 26.7162
2672 3 14.5014 10.773 28.4356
3166 3 12.5911 9.07435 28.5061
1169 3 16.0663 9.00132 28.287
2352 3 18.0355 9.02918 26.5839
2671 3 16.1381 10.7606 26.6499
2542 1 17.741 10.777 28.4154
562 1 10.7116 14.2811 32.1108
3168 1 1.97039 12.642 28.5359
3167 1 0.31436 12.5949 26.6095
3672 2 2.02288 14.2228 26.7885
548 3 5.52598 14.3128 26.7708
549 3 7.32502 14.4791 28.623
106 3 3.78249 12.4665 26.8143
1171 3 7.28258 12.6197 26.8548
1170 3 5.47603 12.5642 28.617
2673 1 3.77434 14.4367 28.5199
1673 2 8.91339 14.3732 26.7807
2171 3 10.7484 12.3929 26.6185
2674 2 10.7295 14.2913 28.4613
3169 1 8.95229 12.5694 28.5587
550 1 14.2265 14.4411 28.3257
1172 2 12.6048 12.5731 28.5097
2675 1 12.5522 14.2977 26.6425
3170 3 14.388 12.4044 26.6674
3183 2 5.46976 12.6473 32.0772
2687 2 7.34389 14.4323 32.0326
3171 2 16.1252 12.5552 28.5391
3675 2 16.1154 14.3796 26.6883
2185 1 7.32756 12.6168 33.6233
109 2 0.219633 16.0252 26.6242
1173 3 1.98226 15.9126 28.462
3782 3 1.95246 17.7824 26.6038
724 3 7.31651 17.9104 28.575
722 1 5.42472 17.8954 26.5822
1174 3 3.75573 16.0735 26.6294
2174 1 7.3599 16.1657 26.8133
1180 1 9.06443 5.34842 31.9791
3172 3 5.57236 16.2713 28.4716
1175 1 9.08923 16.2088 28.5212
1535 1 9.01532 17.8259 26.8386
2786 2 10.7345 17.789 28.4375
3173 2 10.8945 16.0317 26.7125
727 1 14.3432 17.7032 28.5955
112 2 14.3798 16.1774 26.66
2788 1 12.6071 17.9694 26.6577
3174 1 12.5969 16.2662 28.4378
1686 1 5.49166 14.3657 33.6971
359 1 17.7603 16.0297 26.7661
1176 2 16.0684 16.037 28.5006
117 3 10.8512 5.53218 33.8478
1657 2 2.01023 -0.0825042 30.2579
2158 3 0.132469 2.09296 30.27
95 1 3.80433 1.83802 30.3733
2160 1 7.28805 1.97385 30.2523
3658 3 5.45491 0.114784 30.2585
96 1 10.7126 2.10461 30.4021
558 1 10.715 7.21109 32.03
2161 3 14.2516 1.95205 30.342
3659 3 12.5917 0.168396 30.3779
3679 1 5.45357 3.6477 33.6799
121 2 3.66452 12.5654 33.7121
98 2 0.223987 5.49742 30.19
1665 2 1.83209 7.23566 30.2552
3661 2 1.90127 3.70681 30.2665
100 1 7.3132 5.4115 30.2635
1662 3 5.47025 3.807 30.2592
2163 1 3.69517 5.49018 30.2439
3667 2 5.59819 7.17776 30.2482
1667 2 9.03323 7.26204 30.2743
2164 2 10.7574 5.48675 30.3354
3662 2 9.10427 3.64166 30.1756
101 2 14.2553 5.50302 30.1963
1663 1 12.5404 3.88466 30.3739
3670 1 12.5015 7.19125 30.1655
348 3 17.8958 5.56572 30.1668
1671 2 16.1293 7.20531 30.1466
3664 1 16.0606 3.63252 30.1442
561 1 3.69055 14.5218 31.9707
3665 2 1.86388 10.9276 30.1283
102 3 3.76163 8.88094 30.3027
1666 2 5.39087 10.8325 30.3182
2167 1 7.28857 8.97784 30.2535
104 2 10.8824 8.95052 30.1625
3669 1 9.02938 10.7694 30.3482
1669 1 12.4223 10.8627 30.1504
2169 3 14.3131 9.11322 30.2876
3686 1 1.87654 14.3315 33.8033
3671 2 16.0878 10.7004 30.3238
2686 3 0.166572 14.3533 32.0878
1672 2 1.9595 14.3851 30.2427
107 1 7.30319 12.5701 30.2936
2170 2 3.72989 12.5432 30.3392
3673 3 5.48124 14.3541 30.2815
1674 2 9.00405 14.344 30.1992
2172 2 10.8105 12.5832 30.1939
108 2 14.3192 12.5296 30.2297
3674 1 12.5519 14.3187 30.3025
356 3 17.8464 12.3512 30.2196
1675 2 16.1281 14.1902 30.2302
1532 3 1.99789 17.7283 30.3033
2184 2 0.156198 12.6328 33.9419
110 2 3.87526 16.2525 30.2122
2175 1 7.31174 16.1376 30.3079
3178 2 5.34868 5.5786 32.0954
111 2 10.7601 16.0159 30.3455
1536 3 9.10905 17.8805 30.2468
2176 3 14.3426 16.0344 30.3409
2679 2 3.73494 3.72222 32.0275
1538 2 16.1799 17.7817 30.2607
1184 1 1.88277 12.5708 31.9502
113 3 0.207155 2.09272 33.8063
2683 1 7.18605 7.12376 32.0626
3175 3 1.85817 2.12003 31.9581
2180 1 7.29546 5.52795 33.7708
1682 1 5.5474 7.37238 33.821
114 2 7.38819 1.83035 33.7249
1177 2 5.53099 1.84217 31.8693
116 2 3.85261 5.47909 33.8773
2177 1 3.78741 1.98958 33.7207
2677 1 7.22393 0.173168 31.9827
557 3 3.76786 7.17648 31.9446
2178 1 10.9288 1.88061 33.8286
3176 1 9.08204 1.90552 32.067
554 2 7.20935 3.6884 31.9607
115 2 14.314 2.08198 33.8327
1178 3 12.5098 1.93773 32.0432
3681 1 1.96169 7.15858 33.7948
2681 2 0.00375002 7.13795 32.0895
363 2 17.8601 1.94044 33.7102
3182 1 16.0344 8.98173 32.0235
3177 2 16.0892 1.97874 32.0777
2179 3 -0.0347235 5.44442 33.7196
553 1 0.121923 3.8803 31.9874
1179 2 2.07934 5.52285 32.0321
1678 1 2.08306 3.72542 33.7389
2641 1 10.6244 10.5638 17.9112
1066 2 9.00962 1.72387 35.4567
1138 1 5.46148 8.97673 18.0006
516 2 7.22281 10.6823 17.7502
825 2 17.8452 10.8538 17.7967
577 2 7.19943 7.29808 35.5167
570 3 10.5969 3.67096 35.682
3070 3 9.07931 5.5309 35.6216
2573 1 14.3285 3.90566 35.658
3072 2 16.0764 5.38994 35.5555
3139 1 16.073 9.07655 17.8217
3147 2 8.89095 16.139 17.8776
2574 3 0.250391 10.789 35.4956
575 2 3.69826 10.8452 35.4358
2579 1 7.21976 10.7792 35.5682
3074 3 5.43818 9.03933 35.6573
1076 3 9.05317 8.98433 35.5261
2825 3 17.8113 10.7166 35.5331
585 2 7.07549 14.3687 35.5495
2586 3 10.8265 14.2535 35.4599
3127 1 9.07771 2.06404 17.8077
3080 2 8.84474 12.644 35.4944
1082 2 12.5613 12.5969 35.5689
1130 1 12.6166 1.78266 17.8732