ITEM: TIMESTEP
5000
ITEM: NUMBER OF ATOMS
4000
ITEM: BOX BOUNDS pp pp pp
4.5402145661032733e-02 3.5745357854339048e+01
4.5402145661032733e-02 3.5745357854339048e+01
4.5402145661032733e-02 3.5745357854339048e+01
ITEM: ATOMS id type x y z
563 1 0.414765 -0.0448264 -0.0307478
1064 3 1.69039 2.12304 0.124301
1563 2 2.09643 -0.116979 1.78802
2064 3 0.111336 1.84292 1.65012
1 2 3.60342 1.79752 1.86144
565 3 7.22957 0.258043 0.313717
2065 3 7.01688 1.77183 1.9756
2565 1 3.57538 0.178193 0.201524
3064 2 5.34034 1.88532 0.0444989
3564 1 5.37387 -0.0289119 1.81845
2 1 10.5916 1.88317 1.87493
1066 2 9.2179 1.67698 0.0642448
1564 2 8.88825 0.10924 1.76778
2567 2 10.6793 0.0684013 -0.0645296
567 3 14.3301 -0.0334715 -0.0175331
2066 3 14.328 1.60387 1.8318
3066 3 12.5494 1.75117 0.0320567
3565 1 12.4518 0.0871628 1.75756
1068 1 15.999 1.82124 -0.0944039
1565 1 16.1457 0.0455405 1.5895
3 2 -0.226332 5.62216 1.72719
573 1 0.0340587 7.21031 -0.215763
1568 3 1.87937 7.2446 1.61771
2569 2 0.0243131 3.70724 0.141621
3068 2 1.75935 5.51863 -0.0442464
3566 1 1.89005 3.88019 1.64929
4 1 7.06052 5.31375 1.61191
575 3 7.15423 7.34327 0.202205
569 2 3.69129 3.48211 0.0302956
1070 2 5.38562 5.15755 0.217372
1566 1 5.39423 3.59312 1.9107
2067 1 3.62498 5.47899 1.89275
2575 1 3.72944 7.05548 -0.0552731
2571 2 7.50072 3.30463 -0.0232048
3569 1 5.39061 7.07246 2.00327
571 2 10.9337 3.6956 0.00269797
1569 3 8.88921 7.10254 1.82657
2068 3 10.9593 5.44117 2.07162
2577 1 10.6522 7.1258 0.185069
3070 2 9.23509 5.38611 -0.0861322
3567 3 8.86602 3.50268 1.78199
5 2 14.2583 5.43404 1.91947
577 3 14.4681 7.20281 0.105016
1072 1 12.5493 5.57279 0.152377
1567 1 12.6087 3.60031 1.78114
2573 3 14.1293 3.52528 -0.132584
3570 2 12.8192 7.27707 2.08391
1570 1 16.0498 6.99222 1.71586
3072 3 16.0353 5.29457 -0.159516
3568 1 15.9413 3.68342 1.58971
1074 3 2.04163 9.01444 0.00581376
2069 2 -0.0440513 8.72771 1.8476
2579 2 0.182959 10.7422 0.108278
3571 2 1.91129 10.6159 1.90712
6 1 3.66075 8.95379 1.96891
579 2 3.58092 10.9493 0.0623299
1571 1 5.25028 10.8877 2.22339
2070 1 7.01516 8.94979 2.14505
2581 3 7.03733 10.847 0.230405
3074 1 5.64267 9.07349 0.369775
7 1 10.8948 8.86629 2.03544
581 1 10.7381 10.8916 -0.00902984
1076 3 8.91087 8.77462 0.291977
3572 2 9.03765 10.7041 1.90733
1572 1 12.4925 10.928 1.81747
2071 2 14.47 8.86898 1.84383
2583 1 14.3658 10.7121 -0.0303282
3076 3 12.4607 8.69205 0.0875569
1078 2 16.1469 8.90237 -0.118963
3573 3 16.1573 10.6745 1.74569
8 1 0.244842 12.4552 1.73305
583 2 0.243858 14.3546 0.212936
1573 1 1.58903 14.3927 2.11421
3078 1 1.76522 12.3435 0.0315254
9 3 7.10864 12.6054 1.80056
585 3 7.26553 14.3845 0.0931927
1080 1 5.44788 12.7451 0.208642
2072 3 3.4935 12.5668 1.8931
2585 1 3.71044 13.9719 -0.0671127
3574 3 5.38077 14.3622 1.73786
1574 2 8.97889 14.4755 2.22287
2073 2 10.7323 12.6656 1.88647
2587 1 10.8229 14.3997 0.120198
3080 3 8.9986 12.6411 0.149226
10 3 14.3206 12.455 1.85168
587 1 14.4605 14.3239 -0.0900641
1082 2 12.5272 12.6693 0.273365
3575 2 12.5379 14.3379 1.93125
1575 3 16.2115 14.4616 1.77185
3082 1 16.0221 12.3639 0.0129168
1084 1 2.00062 16.1078 -0.0976718
2074 1 0.113461 16.3585 1.91357
11 3 3.68352 16.1946 1.78804
2075 1 7.23715 16.3257 1.85749
3084 3 5.50233 15.9858 -0.0310585
12 2 10.6527 16.1871 2.09363
1086 3 8.8562 16.1545 -0.0722013
2076 3 14.4695 16.0581 1.82988
3086 2 12.5137 15.9706 -0.0175506
1088 2 16.0959 16.1756 0.0296909
13 1 -0.100965 1.84682 5.36727
588 3 0.0445894 0.0227632 7.312
1089 3 1.69755 1.95372 7.15208
2564 1 0.0962664 0.0597954 3.60492
3063 3 1.84629 2.00001 3.57574
3576 1 1.77523 -0.0528505 5.3672
14 3 7.19402 1.88227 5.61196
564 2 3.50903 0.199994 3.64275
1065 3 5.35408 1.74027 3.89056
1577 1 3.49837 -0.122073 7.12036
1576 3 5.22127 0.0239871 5.36625
2078 3 5.4896 1.86059 7.26048
2077 1 3.65168 2.00127 5.52767
2589 1 7.28707 -0.0903536 7.28102
2566 1 7.33324 0.17109 3.83808
566 3 10.783 0.160073 3.52381
2079 2 11.0135 1.81061 5.14459
3088 3 9.0579 1.8303 7.30229
3065 2 8.94783 1.71234 3.63798
3578 1 10.7258 -0.0348298 7.35875
3577 2 8.97788 -0.136415 5.39984
15 1 12.8607 1.83672 7.2421
16 2 14.3194 1.95329 5.45698
589 1 14.49 -0.0333161 7.47751
1067 2 12.6046 1.86947 3.60283
1578 2 12.5519 -0.0946742 5.54883
2568 1 14.1632 0.195796 3.93272
1090 2 16.1612 1.67181 7.33604
3067 3 16.1612 1.67513 3.55494
3579 2 15.7967 0.00518324 5.4972
568 2 0.0982053 3.69085 3.18278
1069 2 1.59849 5.52886 3.60733
1580 1 -0.144851 3.64398 7.03801
1579 1 1.68668 3.60721 5.16049
2081 3 1.7057 5.3726 7.14866
2080 2 0.0773829 5.56221 5.18698
2591 1 0.108153 7.23941 7.28211
2574 3 -0.28885 7.22919 3.52366
3583 1 1.83216 6.95659 5.52995
17 1 3.60941 5.35315 5.32719
591 1 7.28592 7.12456 7.07016
574 2 3.43304 7.04805 3.52256
570 3 7.20747 3.55547 3.54126
1584 2 5.34079 7.15319 5.48232
2082 3 7.32436 5.25703 5.40067
2590 3 3.50699 3.78136 6.91132
2576 3 7.33785 7.20236 3.67409
2570 3 3.71974 3.64909 3.6545
3089 2 5.08902 5.33028 7.10385
3069 3 5.56191 5.19949 3.76117
3584 1 3.53943 7.26057 7.27421
3581 1 7.23114 3.72987 7.32188
3580 1 5.5704 3.76447 5.65853
18 3 9.06259 5.20596 6.96939
19 2 10.8237 5.4591 5.30529
590 2 10.6612 3.46281 7.19265
576 1 10.6766 7.19321 3.66008
1071 3 8.95317 5.29372 3.50736
1586 1 10.7521 7.14684 7.2649
1581 2 9.03937 3.48021 5.31864
2572 3 10.5756 3.63428 3.49787
3585 3 8.87055 7.26016 5.38686
572 1 14.3711 3.60325 3.62792
1091 1 12.4784 5.19247 7.12911
1585 2 12.6493 7.00825 5.50849
1583 3 14.5099 3.70615 7.46041
2083 2 14.3987 5.16911 5.53474
2592 2 14.616 7.20819 7.36063
2578 1 14.4892 7.09608 3.8719
3071 1 12.842 5.21167 3.8555
3582 2 12.4952 3.55878 5.59477
1073 3 16.1471 5.35394 3.79873
1582 1 16.0388 3.44699 5.77032
2084 3 16.102 5.43888 7.1464
3586 3 16.2916 7.12205 5.45542
20 3 0.0186398 8.93298 5.47737
578 3 0.0630149 10.7503 3.53388
1587 3 1.92691 10.8528 5.34668
3090 2 1.48676 9.10005 7.37461
3073 1 1.78705 8.74897 3.67715
3587 1 -0.120874 11.1498 7.23578
21 3 5.4231 9.05313 7.13049
22 3 7.38626 8.78828 5.32745
592 1 3.51084 10.8825 7.44907
580 3 7.25556 10.9653 3.52762
1075 1 5.2979 9.06821 3.90386
1589 3 7.34636 10.7357 7.36327
2085 3 3.61604 8.8771 5.47516
2580 1 3.37083 10.6958 3.92742
3588 1 5.58664 10.7298 5.40173
1092 1 9.0351 8.97481 7.12641
1588 2 8.99156 10.7153 5.33227
2086 1 10.7187 9.22581 5.07077
2593 3 10.5788 10.8385 7.14502
2582 3 10.789 10.8714 3.5771
3075 1 9.03133 9.03538 3.4922
23 1 14.4946 8.87167 5.36311
582 3 14.1075 10.8503 3.80426
1077 3 12.7073 9.01842 3.74624
2087 1 12.7525 8.75118 7.19568
3590 3 14.6962 10.7805 7.13231
3589 1 12.4806 10.7572 5.49105
1590 2 16.2107 10.8465 5.28874
3091 3 16.2334 9.12303 7.2578
3077 1 16.1164 8.87484 3.56521
24 2 1.89089 12.7147 7.07175
593 1 -0.155795 14.3629 7.22209
1079 3 1.77849 12.4955 3.58581
2088 2 0.0295846 12.5732 5.41088
2584 1 -0.109682 14.4287 3.64432
3591 1 1.77549 14.4014 5.37627
25 2 3.55214 12.5606 5.66058
584 3 3.51206 14.3234 3.47744
1093 1 5.43428 12.5465 7.2559
1592 3 3.7541 14.2015 7.1212
1591 3 5.4674 14.3739 5.48417
2089 1 7.32521 12.6116 5.44182
2594 2 7.03399 14.3673 7.24641
2586 1 7.30516 14.3999 3.82345
3079 1 5.19794 12.5962 3.37671
26 3 10.8434 12.547 5.44539
586 2 10.739 14.3984 3.73901
1081 3 9.06742 12.6074 3.84366
2090 1 8.9422 12.3441 7.11826
3593 3 11.0619 14.2767 6.90313
3592 2 9.02101 14.4094 5.58671
594 2 14.3331 14.2935 7.24459
1593 2 12.7693 14.5203 5.23948
2091 3 14.3135 12.5329 5.402
2588 3 14.4759 14.3733 3.87142
3092 2 12.6984 12.503 7.2425
3081 1 12.5761 12.7304 3.56877
27 2 16.3688 12.5335 7.16857
1083 3 16.1454 12.5314 3.7182
3594 1 16.2357 14.2286 5.46978
28 2 0.0418737 15.9722 5.50917
1094 3 1.65327 15.9735 7.44401
3083 1 1.97558 16.5408 3.71058
29 1 7.4326 15.9776 5.54801
1085 3 5.46695 15.7778 3.62809
2093 2 5.59023 16.1212 7.28519
2092 3 3.68319 15.9281 5.44048
2094 1 10.7771 16.1793 5.42058
3093 1 9.01245 16.0841 7.10865
3085 1 9.02874 16.1509 3.69968
30 1 12.663 16.0841 7.21578
31 3 14.5218 15.9594 5.649
1087 1 12.8867 16.1316 3.59713
1095 2 16.4189 16.3047 7.18021
3087 1 16.1743 16.0916 3.61592
1594 3 1.76939 0.0997129 8.76009
2095 1 0.12344 1.69923 8.99677
2595 1 -0.138458 0.116386 10.8499
3094 2 1.69733 1.72812 10.6937
33 3 7.23282 1.8746 9.04984
595 2 3.40187 0.154839 10.5765
1096 2 5.24266 1.95807 10.7171
2597 2 7.07778 0.173111 10.8318
2596 2 5.2788 0.0219811 8.99203
3095 1 3.66632 1.92405 8.83855
597 3 10.9815 0.170857 10.8681
1097 2 10.6971 1.79858 9.06296
3096 2 8.90584 1.72647 10.8525
3596 3 8.83223 -0.0301529 9.21461
596 2 12.6873 0.015212 9.03782
1098 1 12.5318 1.92819 10.6687
2098 2 14.3985 1.67193 9.00948
2598 1 14.7637 0.0690935 10.819
1597 2 16.3095 0.142623 9.08974
3097 1 16.3095 1.98352 10.7948
598 2 -0.0854698 3.45215 10.6759
1099 2 1.87946 5.28877 10.7813
2603 2 0.0304199 6.99663 10.8158
2599 1 1.69854 3.58877 8.94065
3098 2 -0.087699 5.31483 8.93459
3602 2 1.57555 7.36114 9.09023
36 1 3.44405 5.33976 8.87977
603 3 3.666 7.21156 10.5204
602 3 5.51765 7.00347 9.02573
600 1 7.16725 3.64224 10.6852
1100 2 7.18711 5.30814 8.88775
2604 2 7.21629 7.26935 10.7965
2600 1 3.49136 3.67981 10.7883
3099 3 5.18616 5.20771 10.5513
3599 1 5.38499 3.61267 8.88217
604 1 10.7313 7.4511 10.6463
599 2 8.8611 3.50613 9.13961
1101 3 9.07016 5.45058 10.7701
1603 1 8.79545 7.18721 8.8501
2101 2 10.8661 5.37169 9.04518
2601 3 10.8727 3.61474 10.7285
601 3 14.4096 3.5378 10.9022
1600 3 12.6424 3.37753 8.97202
2606 2 14.4406 7.35451 10.6002
2605 2 12.5685 7.31707 8.96153
3101 3 14.2598 5.38251 9.06833
3100 1 12.455 5.39962 10.6705
1102 2 16.4027 5.55544 10.7413
2602 1 16.1853 3.5942 9.23288
3605 1 16.0945 7.27164 8.97244
39 3 -0.12056 8.91873 9.00697
606 2 0.166978 10.7908 10.683
605 1 1.86879 11.1266 8.93989
3102 3 1.6726 9.17331 10.3127
607 3 7.11197 10.7537 10.7349
1104 1 5.31289 8.97966 10.8157
1103 1 3.73468 8.91744 9.03325
1606 2 5.28045 10.812 8.93968
2104 2 7.0575 8.82134 8.98765
2607 1 3.58942 10.7093 10.5247
2609 3 10.9507 10.7659 10.7385
2608 3 9.18094 10.8157 8.94593
3104 2 10.766 8.78271 8.70423
3103 1 8.82638 9.16305 10.75
42 1 14.3282 9.08189 8.87122
609 3 14.4043 10.75 10.744
1105 2 12.302 8.91087 10.7714
3608 1 12.3895 10.6677 8.93033
608 3 16.0856 10.8689 8.99641
3105 2 16.266 8.93857 10.8488
1107 2 1.85143 12.6703 10.6114
1106 3 -0.0511773 12.7582 9.12095
1609 1 1.83937 14.2448 8.89067
2610 1 0.0616323 14.2125 10.9346
610 3 3.62169 14.2427 10.5734
2107 3 3.84452 12.5984 8.97015
2612 3 7.28157 14.1718 10.7968
2611 2 5.41362 14.3988 9.1834
3107 2 7.21594 12.5596 9.01105
3106 1 5.50177 12.4484 10.9374
45 3 10.9472 12.4713 8.87913
612 3 10.7391 14.2157 10.5874
1108 1 8.99568 12.5967 10.8553
3611 3 8.93115 14.2557 8.91483
611 1 12.5071 14.2729 8.82718
1109 1 14.5282 12.5979 8.95628
2613 3 14.3634 14.2941 10.6817
3108 3 12.7517 12.6209 10.7846
1110 2 16.2024 12.6038 10.8957
1612 2 16.2655 14.3689 9.1011
2110 2 0.00774752 16.2372 9.04783
3109 1 1.88359 16.0778 10.9048
48 1 7.13357 16.321 9.01183
1111 3 5.22102 15.9982 10.6868
3110 3 3.59997 16.1651 8.75949
1112 1 10.8057 15.8218 8.91163
3111 2 9.0023 15.9254 10.9045
1113 1 12.5377 16.0944 10.4048
2113 1 14.519 16.0306 8.86188
3112 1 16.0673 16.1888 11.0701
32 2 0.0720099 1.46651 12.35
613 1 -0.00858206 0.0512582 14.4604
1114 2 1.74528 1.73041 14.1908
3595 3 1.84408 0.0210859 12.443
34 3 7.20367 1.80138 12.5699
614 1 7.02342 0.123843 14.3222
1595 1 5.1465 0.0250128 12.3009
2096 1 3.48837 1.96744 12.5002
2614 1 3.51641 0.00472721 14.4853
3113 3 5.39835 1.67563 14.2008
1115 1 8.89071 2.085 14.1355
2097 3 10.7925 1.80339 12.5586
2615 2 10.7109 -0.0371395 14.3166
3597 2 8.87969 -0.00483941 12.6067
35 2 14.4644 1.72239 12.6048
615 1 14.301 0.120366 14.2454
1596 3 12.7664 0.117111 12.4869
3114 1 12.4499 1.88641 14.4404
1116 3 15.9641 1.96217 14.1992
3598 3 16.131 0.185127 12.6511
618 3 0.165447 6.99538 14.1667
1598 3 1.87861 3.60804 12.6849
2099 3 -0.0860952 5.234 12.3187
2616 3 0.121503 3.57491 14.1744
3115 3 1.77164 5.38517 14.3387
3603 2 1.7317 7.32625 12.0932
37 1 3.5817 5.62673 12.4768
619 3 7.03663 7.23604 14.4959
616 1 3.42328 3.31512 14.3487
1117 1 5.58042 5.42214 14.4517
1602 3 5.33031 7.0499 12.8154
2100 1 7.19556 5.48731 12.4564
2619 3 3.35639 7.17271 13.9979
2617 1 7.18172 3.60638 14.3034
3600 1 5.34437 3.46382 12.6607
38 2 10.9727 5.41486 12.4987
617 2 10.8597 3.73808 14.4189
1599 3 8.90469 3.68614 12.4103
2620 2 10.8607 6.64953 14.3817
3116 1 8.98776 5.39222 14.1519
3604 2 8.90885 7.18502 12.5693
620 1 14.534 7.28187 14.2837
1118 3 12.664 5.32363 14.2182
1604 3 12.6002 7.19804 12.4034
2102 1 14.6996 5.63963 12.3583
2618 1 14.3921 3.59861 14.1248
3601 3 12.6675 3.69402 12.3698
1601 3 16.1947 3.6445 12.5394
3117 3 16.2789 5.31967 14.2746
3606 1 16.0832 7.26 12.5005
40 2 -0.103481 8.95431 12.0977
1119 3 1.403 8.8867 14.0646
1605 3 1.79591 10.7274 12.2467
2621 1 -0.0516958 10.7004 14.4203
41 2 7.2636 8.89581 12.5614
621 3 3.62984 10.552 14.2119
2103 1 3.34171 8.91397 12.3438
2622 2 7.1338 10.7402 14.3269
3118 3 5.32375 8.96691 14.207
3607 1 5.43615 10.9171 12.7104
622 3 10.5049 10.7142 14.3876
1120 1 8.92469 8.99707 14.2646
1607 2 8.92727 10.6182 12.6392
2105 3 10.8163 8.71793 12.6904
43 2 14.3553 8.88745 12.4846
2623 1 14.0349 11.1277 14.1909
3119 3 12.7353 9.0459 14.371
3609 1 12.5021 10.6376 12.446
1121 1 15.8659 9.14075 14.2984
1608 3 16.0205 10.7523 12.8394
623 2 0.179695 14.3528 14.2457
2106 2 0.0394269 12.5159 12.4489
3120 1 1.81815 12.3536 14.0865
3610 1 1.82599 14.402 12.3384
44 2 3.46964 12.498 12.2285
624 1 7.2789 14.2987 14.5076
1122 3 5.40102 12.5577 14.2707
1610 3 5.29338 14.2826 12.4786
2108 1 7.3923 12.3491 12.6276
2624 2 3.63595 13.9171 14.1266
46 1 10.7442 12.5522 12.4646
2625 2 10.6409 14.5086 14.4051
3121 1 9.11413 12.5457 14.6191
3612 1 8.96525 14.2466 12.604
625 1 14.1814 14.1719 14.0347
1123 1 12.4198 12.559 14.5265
1611 3 12.4655 14.2278 12.4946
2109 2 14.3419 12.6123 12.4816
3122 2 16.3973 12.5717 14.3897
3613 2 16.1292 14.1219 12.4366
47 2 -0.171338 16.242 12.6367
1124 3 1.92957 15.9875 14.1193
49 3 7.07977 15.9088 12.6547
2111 1 3.8311 16.2884 12.4476
3123 2 5.36418 15.9381 14.2333
1125 1 8.9262 16.2386 14.4058
2112 2 10.8016 16.1786 12.5334
50 1 14.4633 16.0492 12.3971
3124 2 12.6863 15.8807 14.1751
1126 2 16.1837 16.1276 14.2377
1613 2 1.92564 -0.05481 16.2568
2114 1 0.0223473 2.07722 15.9015
51 3 3.51596 1.78356 16.073
2115 1 6.99729 1.98368 15.9929
3614 1 5.16717 0.0153827 16.0836
52 3 10.8179 1.82951 16.0604
1614 3 9.00937 0.144841 16.3081
2116 2 14.2976 1.89674 16.1554
3615 3 12.4959 0.115627 15.9463
1615 3 16.3151 0.274654 16.1105
53 1 0.0882314 5.42022 16.1405
1618 1 1.91447 7.24316 15.8229
3616 3 1.81123 3.58772 16.0643
54 3 7.14284 5.45185 16.1491
1616 2 4.88882 3.43352 16.2418
2117 3 3.56366 5.32723 16.0584
3619 1 5.30021 7.21453 16.165
1619 1 9.06105 7.24134 15.887
2118 2 10.9287 5.61803 16.3139
3617 3 9.14007 3.8747 15.8724
55 2 14.4134 5.54414 16.0469
1617 1 12.6994 3.6335 16.0137
3620 1 12.5852 7.03484 15.9517
1620 2 16.1724 7.11433 16.2061
3618 2 16.2649 3.35505 16.1046
2119 2 0.0267958 8.97041 16.0254
3621 1 1.69314 10.5283 15.841
56 3 3.70621 9.02453 16.1076
1621 3 5.3827 10.6213 16.1985
2120 2 7.05183 8.94335 16.0819
57 2 10.8816 8.46664 15.8522
3622 1 8.81911 10.6217 16.1902
1622 3 12.5026 10.8553 16.2827
2121 1 14.3164 8.77255 16.0644
3623 1 16.1373 10.9103 16.0732
58 3 0.0901023 12.5158 16.167
1623 2 1.89884 14.3327 15.9683
59 1 7.11902 12.4976 16.0676
2122 3 3.46639 12.3171 16.1868
3624 3 5.54302 14.3988 16.2281
1624 1 8.96323 14.4317 16.1314
2123 1 10.7764 12.3867 16.1455
60 1 14.3809 12.6499 16.2033
3625 2 12.6852 14.4074 16.0174
1625 3 16.1668 14.2979 16.1287
2124 2 0.000920503 15.9964 16.0083
61 1 3.62424 15.8482 16.02
2125 3 7.26527 16.014 16.0823
62 2 10.7911 15.9444 16.2394
2126 2 14.4471 15.9052 15.97
63 2 -0.0888208 1.97495 19.8278
2626 3 0.00914404 -0.0288245 18.0754
3125 1 1.53536 1.78405 17.9428
3626 2 1.76766 -0.0689043 19.7809
502 2 3.5903 0.215996 18.0843
64 2 7.21947 1.94179 19.4394
1128 3 5.35742 1.80915 18.0111
1626 3 5.32264 -0.00705257 19.8266
2127 3 3.56954 1.7876 19.8294
2628 1 7.23233 -0.0988665 17.924
504 1 10.8495 0.0678413 17.8835
2128 1 10.6227 1.73082 19.4408
3127 2 9.10275 1.98845 17.8713
3627 2 8.97592 0.215599 19.7159
65 3 14.1323 1.72103 19.8852
1130 2 12.5511 1.94703 17.7362
1627 3 12.4503 0.0238713 19.6782
2630 1 14.314 0.0904268 17.7582
3129 1 16.0358 1.80521 18.0219
3628 2 16.1121 0.14745 19.4727
506 3 -0.0139032 3.76671 17.7566
1132 1 1.99408 5.26951 17.968
1628 3 1.7128 3.58681 19.7335
2129 2 0.15823 5.40164 19.4581
2636 2 0.245723 7.09334 17.7583
3631 1 1.8753 7.14926 19.5955
508 1 7.24803 3.60058 17.8178
512 2 3.44171 7.08808 17.8906
66 3 3.58962 5.46068 19.8495
1631 1 5.16653 7.15697 19.6093
2130 2 7.24142 5.50646 19.3719
2638 2 7.08785 7.22196 17.9473
2632 1 3.64692 3.5613 18.1355
3131 1 5.48065 5.39379 17.8312
3629 3 5.42432 3.4781 19.6437
514 2 10.9949 7.21137 18.0867
67 1 10.8916 5.37657 19.5372
1134 1 9.10281 5.71465 18.1758
1629 3 8.79897 3.68122 19.6057
2634 3 10.7904 3.60204 17.8291
3632 2 8.94095 7.21945 19.7011
510 3 14.4838 3.6516 17.782
1632 1 12.6981 7.29143 19.823
2131 2 14.3091 5.29138 19.7443
2640 2 14.4259 7.31227 17.8682
3133 2 12.7278 5.28994 17.8503
3630 3 12.4503 3.64284 19.606
1136 1 16.034 5.57388 17.9548
1630 3 15.9311 3.60279 19.6849
3633 3 16.2124 7.34418 19.6896
516 3 -0.00277652 10.6861 17.8861
68 2 0.0570192 9.074 19.6365
1633 1 1.86786 10.8488 19.7031
3135 1 1.70143 8.8397 17.8928
518 3 6.99111 10.8108 17.9
69 1 6.97111 9.12786 19.7461
1138 1 5.28375 8.98918 17.9381
2132 1 3.4864 8.77266 19.916
2642 1 3.49569 10.6989 17.8317
3634 2 5.39899 10.7038 19.6814
1634 3 8.84918 10.7292 19.6721
2133 1 10.5471 9.01239 19.7735
2644 3 10.7645 10.6356 17.9236
3137 3 8.76646 8.93537 17.8299
520 1 14.5012 10.7873 18.051
70 3 14.4368 9.01313 19.6362
1140 2 12.5099 8.90011 17.7737
3635 3 12.4808 10.7402 19.7531
1635 3 15.9551 10.8171 19.7277
3139 3 16.1682 8.95211 17.7789
1142 1 2.00933 12.4181 17.9179
2134 2 -0.0366203 12.6246 19.7412
2646 2 -0.0440476 14.3786 17.847
3636 3 1.58814 14.1289 19.6345
522 1 3.48549 14.5225 18.0108
71 2 3.74662 12.5045 19.7218
1636 2 5.40534 14.4444 19.504
2135 2 7.20483 12.572 19.605
2648 2 7.15247 14.3687 17.9725
3141 1 5.11078 12.5866 17.8749
524 3 10.6206 14.2203 17.8925
72 3 10.607 12.3616 19.442
1144 3 8.88466 12.4242 17.6507
3637 1 8.94381 14.2601 19.6093
1637 1 12.3267 14.0956 19.8474
2136 3 14.1227 12.6589 19.7481
2650 1 14.3674 14.2168 17.983
3143 2 12.5355 12.4965 17.7462
1146 2 16.0904 12.5772 17.8816
3638 2 16.2595 14.2647 19.7094
73 1 -0.0507325 16.1299 19.7294
3145 2 1.88039 16.0183 17.932
74 3 7.24684 15.9611 19.6069
1148 1 5.42205 16.2505 17.8716
2137 2 3.81957 16.2577 19.6223
2138 2 10.7569 16.0726 19.6927
3147 1 8.81113 16.2413 17.9431
75 3 14.2443 15.951 19.9291
1150 1 12.4626 16.0516 17.8495
3149 3 15.923 15.8846 18.1514
501 2 0.0388353 -0.117419 21.55
1127 2 1.88932 1.87896 21.528
1638 2 1.69747 -0.0309038 23.2429
2139 1 0.0213884 1.68467 22.9927
2651 2 0.218625 -0.0685144 25.3276
3150 3 1.61849 1.78083 25.0781
503 1 7.17928 -0.137253 21.432
526 2 6.91162 -0.0279758 24.9201
77 3 5.37035 2.11184 25.0978
76 3 3.59373 1.98323 23.247
2140 2 7.17281 1.99325 23.257
2627 2 3.71811 0.101375 21.6076
3126 3 5.5708 1.85231 21.6668
3640 1 3.61382 0.0676735 25.0737
3639 1 5.23819 -0.043788 23.2753
78 1 10.6716 1.75122 23.4038
1152 3 8.79016 1.61795 24.9444
1129 3 8.82231 1.94925 21.3498
1640 3 10.6582 -0.0906722 25.138
1639 3 8.9398 0.141293 23.0913
2629 2 10.4932 0.114603 21.4688
505 1 14.4556 -0.0037451 21.352
2142 3 14.0814 1.74814 23.2889
2141 1 12.2224 1.71385 24.9985
2652 3 14.1757 -0.0182422 24.9833
3128 3 12.1832 1.84382 21.545
3641 3 12.5041 0.0738034 23.2482
1131 2 15.9873 2.11206 21.6917
1641 2 16.0495 0.197483 23.1112
3151 1 16.1727 1.82009 24.9755
511 1 0.0989794 7.14572 21.5078
528 1 -0.0549696 7.05731 25.0888
80 3 1.79052 5.47534 25.0474
79 1 -0.00678438 5.4681 23.3815
1645 2 1.77713 7.12348 23.3391
2631 3 -0.0156324 3.58328 21.5407
3130 2 1.54877 5.36007 21.5969
3643 1 0.183347 3.60725 25.1185
3642 2 1.58449 3.55489 23.6239
507 2 3.66775 3.55495 21.2408
513 3 7.17128 7.14141 21.2804
527 1 3.53623 3.5417 25.0412
81 1 7.25867 5.40525 23.3997
1153 2 5.35357 5.48353 24.9033
1133 1 5.58333 5.20638 21.4719
1646 1 3.59191 7.42515 25.0516
1643 1 7.29575 3.55295 25.2324
1642 1 5.45894 3.45142 23.219
2143 1 3.67593 5.39894 23.5004
2654 1 7.10906 7.08545 25.1977
2637 1 3.30248 7.06393 21.6731
2633 1 7.17083 3.49769 21.4287
3647 2 5.22385 7.09525 23.0908
509 3 10.6057 3.75064 21.4099
1647 3 8.95819 7.30628 23.282
2145 2 10.6493 5.481 23.3523
2144 2 8.98067 5.328 25.2062
2653 3 10.5375 3.45462 25.1438
2639 1 10.6432 7.16101 21.5259
3132 1 8.77068 5.38913 21.4668
3649 3 10.5346 7.35709 25.263
3644 1 9.06456 3.81178 23.4161
515 2 14.1918 6.97778 21.7555
529 3 14.3302 7.31014 25.3476
82 1 14.1147 5.21569 23.2739
1135 3 12.4623 5.25429 21.6301
1644 3 12.3866 3.44524 23.1046
2635 1 14.0398 3.46663 21.4462
3152 1 12.3397 5.51824 24.9803
3648 1 12.4084 7.31797 23.4422
3646 3 14.1686 3.64566 25.0159
83 1 16.0616 5.73495 24.9604
1648 1 15.953 7.13265 23.27
3134 3 16.0008 5.28788 21.5132
3645 3 15.7859 3.57456 23.3433
1154 2 1.81754 8.78834 24.944
1137 3 1.72399 8.89681 21.6129
1649 3 -0.0933049 10.7771 25.0464
2146 3 -0.162592 8.85187 23.3036
2641 2 0.127755 10.7765 21.0796
3650 1 1.60964 10.6936 23.0763
517 3 3.60194 10.8923 21.5084
84 2 3.65337 8.89115 23.1901
1650 1 5.50759 10.689 23.2826
2148 3 7.08602 8.77707 23.343
2147 2 5.2983 8.89713 24.7732
2655 3 3.51908 10.7239 25.1257
2643 3 7.28906 10.8345 21.2993
3136 1 5.36604 8.91968 21.4761
3652 2 7.20216 10.99 24.8625
519 1 10.8664 10.6287 21.1909
530 3 10.7078 10.6981 25.2001
85 2 10.6549 9.12637 22.8087
1139 2 8.81828 9.01578 21.4213
3153 3 8.65141 9.06636 25.1927
3651 1 8.9156 10.6647 23.1543
86 3 12.3557 9.03488 25.2028
1652 1 14.1746 10.8838 25.1654
1651 3 12.6233 10.7937 23.3727
2149 3 14.396 9.13507 23.3043
2645 3 14.2864 10.8523 21.6979
3138 2 12.5178 8.8125 21.3936
1155 2 15.9383 9.11413 25.1022
1141 1 16.0089 9.05922 21.2673
3653 2 16.206 10.8723 23.2631
521 2 0.037573 14.3513 21.6999
87 3 0.0768807 12.4137 23.1701
1653 3 1.91778 14.4196 23.2203
2150 3 1.72431 12.4062 25.084
2656 1 -0.0117438 14.4399 24.9938
3140 2 1.73007 12.6184 21.5047
523 3 7.16805 14.3501 21.3323
531 3 6.90491 14.0949 25.0618
88 3 7.2034 12.4625 23.0009
1143 2 5.35383 12.5782 21.3494
2151 3 3.50521 12.6363 23.0245
2647 2 3.5425 14.3435 21.4051
3154 2 5.2396 12.474 25.0699
3655 2 3.60256 13.9395 25.0905
3654 1 5.42547 14.3036 23.1226
89 1 8.84899 12.5444 24.8918
1655 2 10.7509 14.3817 25.0409
1654 2 8.94208 14.5823 23.354
2152 1 10.6101 12.3314 23.3217
2649 3 10.9086 14.3948 21.8222
3142 1 9.15117 12.5484 21.2505
525 3 14.1422 14.1995 21.5184
90 3 14.4225 12.7839 23.378
1156 3 12.4014 12.6423 25.1122
1145 3 12.3569 12.563 21.4631
2657 2 14.3044 14.4683 25.1973
3656 2 12.5082 14.4743 23.4248
1656 3 16.0881 14.3275 23.255
2153 1 15.9819 12.6806 25.1582
3144 1 15.9437 12.3983 21.3782
1147 3 1.69131 16.1216 21.3815
2154 2 -0.045646 16.2107 23.2425
3155 3 1.76012 16.0062 24.8835
92 3 5.37229 15.8987 24.9274
91 2 3.68687 15.9481 23.2235
2155 3 7.18103 16.031 23.4536
3146 3 5.60341 16.1556 21.4635
93 3 10.7727 16.2419 23.3526
1157 1 9.00822 15.9981 25.158
1149 1 8.75478 15.9684 21.5438
2157 1 14.2321 16.1378 23.2608
2156 2 12.4207 16.1835 25.0518
3148 1 12.5875 16.1451 21.5869
1151 1 16.0405 16.0291 21.404
3156 2 15.9865 16.2077 25.067
532 2 0.259971 0.0568503 28.7334
94 2 0.153489 1.66718 26.8715
1158 2 1.95637 2.13338 28.6504
3657 3 1.94515 0.0703542 27.0617
533 1 5.45606 0.152893 26.8015
534 2 7.10953 -0.083164 28.3334
1159 3 3.71046 1.99106 26.7848
2159 3 7.07947 1.83257 26.7903
2658 1 3.74645 0.193277 28.5152
3157 3 5.41033 1.89639 28.4508
1160 2 8.65717 1.95658 28.9241
1658 1 8.80184 -0.121483 26.8544
2660 2 10.5019 -0.0416124 28.6316
3158 3 10.3456 1.51609 27.0158
535 3 14.1436 0.112319 28.4545
97 3 14.2419 1.65224 26.8013
2659 3 12.2767 -0.045963 26.6963
3159 1 12.4315 1.96458 28.4428
1161 1 16.0272 1.97634 28.3302
3660 3 15.9853 0.03215 26.7707
536 2 1.96565 3.60239 26.7865
540 1 0.0282781 7.19951 28.9381
1162 2 -0.0364816 5.19991 26.7562
1664 3 1.64241 7.13464 26.9269
2661 1 0.0399511 3.57092 28.6424
3160 1 1.93494 5.28362 28.5392
537 3 3.86798 3.66409 28.6161
541 2 6.86437 7.32836 28.7375
1163 1 5.44423 5.50595 28.5733
1661 3 5.42111 3.68731 26.7993
2162 3 3.65349 5.49557 26.7196
2666 3 3.78708 7.21522 28.533
2665 2 5.50568 7.10254 26.8394
2663 1 7.309 3.69791 28.6386
3161 2 7.21486 5.53318 26.6253
538 3 10.4073 3.58118 28.4819
100 2 10.6809 5.37406 27.04
2667 2 10.7179 7.26796 28.556
2662 1 8.83295 3.68712 26.8884
3162 1 8.7126 5.47803 28.5331
3666 2 8.83642 7.32468 26.9562
542 2 12.4085 6.94189 26.6561
543 2 14.1176 7.30981 28.6385
1165 3 14.271 5.33277 26.8286
1164 1 12.4116 5.34799 28.5998
2664 3 14.2275 3.63779 28.5702
3663 2 12.4701 3.46547 26.6853
539 2 15.9634 3.53814 26.6569
1667 1 16.0916 7.3696 26.7153
3163 1 15.8779 5.48417 28.543
1166 2 1.77167 8.73387 28.8029
2165 3 -0.0220678 8.88975 26.9087
2669 3 0.0307924 10.6493 28.7682
2668 3 1.53208 10.6714 26.9373
544 2 3.4093 10.857 28.8391
103 2 7.03647 9.23679 26.9226
2670 2 7.16583 10.7274 28.6307
3165 1 5.34302 8.90823 28.8805
3164 1 3.73175 8.96078 26.996
3669 1 5.14362 10.6798 26.7426
545 1 8.99249 10.8898 26.7669
546 1 10.7336 10.6389 28.7746
1168 1 10.8352 8.91015 26.8875
1167 1 8.85669 9.09767 28.3589
1670 1 12.3972 10.8299 26.9748
2168 3 14.077 9.2952 26.9155
2672 2 14.2439 10.8026 28.6829
3166 3 12.4736 9.04222 28.5316
1169 1 15.9921 8.9063 28.4946
2671 1 16.0629 10.9929 26.6963
547 3 0.119509 14.2665 28.4832
3168 1 1.76713 12.4539 28.8208
3167 2 0.103571 12.6263 26.9341
3672 3 1.68679 14.2756 26.6414
548 1 5.40994 14.2139 27.0427
549 2 7.50963 14.2503 28.7158
106 2 3.39527 12.4016 26.8574
1171 1 6.96282 12.5426 26.9227
1170 1 5.3274 12.454 28.9094
2673 2 3.68941 14.1939 28.8326
1673 1 8.82315 14.1121 26.7754
2171 1 10.6855 12.6038 26.9871
2675 2 10.807 14.4231 28.624
3169 1 9.11631 12.4593 28.5675
550 2 14.053 14.3735 28.5752
1172 3 12.6258 12.5319 28.7774
2674 2 12.522 14.3969 26.7376
3170 2 14.0348 12.4914 26.8387
3171 3 16.2568 12.2906 28.738
3675 1 15.8878 14.2047 26.8906
109 2 -0.133613 16.2909 26.9414
1173 3 1.97037 16.1477 28.5498
1174 3 3.70283 15.8052 26.7168
2174 2 7.22881 15.8553 26.8679
3172 1 5.39757 16.0703 28.7597
1175 1 9.13594 15.9873 28.6213
3173 2 10.9796 16.2141 26.8752
112 3 14.182 16.1021 27.0568
3174 1 12.3517 16.348 28.8555
1176 3 16.1286 15.9482 28.6722
1657 2 2.03033 -0.0108432 30.438
2158 3 0.253176 2.00655 30.4624
95 2 3.47098 1.95966 30.4901
2160 3 7.18838 1.64331 30.7686
3658 1 5.35702 0.0662636 30.2948
96 1 10.9035 1.8289 30.3633
1659 1 8.77085 -0.0852184 30.4387
2161 1 14.1051 1.99827 30.6195
3659 2 12.5679 -0.0550613 30.4459
1660 1 16.0122 0.340375 30.1836
98 2 -0.00502501 5.34018 30.2335
1665 3 1.73702 7.18901 30.5176
3661 2 2.028 3.94169 30.5279
99 3 7.028 5.38324 30.3517
1662 2 5.60776 3.55442 30.3378
2163 2 3.75667 5.57001 30.4895
3665 3 5.4209 7.05349 30.5622
1666 3 8.91883 7.15182 30.6106
2164 1 10.7091 5.51472 30.3825
3662 1 8.91761 3.82361 30.3994
101 2 14.1344 5.5365 30.4948
1663 2 12.2454 3.5795 30.3852
3667 3 12.4532 7.16537 30.487
1668 1 15.8431 7.12814 30.2271
3664 1 16.2515 3.83206 30.2377
2166 2 0.166609 8.82752 30.7795
3668 2 1.60786 10.6827 30.5183
102 1 3.39054 8.87354 30.4083
1669 2 5.47652 10.5582 30.3032
2167 3 7.26021 8.96513 30.5642
104 2 10.7826 8.92976 30.4467
3670 1 8.83491 10.7444 30.5213
1671 2 12.4378 10.6048 30.3835
2169 2 14.1768 8.97778 30.5897
3671 1 16.0205 10.7671 30.4036
105 2 0.0983022 12.3904 30.4002
1672 2 1.74469 14.3054 30.4034
107 3 7.23791 12.4714 30.3527
2170 1 3.55161 12.3531 30.6152
3673 2 5.43453 14.1065 30.3733
1674 3 9.25995 14.2868 30.289
2172 1 10.8915 12.4963 30.4178
108 2 14.3623 12.3579 30.4177
3674 2 12.4044 14.3838 30.2249
1675 3 15.9766 14.035 30.242
2173 2 0.0704302 15.9722 30.5267
110 1 3.60215 15.9272 30.3026
2175 3 7.18626 16.0754 30.1587
111 2 10.6172 16.0706 30.452
2176 3 14.3181 16.0065 30.4893
113 1 0.0402705 1.77415 34.0253
2676 1 0.193122 0.198586 32.296
3175 1 1.87353 1.78408 32.398
3676 2 1.93215 -0.0813555 34.2002
551 2 3.70031 0.125176 32.0316
114 2 7.16877 1.73119 33.8559
1177 1 5.31701 1.77216 32.2733
1676 2 5.43933 0.123203 34.2846
2177 2 3.49238 1.78298 34.0723
2677 3 7.17263 -0.132374 32.2431
552 3 10.6923 0.0882301 32.1021
2178 3 10.7849 1.79009 33.9614
3176 1 8.86078 1.72961 32.1334
3677 3 8.87798 -0.0231079 34.1076
115 3 14.2375 1.82118 33.8218
1178 2 12.4232 2.06286 32.1069
1677 2 12.3668 0.201182 33.7588
2678 1 14.1846 0.144442 32.2193
3177 1 16.1778 1.84117 32.1897
3678 1 16.2858 0.134147 33.9713
553 1 0.0803778 3.72504 32.3659
1179 3 1.97645 5.22517 32.5284
1678 2 1.74031 3.39564 34.0621
2179 1 0.0608093 5.40181 34.13
2681 1 0.289751 6.77203 32.3534
3681 2 2.02436 7.33749 33.9545
554 3 7.37015 3.5232 32.2468
556 1 3.60366 7.50469 32.2964
116 1 3.7639 5.27658 33.9843
1681 3 5.51056 7.28922 34.0462
2180 1 7.21885 5.71087 34.238
2682 3 7.18491 7.19945 32.2648
2679 2 3.923 3.61766 32.2174
3178 3 5.64523 5.38316 32.1989
3679 3 5.49756 3.50568 33.9873
557 3 10.7766 7.36467 32.312
117 2 10.6408 5.45758 33.8989
1180 1 8.99159 5.34145 32.2688
1679 1 8.92217 3.54471 34.0317
2680 2 10.5989 3.70856 32.162
3682 3 8.99986 7.19645 33.9428
555 1 14.1747 3.73301 32.1027
1682 1 12.2788 6.9921 33.924
2181 2 14.1764 5.712 33.9502
2683 3 14.291 7.0654 32.126
3179 3 12.3317 5.39759 32.1339
3680 1 12.58 3.83209 33.9105
1181 3 16.0824 5.39182 32.1768
1680 3 16.1766 3.51483 33.9108
3683 2 16.3433 7.29679 33.9296
558 3 0.113457 10.6709 32.1979
118 1 0.00608735 9.00999 34.0114
1683 3 1.8538 10.7862 33.9466
3180 2 1.87877 9.02983 32.2632
559 2 7.30274 10.8202 32.1611
119 1 7.29769 9.16152 34.077
1182 1 5.57637 8.95159 32.1069
2182 1 3.83025 9.04908 34.0007
2684 1 3.5405 10.5667 31.9773
3684 3 5.51636 10.7962 33.9396
1684 3 9.01401 10.8994 34.1781
2183 3 10.7024 9.09604 34.0822
2685 1 10.7034 10.9117 32.2227
3181 3 8.95544 9.16562 32.236
560 1 14.2923 10.7105 32.1969