ITEM: TIMESTEP
5000
ITEM: NUMBER OF ATOMS
4000
ITEM: BOX BOUNDS pp pp pp
4.5950497963467285e-02 3.5688109502036482e+01
4.5950497963467285e-02 3.5688109502036482e+01
4.5950497963467285e-02 3.5688109502036482e+01
ITEM: ATOMS id type x y z
1 3 0.0613144 1.6982 1.93572
1563 1 0.132606 0.168556 0.214376
2064 2 1.86661 1.74513 0.0473353
3561 3 1.78185 0.107431 1.8252
564 3 3.77644 1.83034 1.83355
565 3 7.11653 1.70438 1.72689
1565 3 7.10778 -0.0256907 -0.00380155
2065 1 3.47599 0.097408 0.0282879
3061 1 5.54056 1.64942 -0.070652
3562 2 5.43168 -0.066526 1.94339
566 1 10.7896 2.07154 1.73062
1070 1 10.6135 0.0817859 0.158606
3063 1 8.9869 0.0181973 1.53216
3062 2 8.96023 1.86535 -0.166402
567 1 14.3616 1.82063 1.69239
2566 3 14.2573 -0.2233 0.094577
3064 3 12.609 1.6699 0.145254
3563 1 12.5457 0.0581349 1.74708
2 2 18.0127 0.162772 -0.117713
3 1 16.1886 0.044323 1.79413
3066 1 17.6078 1.5806 1.65561
3065 1 15.8032 1.73111 0.0390283
4 1 1.58116 5.53876 0.242059
5 1 2.04399 3.41756 1.75628
6 2 1.99603 7.13992 1.82658
1071 2 -0.0866744 5.30747 1.75007
3067 2 0.168565 3.56487 0.0946682
3565 3 -0.0885745 7.22413 -0.00719914
7 3 5.37498 5.41215 0.0835566
8 2 3.61035 7.13242 -0.135559
1072 1 7.42376 5.39709 1.57302
1075 2 5.46472 7.05666 1.66855
1074 3 3.76974 5.26987 1.74859
1567 2 7.42018 7.49982 0.0718578
2570 2 7.22517 3.56084 -0.151315
2569 1 3.57241 3.59585 -0.0681287
3569 3 5.51524 3.49616 1.60297
9 2 8.8154 5.43238 -0.19809
10 3 8.84463 3.61901 1.58098
1077 3 10.3109 7.29533 -0.0372733
1076 2 10.4519 5.48922 1.76164
1568 2 8.73269 7.16517 1.92168
3068 1 10.6087 3.72709 -0.243944
11 2 12.3884 5.56064 -0.17284
12 3 14.2333 3.65023 -0.100351
570 1 12.7153 3.62015 1.68007
1571 2 14.2007 7.28078 0.0850448
1570 2 14.1168 5.24997 1.55797
1569 2 12.3889 7.07211 1.9372
572 1 16.0649 3.6344 1.50613
1081 1 15.9406 7.0309 1.69728
1079 2 17.758 5.46988 1.72098
1078 2 16.0188 5.38202 -0.135222
1573 1 17.7208 3.41578 -0.120687
2070 3 17.5883 7.19308 -0.0512831
575 1 1.81929 10.6982 1.97379
1082 3 1.89137 9.00131 0.0692549
1574 3 0.0236079 8.91601 1.8154
3070 2 -0.0144627 10.9394 0.0156716
576 2 3.78818 10.8007 -0.0043094
1085 2 5.57344 9.02159 0.102246
1083 3 5.513 10.7581 1.69926
1577 1 7.33016 10.704 0.118288
1576 2 7.19801 9.07773 1.8604
1575 3 3.63036 8.93072 1.63281
14 3 10.7264 10.6021 0.0932753
1087 3 9.04602 11.0238 1.94965
1086 2 8.88536 9.08942 0.11406
2071 1 10.5123 9.04506 1.74489
580 1 12.4868 10.7296 1.6797
1088 2 14.3418 10.8749 0.0727583
2073 1 12.2483 8.70836 0.083036
2074 3 14.3071 8.88636 1.77505
15 3 17.835 8.92979 1.81505
1581 1 16.0887 10.5786 1.84417
2076 2 17.9171 10.6263 0.039134
2075 2 15.9034 8.98601 0.135773
2079 1 2.04838 12.4126 -0.15391
2078 2 1.92308 14.233 1.82879
2077 2 0.237397 12.4673 1.83889
2572 3 0.246663 14.2812 0.127806
2082 1 5.54723 14.3344 1.60067
2081 2 3.73288 12.431 1.65724
2080 1 5.48243 12.4874 0.0118766
2576 1 7.31178 14.317 -0.187256
2575 3 7.40742 12.5944 1.65066
3071 2 3.63222 14.1138 -0.0125616
1583 3 9.01543 14.2682 1.70373
2084 1 10.9426 14.3376 0.105447
2579 1 10.8402 12.6471 1.81908
3073 1 9.20517 12.5838 -0.0717885
2085 2 12.6099 14.2086 1.74975
2580 1 14.3602 12.5554 1.93976
3074 2 12.6018 12.5647 -0.146721
3574 3 14.4476 14.1046 0.13834
581 2 17.8589 12.5455 1.78669
1089 1 17.9433 14.3188 -0.146538
2583 3 16.0938 14.4625 1.57816
3075 2 16.0253 12.4273 0.233905
16 1 -0.140149 17.7254 0.147371
2086 1 2.06489 18.0007 2.01148
2584 1 0.312563 15.961 2.10898
3076 2 1.87146 16.1475 0.157804
17 2 5.34404 16.0239 0.0433478
1090 2 3.62437 18.0163 0.0662762
2585 1 7.28347 17.8755 -0.120813
3079 1 5.23415 17.8842 1.55587
3078 2 7.11753 16.1047 1.56023
3077 1 3.53407 15.9248 1.72554
18 2 9.07307 16.2881 -0.0229407
1585 1 10.7397 17.8102 -0.105362
3080 3 10.8306 16.186 1.67495
3578 2 8.76883 18.0068 1.84009
19 3 12.5408 16.1548 -0.165441
2088 1 14.2998 18.1359 0.0974635
3081 3 14.2701 16.1157 1.83549
3581 3 12.4374 17.915 1.89549
20 1 15.9355 16.1432 -0.12342
1586 1 17.8493 16.0647 1.72441
3083 1 16.0449 17.8874 1.85899
3082 1 17.8406 17.9488 0.159017
584 3 1.99341 1.73148 7.13623
1564 2 0.0440327 -0.119429 3.64695
2588 3 2.01423 -0.0933092 5.37644
2563 3 2.01446 1.6174 3.57904
3084 2 0.302486 0.0261043 7.18796
3583 1 0.220243 1.66806 5.40431
22 1 5.6523 1.64298 7.14996
1069 2 3.66632 -0.0188061 3.62884
1566 1 7.26245 -0.157731 3.53617
2089 2 5.46474 0.138731 5.54924
2590 3 3.7586 -0.123895 7.33179
2564 1 5.29698 1.68311 3.66409
3085 1 7.41549 -0.0277836 7.0296
3585 1 3.79926 1.79202 5.67344
3584 1 7.03315 1.84416 5.27688
586 1 8.90108 1.90697 7.13019
2066 3 10.8343 -0.00203841 3.71099
2593 2 8.84037 0.0652136 5.48988
2565 3 9.03608 1.65217 3.40654
3086 3 10.6441 0.0590878 7.11879
3586 3 10.5788 1.80743 5.30855
23 1 12.2868 1.91647 7.07866
24 2 14.5035 0.0646532 7.14857
25 3 14.2038 1.83427 5.38663
2568 1 14.0238 0.0392308 3.74291
2567 1 12.6109 1.86565 3.53772
3087 2 12.6634 0.0110849 5.69841
568 1 17.8332 0.197141 3.79558
588 1 16.1258 1.94754 7.25656
1587 2 17.7487 0.146523 7.24627
3088 1 15.8383 -0.0865357 5.36873
3588 2 17.6854 1.83917 5.38106
3564 3 16.0542 1.86611 3.8495
27 2 1.86496 5.35906 7.1454
28 1 1.89007 7.03113 5.63819
589 2 0.246066 5.19764 5.38034
2067 3 0.0325124 3.59134 3.60198
3090 1 1.97264 3.60911 5.29472
3590 3 0.0439392 7.05581 7.23604
3589 2 0.20391 3.58548 7.26856
3567 2 0.152129 6.92697 3.6259
3566 2 1.88518 5.35495 3.53256
29 3 3.86823 3.50287 7.26497
593 2 3.68759 7.00882 7.13351
592 3 7.20823 5.28993 5.36088
591 3 7.33284 7.27175 7.16085
590 1 3.84572 5.22704 5.32919
1095 2 5.4829 5.55719 7.20935
1094 3 5.40827 7.12152 5.19454
1073 1 3.68162 7.30088 3.4093
2068 1 7.22508 7.12766 3.46186
2069 3 3.70118 3.48903 3.73591
3593 1 5.54145 3.61744 5.44868
3592 2 7.17281 3.49784 7.20639
3570 1 5.44614 5.31079 3.39603
3568 2 7.15951 3.19446 3.46776
31 3 8.90838 3.53267 5.33807
569 1 10.586 7.09439 3.64088
594 1 10.6246 5.49298 5.20303
1097 2 8.81199 5.19824 7.11967
1590 3 8.76475 7.04179 5.30014
1589 1 10.8924 7.2372 7.14987
3594 1 10.6865 3.6375 7.20402
3572 3 10.6859 3.64285 3.38713
3571 3 8.84804 5.28487 3.55919
33 3 12.2327 3.51739 5.27973
35 1 14.1617 3.60303 7.04474
571 2 12.4334 5.43045 3.47667
595 3 14.0861 7.30905 7.26203
1100 1 14.3407 5.31957 5.18804
1099 1 12.4706 5.37143 7.06908
1592 3 12.7471 7.22803 5.29042
1572 3 14.3949 7.08049 3.46314
3069 2 14.2096 3.47323 3.63502
573 2 16.0356 5.425 3.38142
1080 3 17.594 3.63273 3.35986
1595 3 16.0278 6.86907 5.34625
1594 3 15.6087 5.40152 7.31716
2094 3 17.7433 7.10369 7.09011
2092 3 17.7908 3.6815 7.09538
2571 2 17.7508 6.98201 3.49774
3092 3 17.9779 5.10527 5.32989
3595 1 16.0097 3.75548 5.25217
13 2 0.29465 10.6014 3.54617
597 2 0.314717 10.7381 7.16543
596 2 1.97234 10.5879 5.27337
574 1 1.86446 8.6701 3.64989
1102 3 2.09344 8.83846 7.20037
1101 2 0.411415 8.85395 5.38296
38 3 3.66368 10.6908 7.12079
578 1 3.76849 10.7561 3.41602
577 3 5.30384 8.93907 3.39042
1106 1 7.19793 10.791 7.04974
1104 2 5.27456 10.6097 5.37444
1103 2 3.88166 8.78698 5.35709
1084 2 7.20234 11.0116 3.59281
1597 3 7.13612 9.01353 5.30319
1596 1 5.29877 8.79426 7.04528
39 1 10.7104 10.847 7.11208
599 2 8.97597 10.8607 5.27986
579 1 10.7869 10.5602 3.727
1107 3 9.07512 8.91606 7.00918
1578 1 8.90855 9.06539 3.72189
2097 1 10.8198 8.85638 5.34197
1108 3 12.5194 11.0966 5.45424
1598 1 12.723 9.05178 7.0739
1579 1 12.5825 8.8247 3.59529
2072 2 14.3405 10.9775 3.69371
2099 3 13.984 11.068 7.09384
2098 1 14.5094 9.04783 5.54032
1599 2 16.1081 9.07053 7.12599
1580 3 16.1566 8.79549 3.4525
2100 2 15.9683 10.9757 5.2804
3093 3 17.8906 10.7605 7.02232
3597 2 17.7463 8.98232 5.38587
3573 2 17.7773 10.7682 3.5949
1110 3 0.168826 14.185 7.34728
1582 2 2.05486 12.4378 3.47075
2103 1 1.95927 12.4839 7.0836
2102 3 2.08265 14.2727 5.36209
2101 1 0.119231 12.3589 5.14895
2573 3 0.313838 14.2636 3.57564
1112 2 7.24386 14.3274 7.25464
1600 2 5.48197 12.5255 7.28716
2104 2 5.47454 14.1855 5.44624
2083 3 3.7844 14.253 3.57791
2601 2 7.27029 12.7414 5.41179
2600 1 3.83703 12.4057 5.44585
2599 1 3.63797 14.3898 7.18892
2577 2 7.22616 14.3964 3.34196
2574 2 5.50123 12.4468 3.38232
2604 2 8.99669 14.5482 5.49779
2603 1 10.6608 14.5702 7.39388
2602 1 10.7456 12.7191 5.38118
2578 3 9.04178 12.6562 3.76554
3097 1 8.98685 12.4783 7.08653
3072 1 10.8364 14.3547 3.54446
602 2 14.5591 14.3752 6.96966
1603 1 12.3521 12.9315 7.28341
2605 1 14.1744 12.7614 5.25897
2581 3 12.4535 12.6319 3.57027
3098 1 12.3797 14.6537 5.38508
3575 1 14.1999 14.4184 3.3707
1114 2 17.85 12.6548 5.40679
1584 2 17.9298 14.4543 3.66341
2582 2 16.0948 12.4701 3.48765
3100 2 16.1754 14.3672 5.39573
3099 1 15.9777 12.4567 7.17174
3599 2 17.7654 14.208 7.29649
582 2 0.129666 17.9473 3.65503
1605 2 1.84514 17.7685 5.56088
1604 1 1.7128 16.0355 7.15891
3104 2 0.0829744 16.0896 5.55995
3103 1 -0.0319189 17.8685 7.3178
3576 2 1.97614 16.0987 3.83819
2087 3 3.65395 17.8284 3.64447
2607 3 5.51254 17.9262 5.51807
2586 1 7.12751 17.8487 3.45981
3107 1 7.20231 17.8423 7.46084
3106 1 5.22271 16.1743 7.42558
3105 1 3.75591 17.8618 7.28353
3602 3 3.75683 16.2741 5.45472
3601 2 6.96358 15.894 5.20718
3577 3 5.41066 16.1253 3.43333
1091 2 10.5358 18.0119 3.75036
2107 2 8.83644 16.1684 7.29352
2608 3 8.79225 17.6296 5.3906
3109 1 10.7657 17.8099 7.30301
3603 2 10.5851 16.3164 5.64749
3579 1 8.72317 16.2728 3.46839
41 3 14.249 16.1023 5.45477
2610 1 12.4223 17.6751 5.64925
2609 1 14.4442 17.7114 7.29113
2587 2 14.2687 17.8181 3.81699
3604 2 12.5355 15.9953 7.40886
3580 1 12.4108 16.3784 3.80147
583 2 15.9483 16.0062 3.68158
1606 3 18.049 17.6286 7.09191
2109 1 16.05 16.0462 7.11086
3112 2 16.0038 17.7161 5.3954
3110 2 17.9572 16.1353 5.41702
3582 1 17.8771 17.6468 3.46734
21 3 0.0617062 1.64217 9.00088
604 3 -0.126583 -0.00819381 10.5905
2110 1 1.87713 1.66418 10.7494
2589 2 1.956 0.049541 9.15834
585 3 7.28692 1.82849 9.09299
1092 3 5.54354 -0.122156 8.90287
1608 2 7.2403 -0.0453917 10.7453
1607 3 4.07129 0.00240404 10.8438
2111 3 5.39007 2.10973 10.7246
2591 1 3.76271 1.7707 8.83078
1116 3 10.9197 -0.0174355 10.8604
2612 1 9.11308 1.69398 10.8597
2592 1 11.0346 1.82653 9.0387
3587 1 9.0574 -0.0497175 9.11038
587 3 14.2403 1.91787 8.90202
1609 2 14.4922 0.153367 10.5486
2090 3 12.5379 0.0679404 8.77783
2613 2 12.6755 1.89674 10.7025
26 2 16.0927 0.226178 8.92755
2594 3 17.9277 2.02457 8.7786
3116 3 16.1947 1.93771 10.617
3115 1 17.9367 0.271802 10.6038
1093 1 1.83934 7.00821 9.01243
2091 3 1.88782 3.49634 8.89188
2615 2 0.167587 3.62334 10.8213
3118 2 0.176989 7.10592 10.7878
3117 3 1.71655 5.32131 10.6132
3089 3 0.191908 5.35112 9.01293
30 3 5.76569 3.60948 8.90682
45 3 7.27934 7.05491 10.9023
1096 2 3.75069 5.31439 8.93645
2112 3 7.30041 3.68035 10.8732
2616 3 3.37444 3.65563 10.8192
3091 3 7.3718 5.41749 9.12335
3608 2 3.34266 7.06739 10.7958
3607 2 5.36725 5.24683 10.6282
3591 2 5.43185 7.26589 8.93315
46 2 10.8667 7.20308 10.6909
1098 3 10.6609 5.34865 9.02741
1591 2 9.07878 3.56202 9.06156
1588 3 9.15973 7.17263 8.96971
2113 1 10.6754 3.6082 10.8463
3609 2 9.03212 5.44138 10.8435
32 3 12.499 7.33045 8.91806
34 2 12.528 3.63474 8.89246
36 3 14.1506 5.42669 9.109
609 2 14.2019 7.15226 10.6146
3119 3 14.4194 3.53719 10.8563
3611 2 12.5635 5.51697 10.7342
1120 1 17.793 3.53731 10.942
1615 2 17.899 7.29295 10.8139
1593 1 17.8236 5.40319 8.88004
2093 2 15.9565 7.2671 8.90074
2595 1 16.133 3.75158 9.14378
3612 1 16.1333 5.48799 10.6249
48 2 2.028 8.9996 10.905
2095 3 0.179299 8.93832 9.00033
2596 3 2.01235 10.699 8.8625
3120 3 -0.0420859 10.52 10.8424
37 3 3.61546 8.86741 9.13288
49 2 5.5476 8.92741 10.7148
612 2 7.21288 10.716 10.5947
1105 1 5.1627 10.7249 9.14432
2096 2 7.36823 8.8683 9.09319
3121 2 3.72783 10.7251 10.9224
613 3 9.24011 9.0308 10.6374
598 2 10.7392 9.086 8.68158
3613 2 10.9392 10.9212 10.836
3596 3 9.13927 10.7928 9.0404
50 3 14.2672 10.74 10.8083
614 1 12.4584 8.95334 10.5508
2598 3 12.3952 10.7443 8.81643
2597 2 13.9866 9.06102 8.85483
51 1 17.9179 10.7708 10.9495
600 3 17.8545 8.96162 8.86304
1122 3 16.0635 9.08289 10.6993
1109 1 15.8849 10.8629 9.00397
616 3 0.354013 14.0749 10.8154
601 1 0.162532 12.2258 9.0897
1123 2 2.03308 12.357 10.8634
3094 3 2.04542 14.0958 8.96922
1124 1 5.57886 12.5401 10.5449
1111 1 5.5097 14.4822 9.08206
1619 1 7.39301 14.2395 10.9607
1618 3 3.59363 14.2952 10.7808
1601 1 7.27984 12.6886 8.90333
3095 3 3.64008 12.392 9.08321
617 1 10.8646 14.3639 10.9393
1125 1 8.99763 12.5244 10.7018
3096 1 8.8014 14.4668 9.11976
3598 2 10.6702 12.8016 9.17652
1126 3 14.2443 14.3092 10.7839
1113 2 12.4022 14.2582 9.21716
1620 3 12.5716 12.5164 11.0308
1602 2 14.2418 12.5231 9.01733
1621 3 16.1446 12.5661 10.8709
3126 2 17.8564 14.418 10.8366
3102 2 16.0557 14.3266 9.10174
3101 2 17.8633 12.5809 9.13367
1623 3 0.125112 17.9261 10.7624
2119 1 1.8529 16.0909 11.0743
2606 3 1.77982 17.9305 8.96319
3600 2 0.408974 15.9955 9.00977
40 3 7.12702 16.2037 9.47967
619 1 3.63394 17.9155 11.0917
1127 2 7.21046 18.0819 10.8886
2120 3 5.18159 15.9348 11.0205
2106 1 3.33585 16.2737 9.19138
2105 2 5.42805 17.7475 9.08013
1624 3 10.9091 18.0545 10.9311
2108 3 10.7892 16.2235 9.10828
2625 3 9.08986 16.0525 11.0624
3108 3 9.01653 18.0088 9.20756
603 2 14.44 15.9944 9.09117
1115 3 12.5178 17.8366 9.08028
2626 1 12.6333 15.9873 10.8288
3620 1 14.2925 17.8989 10.7714
2628 2 15.9753 16.0756 10.8168
2611 2 17.8901 16.1217 9.09322
3127 3 17.5817 18.1762 10.7927
3111 2 16.0256 17.7265 8.89399
42 3 0.260262 1.75477 12.5703
2121 1 0.0895227 0.145333 14.2122
2629 2 2.02369 1.83677 14.4229
3113 2 1.98149 -0.0877656 12.429
43 2 3.71269 1.83012 12.6227
605 1 7.33996 1.70299 12.246
1625 2 7.29145 0.165464 14.2184
2123 3 3.77764 -0.0956397 14.376
3128 2 5.42796 1.73957 14.2597
3605 2 5.45631 -0.0914216 12.6178
606 1 10.9074 1.87933 12.5181
1627 1 10.9131 0.107246 14.1155
3129 2 9.20202 1.85362 14.256
3606 1 8.90511 -0.0875452 12.5171
1117 1 14.5868 2.05055 12.5955
2632 2 14.4774 0.138869 14.1311
3131 2 12.7317 1.90137 14.451
3114 3 12.8043 0.313689 12.4334
44 2 16.2904 0.299892 12.5912
501 3 17.8458 0.0999384 14.2185
2614 3 17.9232 1.77294 12.5733
3132 2 16.1883 1.88167 14.3754
607 2 1.78662 3.37836 12.7934
1119 1 1.91275 6.93623 12.5891
1118 2 0.0879959 5.32838 12.4691
2634 1 -0.127659 6.88528 14.4833
2633 1 0.0708045 3.52655 14.3036
3624 3 1.69349 5.34827 14.2674
60 2 7.544 7.21262 14.3277
608 2 5.53944 3.43761 12.4249
1612 3 7.09331 5.19117 12.679
1611 3 5.36771 7.11228 12.276
1610 1 3.45415 5.14459 12.6539
2128 3 7.35857 3.584 14.3931
2126 2 3.80148 3.63901 14.2949
3136 3 3.68098 7.11459 14.3279
3626 2 5.42418 5.6189 14.2984
1613 1 10.8997 5.35373 12.3406
2114 1 9.17119 7.20052 12.5938
3137 3 10.9176 3.74457 14.3974
3629 3 9.13356 5.40585 14.1889
3628 2 10.9206 7.24967 14.4729
3610 2 9.04714 3.51129 12.5123
610 2 12.472 3.60758 12.6134
1614 2 14.0844 5.42486 12.4664
2617 2 12.4932 7.05898 12.5803
3138 3 14.31 3.70403 14.3768
3631 1 14.2803 7.12428 14.4157
3630 1 12.5934 5.27395 14.4068
47 3 17.8762 5.3712 12.5283
65 3 15.9577 5.665 14.1722
1138 2 17.8718 3.76558 14.3682
1121 3 16.0522 3.8164 12.6291
2618 2 15.8714 7.36138 12.3547
3140 2 17.873 7.05491 14.5188
67 3 1.75716 8.91547 14.2563
611 3 1.73011 10.5886 12.4762
2115 3 0.238606 8.75021 12.4926
2636 1 0.0772401 10.673 14.3992
69 2 7.27209 10.5878 14.2196
70 2 5.51579 8.87921 14.1392
1616 1 5.67723 10.7165 12.4445
2116 1 3.61793 8.84087 12.6795
2619 1 7.37139 8.96352 12.4784
3633 1 3.55655 10.7304 14.0235
71 2 9.09886 9.08389 14.4782
2117 3 9.05373 10.7114 12.3976
2620 3 10.8543 9.12477 12.5956
3141 1 10.9108 10.7868 14.3626
510 2 12.6727 9.02675 14.3439
1617 3 12.7722 10.8208 12.6763
3122 1 14.1817 8.88064 12.5398
3635 1 14.271 10.8752 14.6002
511 2 15.9087 8.99305 14.3628
615 1 17.6926 8.91757 12.4864
1639 2 17.7788 10.63 14.136
2118 1 16.015 10.7844 12.4851
513 2 0.0845624 14.16 14.3503
514 3 1.96717 12.4191 14.2396
2621 2 0.0414909 12.3098 12.5269
3123 3 1.7919 14.2759 12.5909
72 2 7.19384 14.1841 14.2825
515 3 5.24262 12.397 14.2747
516 2 3.68602 14.2112 14.3838
3125 3 7.29721 12.3843 12.6948
3124 1 3.66773 12.7227 12.4421
3614 2 5.45245 14.1006 12.5067
73 3 10.7996 14.5185 14.5213
1145 1 9.19112 12.4024 14.3195
3616 3 10.9246 12.4875 12.4801
3615 2 9.19894 14.1477 12.7348
1147 2 12.5385 12.6505 14.6496
1146 3 14.1658 14.3541 14.4453
2622 1 12.6769 14.4351 12.594
3617 1 14.3446 12.6265 12.614
1149 2 15.8886 12.7344 14.3938
1622 1 17.6626 12.7955 12.7554
3146 2 17.8072 14.4103 14.4492
3618 3 16.0104 14.4498 12.6659
52 2 0.0520182 16.0409 12.7757
518 1 0.0249356 17.8692 14.3895
1150 1 1.58452 15.9143 14.4137
2623 1 1.65474 17.9148 12.9303
53 3 3.5863 15.9 12.7776
618 3 7.23382 16.1495 12.6284
1151 2 3.53802 17.7598 14.1846
1642 1 5.37998 15.9761 14.4756
2142 2 6.99341 17.9576 14.2221
2624 3 5.36266 17.8354 12.5176
54 2 10.928 16.1894 12.5297
1643 1 8.75379 16.0071 14.3636
2649 2 10.6489 17.7891 14.5502
3619 3 9.08222 17.9547 12.7849
55 1 12.6494 17.8495 12.6608
620 3 14.4247 16.1854 12.5816
1646 2 12.614 16.1331 14.428
1644 2 14.3405 17.9075 14.2098
56 1 16.0441 18.0264 12.6601
1647 1 16.1742 16.0606 14.3891
2627 3 17.8425 16.4095 12.3029
3644 2 17.7163 18.0141 14.2463
57 1 1.78089 0.0201151 16.0096
621 2 0.191955 1.74005 16.0084
1128 2 0.110616 0.0128181 17.8618
2122 2 1.85292 1.84791 18.0624
58 1 5.53634 0.0272014 16.0173
1132 2 7.14373 -0.0481013 18.0773
1131 2 7.33707 1.59858 16.1439
1130 2 3.64688 0.00554951 17.8868
1129 2 3.86951 1.68227 16.0208
2630 2 5.46501 1.65444 18.0969
1133 1 10.823 1.43185 15.9537
1626 3 10.8203 -0.077748 18.0056
2631 2 9.12697 1.83549 17.696
3621 2 8.99086 0.0126526 15.9677
59 1 12.7422 -0.107275 15.9562
1134 2 14.4319 1.65072 16.1147
2124 2 14.4535 -0.0489457 18.0739
3130 2 12.5489 1.80484 17.9395
502 1 15.9912 0.0139924 15.8478
3133 1 15.8262 1.99568 18.0217
3623 1 17.7318 0.150336 17.81
3622 3 17.8646 1.80161 15.961
503 3 2.01709 3.63043 16.0552
504 3 1.95957 7.06705 16.0877
1628 1 0.00229333 5.05789 16.0533
2125 1 0.280407 3.53948 17.9628
3134 2 -0.0353262 7.09872 17.8798
3625 3 1.77571 5.35774 17.6995
61 1 5.53027 3.64993 16.2855
505 2 3.63543 6.94543 18.0999
1135 1 7.04185 6.93358 17.9214
1631 2 5.51798 7.00888 16.1631
1630 2 3.62601 5.45986 16.1174
1629 3 7.23406 5.42857 16.1149
2127 1 3.76677 3.35379 17.8339
3135 2 7.09645 3.41793 17.8824
3627 1 5.23744 5.29869 17.8904
62 2 8.90357 5.36185 17.8301
63 1 10.8191 7.35525 17.9108
506 2 9.2925 3.67334 16.2006
1632 1 10.7567 5.34649 16.1648
2129 1 9.17187 7.16697 16.1656
2635 3 10.8251 3.69726 17.8311
64 2 12.4302 5.53055 17.8734
1137 2 14.2423 7.04329 18.1203
1136 1 12.5381 3.54547 15.9848
2131 3 14.3644 5.33394 16.0539
2130 1 12.7494 7.25395 16.1469
3139 3 14.1447 3.64528 17.9107
66 1 17.837 5.41886 16.1942
507 2 16.1361 5.30613 17.8871
1140 1 18.1334 3.45796 17.8125
1139 2 16.1734 3.5731 16.2293
1634 3 17.7911 7.06546 18.1454
1633 1 15.9743 7.16606 16.1053
508 3 1.84798 8.86081 17.7993
1141 1 2.02123 10.6095 16.1177
2132 3 0.110401 8.82007 16.1511
3632 3 0.0977803 10.4721 17.8005
68 2 3.87832 10.77 17.8113
509 2 7.06 10.697 17.7493
1142 1 5.4669 8.84317 17.8108
1635 2 5.25466 10.7681 16.0883
2134 3 7.06369 8.84031 16.0131
2133 2 3.73881 8.98033 15.8148
1143 1 8.98406 8.99426 17.9104
1636 3 9.0761 10.7133 16.1535
2637 1 10.868 8.93091 16.0839
3634 2 10.8141 10.5986 17.9884
1144 3 12.6155 10.9398 16.5095
1638 2 12.8067 8.95312 17.8483
1637 1 14.4636 10.7525 18.0053
2638 1 14.2933 9.1337 16.2545
512 1 17.8469 9.00111 15.9985
1640 1 16.0218 8.84845 17.7297
2135 3 16.0964 10.8603 15.8656
2639 2 17.8434 10.7413 17.9674
2137 1 0.0749504 14.2009 17.9973
2136 2 1.88576 12.5099 17.8872
2641 3 1.79104 14.2162 15.9841
2640 2 0.08753 12.2167 16.0414
2140 1 7.30333 14.182 17.9675
2139 2 3.5942 14.5664 17.767
2138 2 5.49034 12.5995 17.8361
2643 1 5.42887 14.3669 16.0913
2642 1 3.93084 12.7066 16.1852
3142 1 7.25436 12.4652 15.8732
2141 3 8.99006 14.2013 16.0106
2645 1 9.02654 12.2628 18.0088
2644 3 10.6677 14.4179 17.8755
3143 1 10.5975 12.615 16.1285
2647 2 12.5398 14.4264 16.4282
2646 3 12.6177 12.7547 18.0939
3145 3 14.4077 14.4776 18.0906
3144 3 14.3603 12.7389 16.2989
517 3 17.8873 14.4269 17.954
1148 1 17.9787 12.3694 16.0632
3148 2 16.1894 14.4216 16.2587
3147 3 16.0744 12.6223 18.0898
2648 2 1.79553 17.7769 16.0796
3150 1 1.57952 16.132 17.6915
3149 1 -0.166356 16.0644 16.058
3636 1 -0.0171421 17.7527 17.8318
1641 2 3.42118 17.6939 17.8354
2143 1 7.15176 17.8805 17.8686
3640 2 5.22778 17.862 16.0124
3639 3 7.05956 16.1731 16.2904
3638 3 5.33993 16.0845 18.0301
3637 1 3.63218 16.1031 16.0789
74 2 8.86713 17.971 16.0906
519 1 10.565 18.0413 17.8455
3642 2 8.86007 16.1172 17.7195
3641 1 10.6959 16.2958 16.2697
75 2 12.511 16.3283 18.0484
76 1 12.6778 17.8457 16.0776
1645 1 14.3169 17.7493 17.9334
3643 2 14.2428 16.1465 16.2922
77 3 16.366 16.3182 17.8606
2144 2 18.0326 16.2049 16.0825
2650 2 17.9325 17.9828 17.8217
3645 2 16.286 17.9675 16.078
520 3 -0.0734731 -0.108087 21.4807
78 3 0.0401175 1.70006 19.5976
2145 3 1.86175 1.92069 21.2934
3151 1 1.83825 0.0427063 19.6525
521 3 3.58537 0.191592 21.5445
80 2 3.67873 1.604 19.5785
79 3 7.02569 1.68843 19.7465
2147 3 5.35057 1.78581 21.3658
2146 3 7.39246 -0.0823693 21.3486
2651 2 5.26417 -0.130598 19.7994
81 2 10.794 1.54208 19.8123
1648 1 10.7758 0.0137345 21.7001
2652 3 9.27351 1.73942 21.6316
3152 2 8.99545 -0.122814 19.4565
522 1 14.1685 1.53203 19.5901
1649 3 14.386 -0.00840144 21.4779
2653 3 12.5073 1.71368 21.5727
3646 2 12.4251 -0.19337 19.8295
82 2 18.1689 -0.112082 21.6106
2654 2 17.8848 1.90965 19.717
3153 3 16.0987 1.76573 21.5022
3647 3 16.1837 -0.059764 19.8721
523 3 0.144663 5.46299 19.4833
84 3 1.78209 7.19516 19.6768
83 1 0.081324 7.0386 21.4108
1650 2 -0.0387955 3.67794 21.429
3155 3 1.96575 5.24274 21.545
3154 2 1.80651 3.63877 19.6511
524 1 3.57387 5.09979 19.6531
525 3 7.24404 5.23668 19.7434
526 3 3.57025 7.15329 21.4603
1153 2 7.44136 7.19166 21.3821
1152 1 5.38175 6.96649 19.7284
2655 3 3.56057 3.48174 21.6686
3156 1 7.1543 3.33786 21.4061
3649 2 5.426 3.70803 19.6385
3648 3 5.23838 5.20002 21.6885
86 3 10.9184 7.14264 21.3289
85 3 9.0403 3.22392 19.8807
1155 1 10.658 5.29896 19.333
1154 2 9.07194 7.28558 19.5393
2656 3 10.8029 3.66026 21.5457
3650 1 9.22396 5.39998 21.4082
527 3 12.5666 7.08048 19.7406
88 2 12.6372 5.34664 21.6163
87 2 12.4357 3.53447 19.6116
1156 2 14.4467 5.32091 19.6172
2148 2 14.404 6.96844 21.4509
2657 2 14.0856 3.64325 21.5658
528 3 17.8235 3.40117 21.5187
89 1 16.2775 5.40372 21.621
1157 1 16.2556 6.77279 19.7766
3158 3 17.8029 5.13794 19.6743
3157 3 18.1467 7.10242 21.5683
3651 1 15.9502 3.37575 19.7997
529 1 1.90359 8.91992 21.2752
530 3 1.8704 10.9615 19.4362
1158 2 0.120561 9.05152 19.7003
3652 3 0.334506 10.7017 21.4481
531 2 5.44202 8.88249 21.4669
532 2 5.42412 10.6079 19.6405
533 3 7.2531 10.6411 21.3682
1159 1 3.58901 9.02299 19.4235
1651 1 7.12105 8.81574 19.6678
3653 2 3.61577 10.7671 21.4029
90 3 8.8718 10.7002 19.6934
1161 3 9.11327 8.95263 21.3811
1160 3 10.6558 10.7689 21.4991
1652 3 10.8478 8.99305 19.6791
534 1 12.5271 10.6341 19.6872
1162 3 12.6526 8.90461 21.469
1654 1 14.1066 10.9494 21.3757
1653 1 14.3697 8.92288 19.6175
1656 3 16.0873 10.6421 19.6273
1655 2 15.8945 8.95884 21.4422
3159 1 18.0356 10.6422 21.5928
3654 1 17.8014 8.86237 19.7653
1660 2 -0.0646951 14.3597 21.2621
1659 3 1.93647 14.4212 19.7854
1658 2 1.8555 12.4674 21.3271
1657 3 -0.072702 12.5625 19.5317
1163 2 5.296 14.1277 19.5709
1661 2 3.46092 14.0786 21.5762
2151 3 7.04708 12.3822 19.5798
2150 3 5.43284 12.4293 21.2647
2149 1 3.59976 12.6423 19.5305
3160 3 7.15496 14.4239 21.2208
1662 1 8.979 14.2118 19.6494
2153 2 8.9117 12.5278 21.2262
2152 3 10.7331 12.5071 19.5712
2658 3 10.6763 14.6334 21.4195
2155 1 14.2633 12.6974 19.7438
2154 1 12.5184 14.3531 19.6513
2660 1 14.4654 14.1123 21.5713
2659 1 12.4646 12.375 21.4304
535 2 18.0914 12.4462 19.5808
1164 1 17.9438 14.2795 21.4381
2156 3 16.2539 14.2214 19.608
2661 1 16.1874 12.4713 21.4621
1165 2 0.222132 17.859 21.4031
2157 3 1.72519 17.8454 19.8444
2662 2 0.0801957 16.1124 19.8172
3161 3 1.74549 15.9948 21.5993
1664 2 7.1533 17.7972 21.4453
1663 3 3.43022 17.7983 21.4543
2664 2 3.53303 16.0471 19.6369
2663 3 7.17823 16.1355 19.6069
3163 2 5.14169 16.0024 21.3255
3162 3 5.28736 17.8747 19.4699
536 3 10.8351 18.0475 21.365
2665 2 10.5353 16.1049 19.6069
3164 1 9.04545 17.8235 19.6173
3655 1 8.93108 16.2122 21.403
2666 3 12.4808 17.9132 19.6357
3166 3 14.4223 16.1892 19.6887
3165 1 14.3755 17.8922 21.1937
3656 3 12.4364 16.0787 21.2087
92 3 16.0842 15.8848 21.4362
91 2 17.9093 17.9357 21.4054
1166 2 18.0498 16.0588 19.7897
3167 3 16.1801 17.7087 19.6397
93 1 1.76196 1.83526 25.1801
1665 2 1.57513 -0.0930278 23.1362
2667 2 -0.105244 0.304534 24.8181
3168 3 -0.0985483 1.77179 23.0389
2158 3 5.41945 0.105176 23.1548
2670 2 3.46032 0.0839736 24.8979
3170 3 7.14676 1.82731 23.0886
3169 2 3.51729 1.79975 23.3435
3659 2 7.1097 -0.139299 24.871
3658 3 5.26657 1.82605 24.9679
537 3 8.94803 1.64336 24.9658
2671 1 8.9261 0.0193978 23.343
3171 2 10.5525 -0.230056 24.9596
3660 2 10.9075 1.7691 23.497
2673 3 12.7527 -0.179656 23.0888
3663 2 14.4349 1.87131 23.2401
3662 2 14.2728 -0.110751 25.094
3661 2 12.7815 1.74117 25.0549
539 3 16.0558 1.74517 24.9471
1167 2 17.744 0.03816 24.9925
1668 3 17.6749 1.63195 23.4641
2160 3 16.0521 -0.0874378 23.3068
99 1 1.6862 5.19413 24.98
98 3 1.83638 7.26368 23.0974
97 2 0.222244 7.10582 24.8594
96 2 -0.0441697 5.4001 23.1766
3173 3 1.51435 3.29816 23.1681
3172 3 -0.00687151 3.45695 24.9849
540 3 3.61066 7.15832 24.9528
541 2 5.5397 6.9806 22.8727
542 2 7.52245 5.32079 22.9734
543 3 5.39367 5.41548 24.9626
101 2 7.21843 7.15601 24.9085
100 1 3.57992 5.14799 23.2853
2675 2 7.19161 3.60957 25.1456
3175 3 3.43488 3.49683 25.1237
3665 3 5.46778 3.53443 23.204
546 2 8.92307 7.17293 23.0869
547 3 9.13591 5.39811 24.9816
102 3 10.752 5.35356 23.2148
1170 3 10.7833 7.03598 24.7844
3177 2 10.8473 3.48948 25.0656
3666 2 8.86907 3.58175 23.3395
548 1 14.2699 5.37384 23.4354
549 2 12.6022 5.3006 25.2367
105 1 14.2765 3.49019 25.1661
1670 2 12.6641 7.23644 23.2938
3179 2 12.5767 3.63659 23.3779
3667 2 14.3489 7.26975 24.9058
1172 3 16.1795 5.50515 24.9917
1672 3 17.8324 3.53951 25.1754
1671 2 16.1211 7.18603 23.2497
2678 3 17.9852 7.39885 24.9077
2677 1 17.9922 5.19581 23.3297
3668 2 16.0636 3.57039 23.3447
550 3 0.198758 8.94136 23.1686
106 1 1.94074 10.718 23.0354
1175 2 2.03699 9.00599 24.9653
3669 2 -0.0821836 10.4967 24.8776
108 3 5.26145 10.9025 23.0624
1180 1 6.96757 10.6455 24.7353
1178 2 7.30083 8.94705 22.9032
1177 3 3.4838 8.97187 23.0875
1176 1 5.59977 8.96688 24.7867
3670 3 3.82729 10.5749 24.9306
551 3 10.7056 10.6043 24.9969
552 3 8.88066 10.7679 23.1881
1181 3 8.77044 9.04573 24.8801
1674 3 10.8576 8.783 23.0825
1182 2 12.2754 10.8058 23.3167
1676 2 12.5718 8.95423 24.8098
1675 2 14.2979 9.00985 23.4148
2163 3 14.1503 10.9382 25.0013
1183 1 16.0838 9.21251 24.9609
1677 1 15.9964 10.734 23.1739
2165 1 17.6315 10.8916 24.7494
3671 2 17.6987 9.0013 23.225
555 1 -0.124093 14.0977 25.0727
1184 1 1.77417 14.2102 23.2784
1678 3 1.85755 12.4354 24.9132
2166 3 0.029895 12.3366 23.0967
113 2 7.15674 14.5182 24.6843
1185 3 5.23121 12.2901 25.2766
2170 1 5.09818 14.3258 23.2403
2169 2 3.7374 12.5635 23.2938
2168 2 3.83825 14.3044 24.9557
2167 2 7.1688 12.5841 23.1528
1680 2 10.7152 14.4402 24.8004
2171 2 10.6643 12.4677 23.1128
2682 3 8.83537 14.3049 23.0251
2681 1 9.01739 12.3459 24.9189
114 3 14.0791 14.1634 24.9842
1681 1 12.1956 12.3874 24.8867
2684 1 14.1502 12.4212 23.1778
2683 3 12.275 14.2341 23.0839
557 2 17.8251 12.681 23.1904
2173 3 15.9542 14.2169 23.2726
2685 1 16.193 12.6094 25.0905
3183 1 17.9248 14.381 24.9384
1684 3 1.70666 16.0118 24.9821
1683 1 1.45011 17.8581 23.3718
2688 3 -0.0125976 15.9104 23.2798
2687 2 -0.190264 17.9984 24.9989
2175 2 7.2197 18.0105 24.8118
2174 2 5.46086 17.8391 22.9888
2689 3 3.57354 17.8556 24.8245
3187 1 5.39886 16.3988 24.7928
3186 1 7.18736 15.9306 22.8625
3185 1 3.35424 15.9186 23.2177
1687 3 9.04365 17.8782 23.1075
1686 3 8.89658 16.0361 24.7156
2177 3 10.713 17.954 24.8285
3675 1 10.6938 16.3038 23.1198
2178 2 14.131 17.9727 25.0212
2690 1 12.684 17.7468 23.0972
3188 3 12.496 16.1726 24.9975
3676 3 14.156 15.9137 23.1109
1187 2 17.8594 15.911 23.1213
1186 3 17.8808 17.9732 24.8491
1689 1 15.9322 16.0889 25.0102
3189 1 15.9421 17.6973 23.1048
1188 3 0.17989 0.0930921 28.4712
2180 3 1.97646 1.92203 28.5879
2668 2 1.74565 0.0594555 26.6791
3657 2 0.258552 1.82022 26.806
559 3 7.19763 0.385935 28.6477
94 2 7.09773 1.61954 26.5566
1189 1 3.56265 0.0747699 28.4032
1666 2 5.28138 0.200039 26.6859
2181 3 5.28875 1.66344 28.4387
2669 1 3.45311 1.90482 26.7603
560 3 10.8415 0.0548469 28.4424
95 1 8.93035 -0.134529 26.7887
2182 1 8.82047 2.01106 28.3867
2672 3 10.7139 1.59121 26.7207
538 1 14.5215 1.89585 26.8089
1667 3 12.6077 0.0394918 26.6807
2184 3 12.6817 1.84652 28.4685
2183 2 14.357 0.0706921 28.7342
2159 2 17.8506 1.75726 26.7073
3193 2 16.1083 1.83625 28.699
3679 3 18.0312 0.192358 28.643
3664 3 16.14 -0.0558155 26.9991
1168 2 1.67026 3.58866 27.0716
1669 3 1.85329 7.07628 26.712
2186 3 0.106586 7.08373 28.5311
2185 3 -0.0441534 3.61074 28.4771
2674 1 -0.1788 5.35896 26.7176
3194 1 1.80815 5.50488 28.5096
544 1 3.61563 5.56633 26.6524
563 1 7.26047 7.05572 28.6323
1691 3 7.20119 3.67578 28.2714
1690 2 3.66066 3.89171 28.3119
2676 3 7.2567 5.47924 26.575
3196 3 3.72451 7.19556 28.6469
3195 3 5.55671 5.62438 28.3806
3176 2 5.40672 3.57839 26.8343
3174 2 5.42441 7.18437 26.6905
545 3 10.8521 5.42528 26.6042
1171 2 9.26927 3.74007 26.7307
1169 3 9.11959 7.21324 26.7407
2694 1 10.8924 3.67301 28.4091
3197 1 8.96611 5.43342 28.4279
3681 3 10.8287 7.31103 28.5206
104 1 12.647 3.78858 26.9321
103 2 14.3305 5.68943 26.9105
2695 1 14.3844 3.82902 28.3647
3178 3 12.4987 7.28979 26.7701
3684 1 14.3757 7.18374 28.505
3683 3 12.588 5.47121 28.4896
622 2 18.0016 3.52348 28.6199
1004 2 17.9646 7.2736 28.5817
1174 3 16.241 7.09545 26.8889
1173 1 17.9148 5.44334 26.7642
3180 3 16.1316 3.53222 26.8417
3685 1 16.4032 5.51043 28.8628
1673 3 0.0655094 8.84105 26.5779
2161 1 1.94224 10.694 26.5537