ITEM: TIMESTEP
5000
ITEM: NUMBER OF ATOMS
4000
ITEM: BOX BOUNDS pp pp pp
1.2202577576289997e-01 3.5612034224236794e+01
1.2202577576289997e-01 3.5612034224236794e+01
1.2202577576289997e-01 3.5612034224236794e+01
ITEM: ATOMS id type x y z
1 2 -0.0213596 1.99004 1.84816
1563 2 0.0254924 0.201739 0.243915
2064 2 1.79039 1.79995 0.190509
3561 3 1.97897 0.138702 1.83914
564 3 3.71917 1.88255 2.00301
565 2 7.12275 1.76891 1.9743
1565 3 7.19668 0.0190348 0.101136
2065 2 3.77624 0.0808716 0.207751
3061 3 5.50664 1.94997 0.0342868
3562 2 5.56958 0.0750823 1.87006
566 1 10.7757 1.79642 2.06278
1070 2 10.7234 0.204071 0.125091
3063 3 9.1004 0.135307 1.91619
3062 3 8.93106 1.85188 0.14184
567 3 14.2804 2.00019 1.86272
2566 1 14.2366 0.248077 0.209112
3064 2 12.4386 1.88505 0.24553
3563 2 12.5754 0.0887431 1.91829
2 2 18.0631 0.169335 0.0244958
3 1 16.3306 0.180979 1.859
3066 3 17.8307 2.0243 1.8457
3065 3 16.1016 1.8873 -0.0358701
4 1 1.81459 5.29403 0.298463
5 1 1.9548 3.74657 1.97285
6 2 1.95793 7.22188 1.92378
1071 1 0.126966 5.56828 1.90243
3067 2 0.0422048 3.72823 0.301775
3565 2 0.0978392 7.1327 0.194487
7 3 5.53313 5.47742 0.211972
8 1 3.77214 7.32046 0.154223
1072 2 7.26802 5.47108 1.92933
1075 2 5.53318 7.30952 1.90413
1074 2 3.77548 5.61924 1.96334
1567 2 7.29565 7.14304 0.00632831
2570 2 7.31261 3.57156 0.182917
2569 3 3.61983 3.7443 0.384046
3569 3 5.61307 3.65723 2.00658
9 2 9.05925 5.56756 0.0702965
10 3 9.08628 3.47276 2.01006
1077 1 10.7961 7.19955 0.0637681
1076 2 10.6756 5.39586 2.05996
1568 2 9.08607 7.18349 1.94502
3068 3 10.7161 3.73646 0.206643
11 3 12.5506 5.42543 0.0469073
12 3 14.4296 3.7478 0.213787
570 2 12.567 3.86091 1.96323
1571 3 14.2231 7.20171 0.101795
1570 1 14.3443 5.54415 1.80887
1569 2 12.4648 7.08829 1.86284
572 1 16.2174 3.75047 2.00169
1081 2 15.9896 7.1453 1.91203
1079 1 17.9695 5.52274 1.92552
1078 2 16.1627 5.5011 0.162673
1573 1 17.8926 3.88783 0.140063
2070 3 17.8421 7.20663 0.292181
575 2 1.92278 10.7682 1.70856
1082 2 1.97774 9.00836 0.0892083
1574 3 0.160695 9.03617 1.88165
3070 3 -0.0322403 10.8343 0.0142648
576 1 3.71786 10.6941 0.182834
1085 3 5.47125 8.8273 0.113429
1083 3 5.46484 10.754 1.92994
1577 3 7.26179 10.7586 0.192481
1576 2 7.15034 8.98869 1.889
1575 1 3.74711 8.9217 1.97444
14 3 10.8096 10.7425 0.207642
1087 3 9.06304 10.7729 1.84886
1086 1 8.90391 9.05764 -0.169892
2071 1 10.7059 8.85138 1.75187
580 1 12.6394 10.9556 1.94423
1088 3 14.2205 10.7539 0.0983962
2073 2 12.5952 9.07188 -0.0101871
2074 1 14.2824 8.96733 1.86441
15 1 17.6948 9.07579 1.93562
1581 2 15.9465 10.6666 1.93865
2076 1 17.7942 10.886 0.170516
2075 3 16.2577 8.95781 0.117247
2079 3 1.84283 12.49 0.0254336
2078 2 1.89052 14.2537 1.85964
2077 2 0.0994196 12.5426 1.88412
2572 1 -0.0356058 14.3678 0.224789
2082 3 5.38883 14.2716 1.85892
2081 1 3.65417 12.5776 1.71351
2080 3 5.35002 12.649 0.151213
2576 2 7.31012 14.4145 0.0983608
2575 3 7.3071 12.6968 1.77914
3071 3 3.73372 14.4114 0.123524
1583 2 9.02725 14.5266 1.88914
2084 2 10.7528 14.4131 0.0538933
2579 1 10.8421 12.6843 1.82321
3073 2 9.04681 12.4517 0.093952
2085 3 12.5172 14.3633 1.76419
2580 2 14.3582 12.6899 1.98392
3074 2 12.5779 12.6634 0.0575587
3574 3 14.3784 14.3496 0.134949
581 2 17.7885 12.6443 1.77856
1089 2 17.7943 14.4948 0.0790322
2583 2 16.1168 14.3789 1.74272
3075 2 16.2086 12.6318 0.109583
16 1 0.143364 17.7309 0.083825
2086 1 1.81842 17.6431 1.92817
2584 2 0.155557 16.0858 1.86591
3076 3 1.89902 16.0954 -0.0149053
17 2 5.4604 16.081 0.194364
1090 3 3.62512 17.845 0.166275
2585 1 7.15192 17.9097 0.166966
3079 1 5.40472 18.017 1.91426
3078 2 7.09499 16.0897 1.88415
3077 1 3.68876 16.1448 1.96246
18 2 9.15279 16.1371 0.128037
1585 1 10.7335 17.923 0.0997153
3080 1 10.8503 16.2476 1.87992
3578 1 8.96167 17.8307 1.97126
19 3 12.5941 16.2785 0.128803
2088 2 14.2944 17.9341 0.0918556
3081 3 14.2761 16.1618 1.99353
3581 2 12.5766 17.9377 2.00354
20 1 16.068 16.2967 0.104707
1586 1 17.8513 16.0219 1.91624
3083 2 16.266 17.8543 1.93301
3082 2 17.938 17.7481 0.114991
584 1 1.90267 1.89953 7.23457
1564 3 0.0854744 0.140272 3.66277
2588 2 1.93692 0.162405 5.38493
2563 3 1.92706 1.97977 3.67092
3084 1 0.139364 0.000371966 7.01587
3583 3 0.133929 1.7809 5.34654
22 1 5.61034 1.88619 7.0402
1069 3 3.64733 0.0790177 3.63037
1566 1 7.23441 0.0729863 3.54106
2089 2 5.40214 -0.0492393 5.40839
2590 3 3.74536 0.138937 7.15449
2564 2 5.51081 1.83062 3.77905
3085 2 7.25611 -0.0233858 7.12886
3585 3 3.79241 1.88849 5.44721
3584 3 7.20679 1.8653 5.47358
586 2 8.86992 1.93835 7.20968
2066 1 10.8132 -0.0221544 3.65323
2593 2 8.8775 0.0361558 5.46051
2565 2 9.04027 1.74291 3.71191
3086 1 10.5945 0.288985 7.33849
3586 2 10.7322 1.60039 5.4143
23 3 12.6485 1.81096 7.2403
24 2 14.3714 0.164851 7.1729
25 1 14.4066 1.68324 5.48653
2568 3 14.2788 0.0968577 3.56628
2567 3 12.6041 1.81991 3.64341
3087 3 12.5248 0.17221 5.46803
568 3 17.8073 0.211509 3.63361
588 1 16.1766 1.72631 7.28561
1587 3 17.9326 0.0168452 7.1037
3088 3 15.9883 0.0800148 5.34034
3588 3 17.8113 1.76941 5.4336
3564 3 16.0419 1.84266 3.57204
27 1 1.90461 5.44879 7.27642
28 3 1.89291 7.24083 5.52719
589 3 0.00485278 5.36792 5.50994
2067 2 0.0288463 3.74837 3.6137
3090 1 1.90298 3.56242 5.25869
3590 2 0.117113 7.2689 7.41061
3589 1 0.123218 3.53668 7.13766
3567 1 0.171388 7.16215 3.65286
3566 3 1.91867 5.44348 3.73497
29 3 3.69655 3.59596 7.089
593 1 3.71251 7.27971 7.30781
592 1 7.14053 5.50918 5.3699
591 2 7.14328 7.16041 7.2832
590 2 3.72485 5.51134 5.52195
1095 1 5.41184 5.30193 7.12117
1094 1 5.66644 7.11698 5.55471
1073 1 3.61004 7.36552 3.81791
2068 2 7.2193 7.24666 3.68428
2069 3 3.74072 3.80949 3.56175
3593 1 5.44782 3.67889 5.17704
3592 2 7.1017 3.69882 7.10712
3570 2 5.3537 5.57724 3.81348
3568 1 7.27959 3.62844 3.65619
31 1 8.85158 3.64634 5.48311
569 1 10.7264 7.26239 3.73711
594 2 10.5618 5.34294 5.52513
1097 2 8.94979 5.32616 7.24299
1590 1 9.05883 7.25726 5.26421
1589 3 10.6413 7.24428 7.13053
3594 1 10.6279 3.5855 7.23817
3572 3 10.7738 3.6863 3.73488
3571 1 9.01757 5.50572 3.64401
33 3 12.452 3.66452 5.6148
35 1 14.2555 3.67448 7.16685
571 1 12.4321 5.53511 3.86563
595 1 14.3783 7.188 7.3998
1100 2 14.3359 5.48251 5.47547
1099 1 12.5287 5.62843 7.1915
1592 1 12.4017 7.25928 5.4464
1572 2 14.4107 7.20516 3.52451
3069 3 14.2434 3.73209 3.77181
573 3 16.203 5.60809 3.67651
1080 2 17.7508 3.62164 3.73319
1595 1 16.0729 7.18802 5.46379
1594 3 16.0176 5.34263 7.26541
2094 1 17.8633 7.04654 7.44175
2092 1 17.8538 3.58683 7.20349
2571 3 17.91 7.34651 3.60635
3092 2 17.8137 5.48057 5.45543
3595 3 15.969 3.59435 5.40018
13 2 0.0489983 10.6983 3.55298
597 2 0.391266 10.6991 7.36715
596 2 1.94496 10.8296 5.29828
574 2 1.97641 9.18463 3.54744
1102 1 1.9106 9.04459 7.23191
1101 3 0.229642 9.01697 5.4868
38 2 3.46769 10.7835 7.05179
578 1 3.72468 10.8937 3.57279
577 1 5.50423 9.01106 3.70143
1106 2 7.3399 10.8575 7.27568
1104 3 5.36396 10.8499 5.308
1103 3 3.52988 9.08093 5.37376
1084 1 7.29316 10.7673 3.54582
1597 2 7.27911 8.89622 5.37253
1596 3 5.41149 9.22054 7.03684
39 3 10.7477 10.8712 7.20852
599 1 8.92609 10.7394 5.3496
579 1 10.9741 10.686 3.56648
1107 2 8.8501 8.98314 7.07604
1578 2 8.999 9.07626 3.55492
2097 2 10.8247 9.1551 5.4111
1108 2 12.492 10.8231 5.5036
1598 2 12.5772 8.82981 7.04094
1579 2 12.5184 8.80608 3.57109
2072 3 14.1896 10.7812 3.65642
2099 2 14.2174 10.9029 7.33867
2098 1 14.3725 8.96479 5.39888
1599 1 16.0737 8.89364 7.14371
1580 1 16.0254 8.95541 3.66762
2100 2 15.9399 10.7418 5.63782
3093 2 17.9827 10.7026 7.37396
3597 1 17.8382 9.17499 5.58082
3573 3 17.7229 10.7588 3.89201
1110 3 0.133459 14.2607 7.32121
1582 2 1.90362 12.5197 3.68343
2103 2 1.82613 12.5987 7.30035
2102 1 1.7125 14.2939 5.46572
2101 1 0.144931 12.535 5.50132
2573 3 0.119568 14.2811 3.50467
1112 1 7.35065 14.4035 7.23461
1600 3 5.3775 12.52 7.21691
2104 3 5.48614 14.2868 5.27903
2083 1 3.68606 14.4166 3.53405
2601 1 7.13637 12.4311 5.40236
2600 3 3.59755 12.6317 5.53573
2599 2 3.66537 14.3161 7.16079
2577 2 7.3399 14.3052 3.58054
2574 3 5.58539 12.5485 3.57311
2604 3 9.03933 14.386 5.49874
2603 3 10.5889 14.4027 7.30178
2602 1 10.7934 12.6403 5.32113
2578 2 9.06784 12.5202 3.66237
3097 1 8.96917 12.8011 7.38358
3072 1 10.8769 14.4707 3.51972
602 2 14.3605 14.4179 7.31901
1603 3 12.4101 12.642 7.25203
2605 1 14.2611 12.666 5.41644
2581 2 12.5386 12.5877 3.56858
3098 1 12.6281 14.4143 5.52067
3575 1 14.4692 14.2411 3.69942
1114 3 17.8987 12.3902 5.52519
1584 2 17.8854 14.1926 3.61882
2582 1 16.1319 12.4781 3.67553
3100 3 16.2639 14.1379 5.44696
3099 1 16.1134 12.4254 7.39733
3599 2 17.9576 14.1723 7.26309
582 2 0.219158 17.8943 3.82256
1605 1 1.92931 17.7478 5.39972
1604 2 1.83128 15.9403 7.26657
3104 2 0.245304 15.9544 5.49385
3103 2 0.244944 17.6603 7.43326
3576 2 1.83081 16.1025 3.71784
2087 1 3.76715 17.7651 3.70892
2607 2 5.44733 17.7549 5.38257
2586 3 7.23704 17.7812 3.62497
3107 3 7.14745 17.8743 7.29628
3106 3 5.48041 16.1008 7.35393
3105 1 3.72962 17.8133 7.15329
3602 1 3.60834 15.9464 5.58269
3601 2 7.14577 16.1047 5.38636
3577 2 5.41438 16.0282 3.57122
1091 3 10.8483 17.7755 3.77003
2107 3 8.82154 16.1178 7.33079
2608 1 8.93772 17.794 5.48398
3109 3 10.5522 17.9883 7.27888
3603 3 10.7407 16.0674 5.57819
3579 1 8.99498 16.1713 3.77382
41 1 14.2842 16.0509 5.38632
2610 3 12.5801 17.8668 5.34037
2609 3 14.3243 17.872 7.23982
2587 1 14.4812 17.9912 3.64799
3604 3 12.551 16.0959 7.22813
3580 1 12.5443 16.0388 3.78596
583 2 15.9243 16.0553 3.66659
1606 3 17.7653 17.8483 7.14173
2109 2 16.1016 15.987 7.20628
3112 1 16.2693 17.8515 5.43108
3110 3 17.8174 15.9518 5.2954
3582 3 17.9445 17.9736 3.63836
21 3 0.129143 1.83607 8.87123
604 3 0.0978358 0.108039 10.8546
2110 1 1.77791 1.80324 10.698
2589 3 1.87599 0.101474 9.0297
585 1 7.13315 1.97849 8.87911
1092 2 5.50957 0.180794 8.92076
1608 1 7.07403 0.160718 10.8317
1607 1 3.5573 0.31739 10.8327
2111 2 5.46243 1.81774 10.7686
2591 2 3.69431 1.87452 8.86904
1116 3 10.6856 0.100024 10.7618
2612 3 9.09563 1.95659 10.7697
2592 1 10.68 1.85508 9.01704
3587 1 8.89285 0.0909574 8.87837
587 2 14.3306 1.8841 8.89884
1609 1 14.2429 0.284493 10.855
2090 3 12.5091 0.141083 9.06618
2613 3 12.3965 1.92433 10.8201
26 1 16.1606 0.0886169 9.05192
2594 1 17.9407 1.93904 9.02184
3116 1 16.152 1.91375 10.7384
3115 3 17.8473 0.131831 10.7705
1093 3 1.9804 7.27051 9.1176
2091 2 1.92405 3.65533 8.87857
2615 2 0.232819 3.75344 10.5996
3118 2 0.289436 7.02237 10.8313
3117 2 1.94245 5.36665 10.6751
3089 2 0.149989 5.53267 8.95753
30 2 5.48162 3.61588 8.88396
45 3 7.13193 7.21239 10.6225
1096 1 3.6526 5.43024 8.98695
2112 1 7.19341 3.58677 10.7957
2616 3 3.62018 3.62173 10.6422
3091 2 7.38415 5.42338 8.82058
3608 1 3.70211 7.23879 10.7603
3607 1 5.42429 5.3515 10.5231
3591 2 5.50121 7.2813 8.92291
46 1 10.5196 7.24578 10.6881
1098 3 10.877 5.45642 8.86558
1591 2 8.93523 3.72711 8.91401
1588 2 8.99542 7.34509 8.76344
2113 1 10.6299 3.93059 10.7911
3609 1 8.86282 5.42337 10.6679
32 1 12.5898 7.3528 8.88034
34 1 12.6617 3.80383 9.02023
36 2 14.1415 5.46648 8.95458
609 1 14.2505 7.1012 10.6814
3119 1 14.3045 3.64903 10.8518
3611 2 12.4994 5.53301 10.7205
1120 2 17.7906 3.80518 10.8248
1615 1 18.0205 7.30388 10.6778
1593 1 17.9421 5.29132 9.04125
2093 1 16.1956 7.04235 8.97374
2595 1 15.8458 3.67031 9.01747
3612 2 16.0653 5.40748 10.7508
48 3 2.07571 9.03379 10.7107
2095 2 0.158887 8.87775 9.14815
2596 3 2.03275 10.8334 9.0021
3120 2 0.293606 10.7893 10.8354
37 2 3.63165 9.02922 8.9064
49 3 5.38264 8.84504 10.6897
612 2 7.19387 10.7991 10.6707
1105 1 5.38638 10.6615 8.96768
2096 3 7.17258 9.03248 8.93077
3121 3 3.81489 10.7543 10.9065
613 2 8.97563 9.04589 10.6426
598 3 10.7284 8.99884 8.9682
3613 1 10.868 10.6858 10.7609
3596 2 9.13141 11.033 9.10722
50 1 14.188 10.6942 10.8583
614 1 12.5815 8.81051 10.8209
2598 1 12.4127 10.8519 9.01005
2597 3 14.3579 8.93726 8.95293
51 2 17.8344 10.7013 10.8843
600 1 18.0402 9.00213 9.20969
1122 1 16.118 8.98373 10.7539
1109 2 16.0625 10.7377 9.00437
616 3 0.214383 14.3478 10.7318
601 2 0.14745 12.5149 9.00259
1123 3 2.0523 12.5499 10.9565
3094 2 1.93641 14.1753 8.9956
1124 3 5.53556 12.4898 10.7355
1111 3 5.52675 14.3233 9.08132
1619 2 7.18158 14.314 10.7185
1618 3 3.76822 14.3528 10.7944
1601 3 7.16007 12.5188 8.94414
3095 3 3.7171 12.4924 9.07097
617 2 10.8199 14.2781 10.9777
1125 1 9.01075 12.548 10.8551
3096 1 8.91475 14.364 9.2115
3598 1 10.889 12.7649 9.07293
1126 1 14.2951 14.3495 10.7555
1113 3 12.6183 14.2298 9.02721
1620 2 12.5034 12.5323 10.9375
1602 2 14.5386 12.5448 9.08994
1621 1 16.2041 12.501 10.7903
3126 2 17.7009 14.2833 10.8316
3102 1 15.9902 14.5265 9.02049
3101 1 17.7431 12.4639 9.18279
1623 1 0.0159785 17.9687 10.5664
2119 1 1.88915 16.1546 10.7371
2606 1 1.89587 17.8179 9.02677
3600 2 0.0840596 16.0927 9.03223
40 2 7.22605 16.0625 9.13172
619 2 3.65497 17.8207 10.7541
1127 2 7.15059 17.9134 10.8266
2120 2 5.53282 16.1537 10.868
2106 3 3.59129 15.9707 8.94114
2105 1 5.26491 17.8492 9.01263
1624 1 10.6223 17.8579 10.7857
2108 2 10.7289 16.1496 9.03065
2625 2 8.8524 16.2522 10.8518
3108 2 8.85289 17.9505 9.08746
603 2 14.2673 16.0813 9.07926
1115 3 12.5751 17.7548 8.97955
2626 2 12.6202 16.1467 10.8535
3620 2 14.4576 17.9438 10.9206
2628 2 15.9706 16.1733 10.9166
2611 2 17.8887 16.02 9.01784
3127 3 17.9557 17.8339 10.6399
3111 1 16.0976 17.6731 8.90776
42 1 0.133775 1.8409 12.6847
2121 1 0.0313146 -0.0423634 14.2394
2629 3 1.91792 1.81964 14.2492
3113 2 1.94507 0.249324 12.5481
43 2 3.61606 1.97043 12.4605
605 1 7.16741 1.78543 12.5377
1625 3 7.19577 0.0654158 14.2145
2123 1 3.59941 0.207583 14.2564
3128 1 5.61019 1.86764 14.4056
3605 2 5.31223 0.129672 12.52
606 1 10.7723 1.81833 12.5343
1627 1 10.6835 0.308478 14.3127
3129 2 8.87768 1.96692 14.3199
3606 2 8.82327 0.0618258 12.4895
1117 1 14.3632 1.86655 12.6212
2632 3 14.5198 0.118798 14.2697
3131 2 12.5618 1.85098 14.2012
3114 1 12.4038 0.0299482 12.4467
44 3 16.2185 0.128057 12.5519
501 2 17.9214 0.129389 14.2641
2614 2 17.9151 1.90657 12.29
3132 2 16.2222 1.94123 14.1228
607 1 1.75395 3.53766 12.5503
1119 3 2.06685 7.20555 12.4567
1118 2 0.133434 5.41864 12.6592
2634 3 0.37305 7.15071 14.2981
2633 2 0.245918 3.60743 14.3256
3624 3 1.9476 5.15809 14.2653
60 1 7.15354 7.02421 14.3139
608 2 5.32939 3.56533 12.3627
1612 3 7.07167 5.42205 12.5299
1611 1 5.55428 7.10533 12.5377
1610 1 3.73368 5.57116 12.5089
2128 3 7.21461 3.5843 14.3499
2126 1 3.59529 3.50384 14.4102
3136 3 3.723 7.25877 14.3167
3626 3 5.32431 5.24165 14.3714
1613 2 10.67 5.54288 12.5528
2114 2 8.8296 7.24318 12.3939
3137 1 10.6726 3.74832 14.4071
3629 1 8.82764 5.45224 14.1337
3628 1 10.6648 7.22985 14.3083
3610 2 8.9761 3.62471 12.4198
610 3 12.4243 3.73347 12.4716
1614 3 14.3314 5.43198 12.5843
2617 1 12.4488 7.15111 12.7441
3138 3 14.4441 3.73188 14.2396
3631 2 14.2847 7.4156 14.2877
3630 2 12.5422 5.39152 14.2527
47 3 18.1143 5.65861 12.5707
65 3 16.1723 5.5996 14.2336
1138 1 17.8393 3.73872 14.268
1121 1 16.2721 3.82865 12.5561
2618 2 16.1042 7.26832 12.5585
3140 3 18.0121 7.24805 14.4854
67 1 1.96325 8.9406 14.248
611 2 2.17637 10.7792 12.6474
2115 1 0.307421 8.99893 12.5264
2636 2 0.137254 10.6947 14.2569
69 3 7.1547 10.7216 14.3442
70 1 5.4472 8.86029 14.3868
1616 1 5.42421 10.7894 12.3822
2116 3 3.86825 8.9126 12.5452
2619 2 7.18434 9.00863 12.514
3633 3 3.77745 10.7463 14.3622
71 3 8.86589 8.96804 14.2454
2117 1 8.88218 10.6861 12.5552
2620 2 10.7436 9.02657 12.5373
3141 2 10.6851 10.6135 14.4031
510 2 12.5434 9.05653 14.3387
1617 1 12.5258 10.5485 12.6371
3122 1 14.4023 8.90147 12.513
3635 1 14.4307 10.7013 14.5284
511 1 16.0759 8.96437 14.2529
615 3 17.9107 8.98706 12.5062
1639 1 17.7865 10.7798 14.3943
2118 3 16.1337 10.8266 12.4681
513 1 0.139849 14.3763 14.451
514 3 2.0446 12.6502 14.3186
2621 2 0.233062 12.4409 12.5742
3123 2 1.9463 14.3829 12.6601
72 3 7.18179 14.3096 14.3577
515 1 5.50957 12.5746 14.387
516 1 3.75243 14.4434 14.2975
3125 2 7.34183 12.6005 12.584
3124 3 3.87564 12.7134 12.6117
3614 2 5.57563 14.3623 12.6001
73 2 10.7085 14.2134 14.2476
1145 3 8.96976 12.487 14.3196
3616 2 10.8107 12.3479 12.5941
3615 3 9.01513 14.3609 12.6673
1147 2 12.4974 12.42 14.4349
1146 3 14.3619 14.3094 14.2743
2622 1 12.5546 14.2988 12.481
3617 1 14.199 12.5914 12.6861
1149 3 16.1823 12.5305 14.2002
1622 1 17.9496 12.5547 12.5604
3146 3 17.8376 14.3162 14.2819
3618 2 16.1171 14.4053 12.5183
52 2 0.148588 16.1775 12.4975
518 1 0.138588 17.8809 14.3451
1150 3 1.95483 16.1878 14.2953
2623 3 2.04379 17.9528 12.5388
53 2 3.73116 15.9961 12.4408
618 3 7.32655 16.1052 12.5051
1151 3 3.70881 17.8719 14.5405
1642 3 5.45854 16.0535 14.245
2142 3 7.19798 17.9537 14.4406
2624 1 5.53692 17.8921 12.4005
54 2 10.8317 16.0683 12.5448
1643 3 9.03523 15.9657 14.4046
2649 2 10.6615 17.7011 14.4926
3619 1 8.9921 17.979 12.7015
55 1 12.4505 18.0177 12.5447
620 2 14.2727 16.0138 12.6195
1646 3 12.4009 15.9964 14.2683
1644 1 14.2768 17.9473 14.0822
56 2 16.2055 18.1015 12.5098
1647 3 16.2262 16.1816 14.3276
2627 1 17.906 16.0494 12.5035
3644 1 17.9637 17.8787 14.341
57 3 1.91797 -0.0636182 15.9971
621 3 0.212904 1.79717 16.1133
1128 3 0.34012 0.220081 17.9456
2122 1 1.94197 1.89756 17.9699
58 1 5.37157 0.23186 16.04
1132 2 7.14223 0.0354212 18.032
1131 1 7.26853 1.92865 16.1647
1130 3 3.54298 0.186143 17.8704
1129 3 3.5914 1.80501 15.9703
2630 2 5.62837 1.77766 17.8106
1133 1 10.549 1.9847 16.0678
1626 1 10.6101 0.127083 17.9261
2631 2 8.83303 1.87792 17.9381
3621 1 8.92892 0.140914 16.0156
59 1 12.3066 0.126773 16.167
1134 2 14.2667 1.94033 15.9136
2124 1 14.4048 0.309294 17.8912
3130 3 12.561 1.96328 17.7015
502 3 16.078 0.0925012 15.993
3133 3 15.9485 2.04184 17.7042
3623 3 17.808 0.297543 17.8405
3622 3 17.8429 2.13017 16.0467
503 2 1.92122 3.78135 16.1425
504 2 2.00094 7.22617 15.9953
1628 1 0.21214 5.50886 16.1863
2125 3 0.0958447 3.65692 18.0033
3134 1 0.297056 7.31903 17.7768
3625 2 1.87698 5.61583 17.806
61 3 5.4479 3.61975 16.1265
505 2 3.75297 7.26967 17.8978
1135 1 7.11334 7.16144 17.8519
1631 2 5.38727 7.1608 16.1068
1630 1 3.75097 5.37547 16.1627
1629 1 7.0643 5.44752 16.0993
2127 1 3.61877 3.54689 17.9655
3135 2 7.03326 3.713 17.8781
3627 2 5.40662 5.61118 17.8781
62 3 8.87249 5.38747 17.739
63 1 10.6464 7.27436 17.8284
506 3 8.95065 3.69559 16.1024
1632 2 10.8034 5.58462 16.1454
2129 3 9.04279 7.1068 15.9661
2635 2 10.8052 3.64549 17.8671
64 1 12.4501 5.33196 17.9649
1137 2 14.1901 7.22305 17.7912
1136 2 12.5437 3.79427 16.1482
2131 3 14.3967 5.53615 15.8337
2130 1 12.6143 7.1599 16.0719
3139 1 14.4252 3.83126 17.6756
66 1 17.8667 5.55342 16.0615
507 2 16.1734 5.51336 17.6576
1140 2 17.964 3.72364 17.6763
1139 1 16.227 3.69567 16.081
1634 3 17.9792 7.25781 17.9053
1633 1 16.0298 7.32551 16.1723
508 2 1.95359 9.04634 17.9017
1141 3 1.90573 10.7899 16.1045
2132 2 0.253199 8.91406 16.0685
3632 3 0.351029 10.7359 17.8901
68 3 3.76545 10.7094 17.9854
509 1 7.28717 10.7179 17.9988
1142 2 5.48851 9.05689 17.9583
1635 1 5.56976 10.7269 16.2521
2134 2 7.22987 8.91345 16.1089
2133 3 3.6993 8.99456 16.1564
1143 3 8.92008 8.90111 17.7556
1636 1 8.81149 10.5851 16.0215
2637 2 10.7166 8.82272 16.0451
3634 1 10.6869 10.6709 17.7235
1144 3 12.427 10.779 16.1107
1638 3 12.4095 8.96403 17.6311
1637 3 14.2567 10.7302 17.8481
2638 1 14.4132 9.02519 16.0838
512 1 17.9692 8.95108 15.9798
1640 2 15.9888 8.86025 18.1225
2135 2 16.1374 10.6646 16.2605
2639 1 17.8677 10.6457 17.7927
2137 2 0.294561 14.3737 17.9821
2136 2 1.9337 12.5082 17.9284
2641 3 1.99453 14.2534 16.0546
2640 3 0.309364 12.6262 16.294
2140 2 7.26121 14.2195 18.1408
2139 2 3.72411 14.1793 17.8795
2138 2 5.69633 12.3997 18.0647
2643 3 5.46447 14.297 16.1747
2642 1 3.86149 12.3742 16.178
3142 1 7.37542 12.5384 16.0781
2141 1 9.07045 14.3284 16.2367
2645 2 8.91637 12.3731 17.9363
2644 2 10.6982 14.3054 17.7942
3143 3 10.4809 12.4466 16.1882
2647 3 12.3652 14.1692 16.0032
2646 1 12.385 12.6032 17.7152
3145 1 14.1888 14.3138 17.8752
3144 2 14.3566 12.5772 16.1149
517 2 17.8769 14.3619 17.7855
1148 1 17.9894 12.6302 15.8912
3148 3 16.0598 14.3079 15.9547
3147 3 15.9906 12.4974 17.8646
2648 2 1.91447 17.9043 16.2617
3150 1 1.83819 16.0815 18.031
3149 1 0.321233 16.0757 16.1836
3636 1 0.0997472 17.8389 17.9538
1641 1 3.67528 17.9415 17.7506
2143 1 7.23488 17.9261 17.8843
3640 1 5.4872 17.8982 16.2291
3639 3 7.26051 16.0129 16.1866
3638 2 5.49797 16.141 17.9303
3637 2 3.74398 15.9074 16.1327
74 3 8.8568 17.9508 16.166
519 1 10.6279 17.9533 18.011
3642 3 9.0512 16.1097 17.8929
3641 1 10.6895 16.1138 16.1285
75 1 12.4849 16.0006 17.8004
76 3 12.4661 17.8827 16.0814
1645 3 14.3559 17.8199 17.7315
3643 2 14.2579 16.0268 16.1657
77 3 16.019 15.9483 17.8883
2144 3 17.8732 16.112 16.1732
2650 1 17.8159 17.8928 17.9433
3645 3 15.9207 17.8359 15.9999
520 3 0.0921253 0.0601826 21.4659
78 2 0.0605341 1.83747 19.674
2145 2 1.9014 1.81791 21.3774
3151 3 1.91891 0.18812 19.7645
521 2 3.64047 0.0753928 21.3949
80 1 3.78137 1.79529 19.6239
79 1 7.23922 1.83577 19.6449
2147 3 5.39913 1.7692 21.3997
2146 3 7.26992 0.281271 21.4693
2651 3 5.40807 -0.0356976 19.7085
81 3 10.8584 1.83622 19.6811
1648 2 10.9178 0.114123 21.6009
2652 2 9.11692 1.98036 21.3903
3152 2 8.99894 0.128468 19.6979
522 1 14.2262 2.04041 19.6131
1649 3 14.4387 0.134371 21.3794
2653 3 12.7317 1.92912 21.356
3646 3 12.5985 0.278288 19.5892
82 2 17.998 0.316726 21.376
2654 2 17.9268 2.05302 19.5965
3153 3 16.1825 1.98275 21.3462
3647 1 16.2836 0.107825 19.6318
523 1 0.213445 5.40649 19.6361
84 2 1.95077 7.29329 19.6981
83 3 0.1688 7.14932 21.4608
1650 3 0.0926073 3.5716 21.4206
3155 1 2.00006 5.43823 21.4126
3154 3 1.92033 3.5969 19.682
524 3 3.66702 5.41248 19.6445
525 2 7.0252 5.42842 19.6706
526 2 3.63485 7.18822 21.3434
1153 2 7.24915 7.20824 21.4194
1152 2 5.34913 7.283 19.726
2655 2 3.67018 3.57858 21.3508
3156 2 6.90876 3.65699 21.3818
3649 1 5.38121 3.61956 19.6341
3648 1 5.45049 5.52377 21.3563
86 3 10.794 7.14294 21.328
85 1 8.9703 3.52085 19.5671
1155 2 10.6195 5.31941 19.5903
1154 1 8.99215 6.99984 19.7688
2656 2 10.7558 3.58908 21.3896
3650 1 8.69472 5.42547 21.3538
527 2 12.5804 7.16415 19.7187
88 3 12.4671 5.31566 21.2445
87 2 12.4973 3.68643 19.5774
1156 2 14.3946 5.29259 19.4138
2148 2 14.3755 7.23804 21.4611
2657 3 14.381 3.74855 21.3519
528 2 17.9025 3.69579 21.427
89 2 16.1753 5.22388 21.4692
1157 3 16.0007 7.28185 19.6721
3158 1 17.8205 5.26707 19.5687
3157 1 17.8626 7.01721 21.3161
3651 2 16.2097 3.6329 19.5612
529 2 1.99384 9.03133 21.5651
530 2 1.9499 10.7937 19.7791
1158 3 0.313489 8.99317 19.6368
3652 2 0.186732 10.7262 21.4814
531 1 5.55516 8.894 21.6279
532 3 5.50273 10.5697 19.817
533 1 7.28711 10.7093 21.4482
1159 2 3.6482 8.97378 19.6468
1651 1 7.26999 8.63995 19.61
3653 1 3.7043 10.746 21.6302
90 1 9.05452 10.6711 19.7195
1161 3 8.86179 8.70792 21.4818
1160 2 10.6865 10.7324 21.5055
1652 3 10.7035 8.85119 19.5964
534 2 12.433 10.5783 19.5637
1162 1 12.5126 8.99697 21.4271
1654 3 14.15 10.8315 21.4821
1653 2 14.2485 9.06131 19.7528
1656 3 16.034 10.7983 19.5007
1655 1 15.9724 9.05565 21.3469
3159 2 17.8412 10.8386 21.2323
3654 2 17.8537 8.98788 19.7258
1660 3 0.164564 14.2958 21.6085
1659 3 1.89304 14.4109 19.6469
1658 1 1.99421 12.3714 21.3972
1657 1 0.217609 12.5226 19.7963
1163 2 5.58862 14.3067 19.6247
1661 2 3.75955 14.2307 21.4417
2151 2 7.2768 12.3417 19.8466
2150 1 5.56176 12.5339 21.4009
2149 2 3.93112 12.4754 19.7013
3160 2 7.45544 14.3962 21.4091
1662 1 8.92757 14.2294 19.6873
2153 1 9.14565 12.5562 21.3527
2152 1 10.7428 12.5908 19.4305
2658 3 10.8435 14.2144 21.5769
2155 3 14.242 12.5252 19.629
2154 2 12.543 14.3875 19.6716
2660 3 14.2626 14.3085 21.4973
2659 1 12.4364 12.4678 21.4707
535 3 17.8371 12.6481 19.414
1164 2 17.985 14.2326 21.3513
2156 2 16.015 14.1774 19.6834
2661 1 16.0808 12.4573 21.3741
1165 2 0.123004 17.7652 21.4702
2157 2 1.9045 17.9613 19.5836
2662 3 0.138229 16.1344 19.7284
3161 3 1.92502 16.0172 21.4427
1664 2 7.14372 17.8897 21.4344
1663 3 3.50691 17.8184 21.3638
2664 3 3.69453 16.1018 19.6455
2663 3 7.24299 16.1606 19.5962
3163 3 5.57871 15.9536 21.3836
3162 3 5.47971 17.9008 19.7186
536 3 10.7527 17.8911 21.5512
2665 3 10.78 16.062 19.6076
3164 3 8.9986 17.9648 19.8323
3655 3 9.03738 16.0723 21.4584
2666 3 12.5166 17.8259 19.6655
3166 1 14.245 16.0554 19.6569
3165 3 14.2307 17.9709 21.4296
3656 2 12.5891 16.1117 21.4732
92 2 15.9665 16.056 21.3748
91 1 17.8051 17.8511 21.2646
1166 2 17.6743 16.0219 19.7012
3167 2 16.0239 17.9076 19.5019
93 3 1.87001 1.74382 25.029
1665 1 1.86622 0.226547 23.1938
2667 2 0.118796 0.000254884 24.9124
3168 1 -0.0410532 1.90074 23.2544
2158 2 5.52247 0.0746439 23.2889
2670 2 3.62041 0.154206 25.05
3170 1 7.23666 2.05882 23.0426
3169 1 3.50591 1.72164 23.2234
3659 2 7.09666 0.109626 24.9514
3658 1 5.36167 2.00675 24.9972
537 3 8.98003 1.89943 24.9683
2671 3 8.86315 0.0970453 23.377
3171 1 10.7321 0.0646909 24.9572
3660 1 10.8681 1.9363 23.1158
2673 1 12.4686 0.00288031 23.3316
3663 1 14.2358 2.12175 23.178
3662 3 14.2296 0.096834 24.921
3661 1 12.4586 1.8496 24.8424
539 3 16.1661 1.98126 25.0165
1167 2 17.8646 -0.000175561 24.9258
1668 1 17.8654 1.80742 23.2606
2160 1 16.1062 0.238175 23.2195
99 3 1.99543 5.19506 25.0118
98 1 2.01051 7.12198 23.2424
97 3 0.111129 7.10176 24.9667
96 2 0.250344 5.43924 23.265
3173 1 1.99802 3.54678 23.1643
3172 2 0.0735518 3.60711 24.9301
540 1 3.67219 7.12107 25.1692
541 3 5.47661 7.2372 23.1951
542 3 7.03812 5.3657 23.1546
543 2 5.32305 5.37157 25.0595
101 1 6.97834 7.10345 25.0299
100 2 3.68391 5.40103 23.2335
2675 1 7.19908 3.63997 24.9433
3175 3 3.52107 3.55352 25.064
3665 2 5.34619 3.54364 23.0025
546 1 8.90266 6.96559 23.26
547 1 8.93633 5.26859 24.9177
102 2 10.6744 5.35976 23.0649
1170 2 10.7146 7.19065 24.9054
3177 2 10.7269 3.60995 24.811
3666 1 8.94103 3.61949 23.0284
548 1 14.3357 5.38088 23.055
549 3 12.4629 5.62716 24.9789
105 1 14.1635 3.68314 24.9947
1670 2 12.5035 7.07286 23.0364
3179 1 12.5328 3.71759 23.0979
3667 2 14.4035 7.11028 24.7462
1172 1 16.3306 5.52133 24.8707
1672 2 17.9376 3.59939 24.8023
1671 3 16.2026 7.15419 23.0206
2678 2 17.8914 7.24267 24.7961
2677 2 17.9275 5.23529 23.0808
3668 1 16.1978 3.80717 23.2628
550 2 0.19773 8.96182 23.2435
106 1 1.80796 10.6905 23.2424
1175 2 1.84708 8.83608 24.9606
3669 2 0.133354 10.8544 25.0283
108 2 5.54061 10.7583 23.2322
1180 3 7.2007 10.8107 25.0824
1178 3 7.17786 8.98584 23.407
1177 3 3.62302 8.87396 23.2441
1176 2 5.399 8.97934 25.0217
3670 3 3.52321 10.7049 24.9603
551 1 10.8422 10.9081 25.0296
552 2 8.89865 10.7415 23.3408
1181 1 8.95625 8.84533 25.0831
1674 3 10.5512 8.78944 23.1273
1182 3 12.5384 10.7419 23.277
1676 2 12.3502 8.95731 24.9597
1675 2 14.1954 9.03578 23.1182
2163 1 14.3119 10.6524 24.9715
1183 1 16.104 8.88361 24.8312
1677 2 16.0626 10.8398 23.1084
2165 1 17.7176 10.8084 24.8297
3671 1 17.675 9.10061 23.0334
555 1 0.250064 14.3432 24.9412
1184 3 2.07253 14.1652 23.1607
1678 1 1.91584 12.5616 25.0005
2166 1 0.329729 12.4645 23.2947
113 2 7.31537 14.4018 25.0592
1185 3 5.21458 12.5914 25.0778
2170 3 5.47903 14.3323 23.2235
2169 2 3.64426 12.5673 23.082
2168 3 3.65267 14.384 25.0521
2167 1 7.22555 12.5365 23.2575
1680 1 10.753 14.2672 25.0969
2171 2 10.7125 12.5306 23.221
2682 1 8.97318 14.3768 23.2467
2681 2 9.02386 12.5172 24.9097
114 3 14.356 14.427 25.0856
1681 2 12.6209 12.5469 24.9735
2684 2 14.3193 12.4585 23.1374
2683 3 12.4412 14.2761 23.2606
557 2 17.7288 12.5459 23.0547
2173 3 16.0202 14.1608 23.1781
2685 2 15.8394 12.3862 24.9267
3183 1 17.8472 14.4248 24.8114
1684 3 1.91448 16.1731 24.9545
1683 3 2.14025 17.9475 23.2073
2688 1 0.167342 16.1103 23.2153
2687 1 0.157575 17.7947 24.767
2175 2 7.13243 17.7755 25.0709
2174 1 5.32999 17.8444 23.1609
2689 1 3.72821 17.8956 24.944
3187 1 5.50327 16.103 24.9148
3186 3 7.22321 16.0794 23.1808
3185 1 3.55638 16.0474 23.122
1687 3 8.87128 17.7717 23.1527
1686 2 9.03513 16.1718 25.0471
2177 2 10.7046 18.0414 24.9535
3675 2 10.8314 16.0604 23.3238
2178 1 14.1785 17.8529 25.0393
2690 1 12.5941 17.8487 23.2655
3188 1 12.3108 15.8947 25.0773
3676 2 14.196 16.0387 23.1889
1187 3 17.7897 16.1451 23.1622
1186 3 17.8785 17.8639 24.8912
1689 3 15.9821 16.057 24.9515
3189 1 15.8479 17.8164 23.2674
1188 1 -0.00675323 0.185591 28.7105
2180 3 1.97676 1.98104 28.7987
2668 1 1.89103 0.0232716 26.8689
3657 3 0.105893 1.7926 26.8413
559 3 7.24004 0.0521723 28.6795
94 3 7.14864 1.85613 26.7112
1189 1 3.56594 0.18434 28.518
1666 1 5.38831 0.0466493 26.725
2181 1 5.42047 1.81002 28.5069
2669 3 3.50663 1.86209 26.8406
560 3 10.8243 0.124971 28.5776
95 2 8.97718 0.0818889 26.7975
2182 1 9.06809 1.75673 28.558
2672 2 10.7959 1.92619 26.7066
538 1 14.2728 1.94918 26.7764
1667 1 12.6383 0.186583 26.7908
2184 3 12.5134 1.97334 28.6967
2183 1 14.367 0.0483106 28.6955
2159 3 18.0507 1.90752 26.7257
3193 2 16.2101 2.0803 28.4385
3679 1 17.6924 0.237667 28.5607
3664 3 16.1024 0.188279 26.6766
1168 3 1.75201 3.64429 26.9534
1669 2 1.98064 7.16534 26.8363
2186 2 0.0626963 7.26688 28.6161
2185 3 0.0743111 3.84628 28.5827
2674 3 0.222679 5.40127 26.7041
3194 2 1.91503 5.37961 28.5938
544 3 3.58928 5.29171 26.8173
563 1 7.24784 7.1541 28.4294
1691 3 7.22478 3.56354 28.3911
1690 1 3.72916 3.52902 28.627
2676 2 7.0256 5.35044 26.7948
3196 2 3.64608 7.23956 28.6798
3195 3 5.39251 5.4342 28.7082
3176 1 5.47915 3.57257 26.7087
3174 1 5.44862 7.19362 26.883
545 1 10.7888 5.33353 26.7084
1171 2 9.08667 3.56831 26.6378
1169 1 8.93722 7.13369 26.786
2694 3 10.6907 3.49834 28.4411
3197 1 9.16977 5.20146 28.389
3681 1 10.6289 7.15005 28.5365
104 1 12.4998 3.81613 26.6906
103 3 14.457 5.44433 26.737
2695 3 14.3017 3.6575 28.5396
3178 3 12.6329 7.25735 26.7112
3684 1 14.4088 7.2448 28.471
3683 3 12.5554 5.39276 28.4868
622 1 17.9121 3.67858 28.4404
1004 1 17.8289 7.21811 28.3806
1174 2 16.194 7.28311 26.6092
1173 3 17.9111 5.48524 26.6805
3180 3 16.2061 3.783 26.5895
3685 2 16.1347 5.46021 28.4716
1673 2 0.0765367 8.8538 26.8176
2161 3 1.85803 10.669 26.8304
2696 2 0.0575143 10.932 28.4873
3687 3 1.75682 8.98406 28.5555
122 1 7.10647 10.8235 28.6342
107 2 3.74522 8.9754 26.8984
1179 1 5.52741 10.618 26.7412