ITEM: TIMESTEP
5000
ITEM: NUMBER OF ATOMS
4000
ITEM: BOX BOUNDS pp pp pp
2.0075787576241666e-01 3.5897022124237438e+01
2.0075787576241666e-01 3.5897022124237438e+01
2.0075787576241666e-01 3.5897022124237438e+01
ITEM: ATOMS id type x y z
2589 1 7.40367 0.260124 7.15909
3598 3 16.2127 0.384588 12.5619
2724 1 7.17793 18.1853 10.7144
1 1 3.80798 2.16018 1.87537
2065 3 7.37172 1.87781 1.86833
614 2 7.44952 0.388547 14.551
596 1 12.8598 0.220725 8.85914
1578 3 12.7187 0.346818 5.38592
1086 2 9.12929 16.2019 0.245673
3567 2 9.12368 3.53754 1.87007
570 2 7.30272 3.85181 3.63436
1563 1 1.68562 0.279327 2.10126
3565 2 12.6508 0.36486 1.59803
2 3 11.148 2.1166 1.87959
2066 2 14.5841 2.01761 1.94235
1067 2 12.6802 2.05111 3.67114
3067 1 16.2408 2.02966 4.0279
2751 1 0.696179 17.89 17.9859
1577 1 3.71906 0.213912 7.29379
3568 2 16.6421 3.79017 1.87525
1126 3 16.453 16.3092 14.4026
1136 1 16.1855 5.64509 18.0961
3566 3 1.88631 3.64787 1.82132
1568 3 2.0572 7.59443 2.18681
2067 3 3.88801 5.54406 1.77827
2570 3 3.58683 3.79433 3.71603
1566 2 5.45642 3.7562 2.18776
3569 1 5.32121 7.40998 1.99557
3578 3 10.9243 0.352939 7.20483
615 1 14.5297 0.154172 14.4417
4 2 7.54945 5.58543 2.00792
2068 2 10.7381 5.44426 1.80836
806 1 18.041 7.50501 14.6522
1132 3 1.72828 5.62546 18.01
1567 3 12.8817 3.76295 2.00271
3570 3 12.6207 7.29574 2.09369
3564 1 5.52272 0.255354 1.93102
5 1 14.7297 5.35327 1.96259
1084 1 2.06351 16.2581 0.110027
1570 2 16.4753 7.4059 1.84877
1073 2 16.3462 5.41351 3.65623
595 2 3.71417 0.116012 11.0448
2106 1 0.283424 12.9805 12.6717
6 3 3.68913 9.31848 2.10277
3073 1 2.15509 9.20658 3.96698
659 1 3.73901 18.022 11.0585
1571 3 5.56926 10.8137 1.99843
1569 2 9.12261 7.35993 1.82509
2070 2 7.38561 9.25649 1.9317
3572 2 9.17371 10.8583 2.00943
3348 3 18.1517 5.63066 9.04075
7 2 11.0418 9.18359 2.08309
1077 1 12.5597 9.38245 3.87153
1572 3 12.8876 11.0535 1.98157
2071 3 14.417 9.0902 2.17781
3077 2 16.4461 9.25743 3.74638
3573 1 16.4023 10.9766 2.30905
582 3 14.4622 10.9573 3.81347
1576 2 5.48223 0.16381 5.352
2722 2 5.716 17.9612 9.10494
3837 2 17.8941 11.2278 7.26635
575 3 7.22543 7.3778 0.283172
2568 2 14.4585 0.186303 3.43585
3571 1 2.10556 11.0517 2.09788
1573 1 1.85363 14.4259 1.85243
3072 3 16.2055 5.60965 0.169069
2825 2 18.2077 7.45883 3.77117
2072 3 4.03703 12.8836 1.91706
3574 2 5.40887 14.5286 2.10536
9 2 7.54736 12.6926 2.12175
1703 2 5.65179 17.8772 5.79045
1595 3 5.65342 0.301419 12.5596
2582 2 10.7837 10.9735 3.91537
1081 2 9.2468 12.6659 3.89275
586 1 10.9293 14.3238 3.70708
2073 3 10.8253 12.5493 1.87074
10 3 14.5009 12.8737 1.91012
3081 1 12.738 12.7425 3.45701
1575 2 16.0494 14.5714 2.04478
3124 1 12.784 16.1193 14.2901
1083 3 16.2093 13.025 3.76085
62 1 11.0276 16.263 16.3372
663 1 11.012 17.7084 10.7928
1725 1 16.417 18.1381 9.19285
3083 3 2.01371 16.479 3.63718
2715 1 7.28812 17.8925 7.5599
11 3 3.66425 16.2152 1.99372
564 1 3.95283 0.304511 3.66169
1085 3 5.6138 16.255 3.83044
1565 2 16.2951 0.108206 2.09879
1574 3 9.15307 14.4985 1.94218
2075 1 7.546 16.2201 2.07211
12 2 10.8446 16.1386 1.86236
2871 2 17.7671 10.6412 14.3619
3575 2 12.5703 14.4674 2.06153
2076 1 14.5195 16.308 1.92876
258 2 17.7655 12.8247 2.12906
3087 2 16.2834 16.3697 3.87946
1768 2 18.1006 3.64682 7.24192
2126 2 14.2919 16.3282 16.4057
3063 1 1.89393 2.12984 4.04061
1089 2 1.80026 1.94767 7.28591
2077 2 3.90523 2.17423 5.58857
662 2 12.5321 18.092 9.17948
2119 2 0.272493 9.14334 16.3113
2061 3 17.9891 16.2738 16.4325
1564 2 9.17519 0.25312 1.88699
1065 1 5.54625 1.89141 3.57754
14 3 7.15708 1.93843 5.61807
3580 2 5.70106 4.0088 5.36726
3065 2 9.17064 1.9207 3.54315
2572 3 10.9699 3.80644 3.49711
623 2 0.140582 14.5533 14.4025
590 3 10.7442 3.6184 7.33314
2079 1 10.7133 2.05606 5.32921
3582 3 12.6342 3.63807 5.36968
2740 3 3.87691 18.0999 14.4096
16 2 14.3588 1.9214 5.47714
1582 2 16.3329 3.75041 5.79835
1583 2 14.3682 4.02382 7.17502
811 3 18.0273 14.368 14.2389
1069 1 1.72428 5.49439 3.9383
1579 2 2.02157 3.84451 5.84779
3583 3 1.93323 7.29701 5.75264
574 1 3.78742 7.22334 3.98719
3069 3 5.49789 5.54122 3.62185
17 2 3.6568 5.46113 5.60244
1584 2 5.48471 7.31304 5.48747
1071 3 9.3159 5.59111 3.86408
576 3 10.8373 7.21052 3.66445
1581 2 9.16178 3.74851 5.51838
2082 1 7.30452 5.51059 5.28374
3585 3 9.07988 7.47423 5.53706
2578 3 14.7762 7.12252 3.45883
19 1 11.0038 5.50326 5.76647
3071 1 12.723 5.58544 3.95106
2083 3 14.6829 5.62337 5.40051
572 1 14.6258 3.87045 3.84795
2085 1 3.60001 9.28482 5.6533
1587 2 1.86064 10.963 5.64399
592 3 3.70717 10.7495 7.50067
1075 3 5.43462 9.16664 3.80138
3588 2 5.47849 10.7798 5.46565
2580 1 3.67012 11.1058 3.76049
22 2 7.12231 9.08482 5.60064
2576 2 7.2838 7.41682 3.52204
580 3 7.31706 10.8962 3.88702
3075 2 9.03039 9.13594 3.71547
1589 1 7.04127 10.7711 7.31732
1585 1 12.6342 7.51475 5.16756
2592 3 14.4526 7.39589 7.15769
2086 2 10.6874 9.33171 5.44564
3589 3 12.773 10.9241 5.48666
3590 1 14.516 11.0949 7.16337
23 2 14.4829 8.97252 5.431
1586 3 10.9221 7.58469 7.31423
2087 1 12.8583 9.22297 7.076
2632 2 3.55607 3.65529 18.0253
3586 3 16.4621 7.15422 5.39368
1590 3 16.3465 11.0033 5.32803
3091 1 16.2743 8.94095 7.26437
2727 2 14.6245 17.9822 10.7275
1079 2 1.8737 12.8831 3.6146
1596 2 12.4947 0.00515672 12.3772
3591 3 2.04149 14.6157 5.52043
25 1 3.55725 12.7817 5.58311
3079 3 5.57928 12.7311 3.93031
1591 2 5.65229 14.3829 5.64153
2089 1 7.24058 12.6575 5.65626
1592 2 3.70682 14.5361 7.29803
2594 3 7.2956 14.712 7.5419
1588 3 8.97193 10.8932 5.51394
2090 2 8.96056 12.332 7.48101
3592 3 9.25045 14.2753 5.56588
26 3 11.0154 12.7409 5.68638
2593 1 11.034 10.898 7.60713
1593 1 12.8544 14.3507 5.79499
594 2 14.6223 14.257 7.40018
2091 2 14.5412 12.7322 5.48618
598 2 0.212289 3.6955 10.7155
2095 1 0.346768 1.80917 9.25527
1597 1 16.3008 0.362971 9.05664
2694 1 7.26764 18.1212 3.85384
2586 3 7.41261 14.2968 3.71443
2074 2 0.124882 16.2417 2.00847
584 3 3.85702 14.6756 3.84231
2092 3 3.76443 16.3395 5.5306
3085 1 8.84762 16.3123 4.03822
29 2 7.30976 16.2993 5.7133
3093 3 9.20588 16.3629 7.15901
2094 1 11.0473 16.2097 5.71267
2860 3 18.0799 14.4223 10.8051
680 1 14.5774 18.1593 14.2506
1087 1 12.6453 16.3769 3.74553
31 1 14.294 16.2599 5.61768
30 1 12.5909 16.2504 7.24382
2588 2 14.3984 14.643 3.79544
3594 3 16.4347 14.6749 5.62709
1095 2 16.2658 16.1744 7.20356
2125 1 7.51097 16.1108 16.4538
1144 3 9.05492 12.8054 17.9739
2599 3 2.01416 3.86435 9.15343
308 3 18.2 12.5784 16.3179
3095 1 3.65598 1.86672 9.15487
2598 1 14.3614 0.231177 10.9347
2078 3 5.44128 1.94688 7.41589
33 2 7.01166 2.294 9.06629
1613 2 1.97869 0.151908 16.2502
3096 2 9.03092 1.96211 10.845
3088 3 9.10627 1.99533 7.25813
599 2 9.03581 3.60859 8.84195
15 2 12.6555 1.99466 7.17767
1097 2 10.6867 2.02997 9.19086
1098 2 12.8051 1.88759 10.6774
1600 3 12.769 3.47323 9.07519
3123 1 5.60429 16.3425 14.4084
297 3 18.0193 16.1501 12.6515
1090 1 16.163 1.92994 7.14433
2098 2 14.5261 1.81509 8.84536
2602 2 16.185 3.77546 9.03112
601 1 14.6757 3.75318 10.9284
2081 1 2.24899 5.6748 7.64339
2590 2 3.72501 3.62313 7.6568
36 3 3.89152 5.66676 9.29184
3584 2 3.77133 7.50391 7.51939
3089 3 5.31436 5.72794 7.30841
3599 2 5.51764 3.83994 8.96397
602 2 5.64314 7.40289 9.22118
1100 2 7.29248 5.48077 8.92112
3581 2 7.28054 3.95554 7.20489
18 1 9.1076 5.56538 7.37037
591 1 7.16578 7.24854 7.28917
1603 1 9.09276 7.32713 9.24961
1101 3 9.30943 5.56357 10.637
1091 1 12.8181 5.54628 7.28631
2101 3 10.9637 5.30225 9.03371
2084 1 16.4215 5.58412 7.23011
3101 3 14.4856 5.71853 8.87446
3605 2 16.3277 7.42549 9.033
1102 3 16.2702 5.48182 10.7831
3090 3 1.88662 9.03863 7.29651
3602 1 1.7941 7.34555 9.06862
605 3 1.8492 10.9485 9.11459
61 2 3.85885 15.9412 16.2825
21 2 5.62186 9.02337 7.39821
1103 1 3.46995 9.27615 9.25735
2104 1 7.2599 8.90222 9.39275
1092 2 9.03345 8.996 7.37363
3104 2 10.7482 8.90656 9.11356
607 2 7.33584 10.8767 11.0801
3103 3 9.09236 9.04517 11.1222
2609 2 10.7354 10.8078 11.0425
2605 1 12.7616 7.37368 8.82748
3608 1 12.8834 10.6882 9.14492
604 2 11.141 7.14643 10.8311
3597 2 9.16276 0.354891 12.8173
42 3 14.4988 9.07256 8.71786
609 1 14.5004 10.9045 10.8421
3105 3 16.2961 9.22055 10.601
1623 1 1.92822 14.2772 16.2822
24 3 1.9208 12.8078 7.40573
2107 1 3.83653 12.6661 8.85576
1609 3 1.87249 14.3144 9.0903
1606 1 5.67061 10.7377 9.24203
1093 2 5.46571 12.5338 7.18425
2611 3 5.41346 14.5478 9.02607
610 3 3.62399 14.4472 10.715
2608 3 9.09098 10.6542 9.1351
3107 1 7.08799 12.7667 8.975
1108 3 8.84577 12.7311 10.7586
3611 2 9.11457 14.4795 9.01578
3593 2 10.8637 14.2747 7.31643
45 3 10.749 12.6887 9.13949
3092 1 12.588 12.5636 7.69758
1109 2 14.4626 12.8238 9.21369
1580 2 0.230887 3.89636 7.35851
27 1 16.2835 12.7101 6.97303
608 1 16.1272 11.0209 8.91063
1612 3 16.3634 14.1896 9.06718
1110 2 16.256 12.6168 10.7997
578 3 0.15777 11.1093 3.88289
3742 1 12.8299 18.178 16.1261
1094 3 1.82 16.1469 7.51348
3109 2 1.86843 16.063 10.7679
3110 3 3.7464 16.3493 9.05838
3135 2 2.02429 9.05663 18.0405
2093 1 5.32073 16.3585 7.43677
1111 2 5.49581 16.0236 10.8189
1688 1 2.03958 18.1905 2.03208
48 2 7.3183 16.1192 9.281
1112 2 10.9043 16.144 8.82701
3707 1 16.2005 18.0296 5.59579
801 3 18.1589 0.429532 14.2832
2124 2 0.391402 16.2929 16.3065
611 2 12.444 14.583 8.85541
2113 1 14.6024 15.9646 9.0098
678 1 7.10608 17.8148 14.7527
2123 1 10.9092 12.421 16.2904
3112 3 16.2059 16.0677 10.821
3121 2 9.39375 12.7695 14.2702
3094 3 1.88874 1.79185 11.1456
2600 2 3.59049 3.60058 11.0938
1598 1 2.01343 3.69509 12.5446
1704 3 3.59925 17.898 7.3373
653 3 14.2804 18.0354 7.45605
1096 3 5.62683 1.95386 10.9084
2096 2 3.70388 1.79507 12.7117
3600 3 5.44688 3.66159 12.6828
1621 1 5.35273 11.0025 16.201
600 1 7.67518 3.79868 10.8911
34 1 7.21479 2.08008 12.5704
1599 2 9.34742 3.70848 12.5999
2097 3 10.9604 2.00743 12.6441
2601 1 10.6729 3.5899 10.7588
1115 2 9.26631 2.06854 14.7815
1122 3 5.67318 12.829 14.4064
3601 2 12.4741 3.64861 12.5496
2122 1 3.83311 12.8297 16.1299
3614 2 5.68347 0.306087 16.3673
8 3 0.092718 12.7859 1.92187
3097 2 16.377 1.9748 10.8875
35 2 14.1554 1.9633 12.7301
1116 3 16.3356 1.94658 14.4234
2698 2 14.5286 18.0678 3.77367
1099 3 1.95965 5.53931 10.7838
3603 1 1.92066 7.34022 12.8147
37 3 3.71559 5.54735 12.6192
603 1 3.69019 7.50308 10.8103
3099 1 5.64449 5.43371 11.0927
2604 3 7.3847 7.15203 11.0813
2100 2 7.51458 5.28577 12.645
3604 1 9.1647 7.18371 12.4904
3116 3 9.28047 5.32718 14.5589
38 2 10.9415 5.47295 12.7489
2620 1 10.5863 7.18993 14.4431
3100 3 12.6739 5.02677 10.6619
2606 3 14.4199 7.22537 10.7479
1118 2 12.7984 5.33721 14.5486
1601 1 16.1058 3.70641 12.8537
2102 2 14.515 5.73593 12.6982
3606 1 16.3864 7.30659 12.4743
2618 2 14.5591 3.72534 14.5935
3117 1 16.3228 5.77891 14.3712
3102 2 2.09569 9.10197 11.048
1605 3 1.94502 10.8872 12.6402
1119 1 1.84831 8.89352 14.3999
621 2 3.91223 10.9196 14.1737
1602 3 5.4789 7.13784 12.6844
1104 3 5.46621 9.09791 10.8904
2103 1 3.90177 9.31571 12.7669
3118 2 5.6989 9.27097 14.3882
3607 1 5.67183 11.0622 12.7431
41 1 7.26601 8.93975 12.5704
2105 1 10.8882 8.88022 12.696
1607 1 9.15193 10.833 12.895
1604 1 12.6173 7.02891 12.7667
1105 1 12.7205 8.73971 10.7455
43 3 14.3588 9.12246 12.6839
3119 2 12.68 9.17809 14.3563
3609 1 12.6831 10.9001 12.1834
2603 3 0.384746 7.40131 10.8708
3577 2 9.06985 0.244068 5.54209
3724 3 8.79588 18.0212 12.9288
60 1 14.5754 12.6694 16.1217
1107 3 1.94941 12.571 10.9029
3610 2 1.88994 14.6902 12.7147
2607 2 3.71201 11.0078 10.7314
3106 3 5.4109 12.7098 11.0017
44 1 3.79957 12.9055 12.7333
1610 3 5.34944 14.5711 12.6202
2108 2 7.51429 12.6014 12.8494
624 1 7.13066 14.6532 14.3399
2612 3 7.28992 14.3682 10.6843
46 2 10.7159 12.7626 12.4738
3612 1 9.18172 14.4533 12.4857
625 3 14.5698 14.7239 14.5235
3108 3 12.4992 12.6718 10.6347
1123 2 12.5593 12.4913 14.5014
2625 1 10.9024 14.38 14.3473
2109 2 14.5077 12.7448 12.6732
2566 2 7.37061 0.195343 3.76785
1608 3 16.293 10.5916 12.6189
3122 2 16.3168 12.7632 14.6931
1625 1 16.4442 14.5833 16.3584
1124 1 1.93864 16.1728 14.5905
3624 2 5.76385 14.452 16.3389
2624 1 3.82271 14.6013 14.5242
1721 2 5.65748 17.7274 12.5766
2111 1 3.7377 16.208 12.6653
49 2 7.42752 16.1503 12.6418
566 2 10.852 0.360557 3.63767
3111 3 9.17949 16.1892 10.8511
1125 3 9.31705 16.0394 14.2019
2112 3 11.0867 16.3959 12.6331
612 3 10.8793 14.4675 10.7883
2613 3 14.4898 14.4035 10.8516
1113 3 12.725 16.1843 10.8485
786 1 17.8381 3.79918 10.8937
3120 3 2.02748 12.7849 14.3129
1611 3 12.7775 14.2214 12.7276
50 2 14.5221 16.3413 12.6196
2088 3 0.038773 12.9594 5.80937
3613 1 16.1969 14.4948 12.6749
2742 1 11.1702 17.9064 14.2824
2623 3 14.6211 10.8747 14.4531
1114 1 2.09952 1.84925 14.4571
3740 1 5.35761 18.1076 16.3277
2617 2 7.47087 3.65224 14.8201
3113 2 5.57858 2.15565 14.4094
616 2 3.64093 3.70024 14.4397
1616 3 5.48362 3.58084 16.4252
51 3 3.78032 2.07846 16.305
1706 1 12.4369 18.0666 5.46925
2115 1 7.36013 2.09891 16.4166
52 1 10.7951 1.90713 16.5393
3617 2 9.04265 3.97792 16.4992
617 2 10.9908 3.67616 14.5703
32 1 0.0883086 2.22166 12.8886
1624 3 9.21489 14.4491 16.0961
589 2 14.6482 0.270701 7.20852
3114 2 12.5892 1.81194 14.5964
2116 3 14.6772 1.90452 16.2436
3625 2 12.5825 14.4408 16.2574
59 3 7.26125 12.4726 16.1243
1121 2 16.195 8.76346 14.4231
2044 2 17.8485 12.5145 12.7042
3115 1 1.89265 5.80847 14.278
3616 1 1.92422 3.84813 16.2213
2117 3 3.63983 5.39129 16.1461
1117 3 5.51252 5.33288 14.5348
54 2 7.30358 5.55419 16.0793
2596 2 5.76195 0.123625 9.26233
3576 2 1.97812 0.446864 5.52496
1619 1 9.48845 7.45756 16.2798
619 3 7.33057 7.03627 14.3805
1617 3 12.6464 3.51502 16.1946
2118 2 10.8809 5.63435 16.3429
3620 1 12.5968 7.48268 16.0188
1622 2 12.8532 11.0599 16.3379
55 1 14.5564 5.54167 16.1824
3618 1 16.2297 3.62632 16.0538
1620 2 15.9706 7.11709 16.3888
3621 1 2.02237 10.6089 16.2696
1618 2 2.15732 7.36973 16.3955
2036 2 18.054 5.45631 12.6983
3619 3 5.54085 7.42099 15.9803
56 2 3.76322 9.08668 16.2072
2619 2 3.93803 7.46846 14.3701
2120 3 7.27737 8.99448 16.2217
2622 2 7.28378 10.9557 14.4192
620 3 14.4911 7.11464 14.4848
622 2 10.8769 10.6779 14.3715
3622 2 9.00148 10.746 15.9872
1120 2 8.90515 9.09777 14.3771
57 3 11.1466 9.34285 16.2202
3623 1 16.3248 10.8896 16.041
2121 1 14.4151 9.24436 16.139
794 1 18.1142 10.9198 10.8175
2690 2 0.207304 18.1891 3.73106
1740 2 9.2369 18.1206 16.1051
2587 1 10.8505 14.4227 0.210964
1742 2 16.1358 18.0569 16.3618
771 2 17.8169 14.1985 0.0603407
1074 2 1.86806 9.09473 0.349475
3141 2 5.56418 12.7225 18.008
1138 2 5.54901 9.10209 17.9746
2634 2 10.9796 4.03693 17.9605
2642 2 3.81374 10.7518 18.0232
585 2 7.07989 14.34 0.0785502
3084 2 5.3811 16.4336 0.359884
1064 3 1.99255 1.88074 0.22722
2638 3 7.24413 7.38769 17.9377
520 3 14.4173 10.9841 17.972
3076 3 12.695 9.08888 0.497737
3139 3 16.093 9.19357 17.9297
3129 3 16.2824 1.99372 17.9759
581 2 10.6896 10.7568 0.410704
3078 3 1.97771 12.6016 0.0924602
2583 1 14.6551 11.0047 0.138041
3068 1 1.80662 5.45192 0.308543
1142 2 1.95063 12.6576 17.7709
510 3 14.5963 3.78443 18.0546
3074 2 5.4887 9.13163 0.185217
518 1 7.34158 11.1563 17.985
514 3 11.0564 7.42386 18.0769
577 1 14.6451 7.35641 0.32026
829 3 17.9638 10.762 18.0276
2577 2 10.8501 7.15032 0.0115442
512 2 3.84404 7.37762 18.0445
516 1 0.429946 10.9761 17.7178
2695 1 10.8602 18.0743 0.323411
1628 1 1.96646 3.86719 19.7655
2127 2 3.63675 2.17884 19.8203
1127 3 1.9166 2.23207 21.5018
3629 3 5.5074 3.83391 19.8134
64 1 7.17845 2.21101 20.1682
3126 2 5.36722 1.90609 21.7517
1659 2 9.24278 -0.30382 30.6504
2575 1 3.68258 7.38762 35.92
1629 2 9.33992 4.01967 19.795
2633 1 7.45303 3.97046 21.3886
2573 3 14.6133 3.70237 35.7549
715 3 7.0872 18.1139 25.1086
508 1 7.34493 3.82139 18.228
2128 1 10.9452 2.29327 19.8961
65 3 14.4388 2.05598 19.6905
740 3 4.01515 17.8793 32.2222
871 1 18.0088 10.8315 32.2102
1131 2 16.3981 2.04688 21.494
1504 2 12.833 17.9556 19.9342
3787 1 13.0069 18.3559 30.6151
3143 1 12.8649 12.6924 17.8941
66 2 3.64797 5.52708 19.7236
3130 3 1.93437 5.55698 21.6978
2130 2 7.334 5.65851 19.5995
1133 1 5.52339 5.70988 21.5983
1631 3 5.36298 7.24318 19.8691
507 3 3.74509 3.7628 21.6884
105 1 0.302231 12.6157 30.4506
3632 1 9.0214 7.59515 19.7273
2154 3 0.14794 16.3805 23.2972
3132 1 9.01657 5.8035 21.3939
3630 3 12.7802 3.95674 19.6562
67 3 11.1203 5.7963 19.7031
2131 2 14.3969 5.64216 19.7083
1135 1 12.7849 5.80247 21.5576
2660 3 10.8162 0.0370731 28.7864
3660 1 16.2095 0.267268 27.0076
522 3 3.94926 14.3679 18.1255
1630 1 16.3923 3.74612 19.7879
3633 1 16.1567 7.35947 19.4423
125 1 14.4193 16.4496 34.0465
3657 2 2.07945 0.0492468 26.7912
3631 2 1.99759 7.21816 19.742
1137 2 2.01198 9.03418 21.5009
2132 2 3.79155 8.95264 19.6838
2652 1 14.3666 0.339328 25.1536
2134 2 0.250338 12.5487 19.6961
517 1 3.86241 10.8595 21.7345
2637 1 3.57329 7.31373 21.6115
3136 3 5.52776 9.00717 21.4783
3131 2 5.4634 5.53423 17.9041
3766 1 5.51374 18.0915 23.4401
69 3 7.39227 9.19568 19.6404
1634 1 9.42197 10.7258 19.8672
742 1 11.0815 18.0487 32.0708
2639 2 11.1809 7.34894 21.8464
1632 2 12.8295 7.45833 19.7829
2133 3 11.0946 9.01308 19.9852
3635 1 12.608 11.0342 19.9136
535 1 14.5056 0.305323 28.8117
1082 2 12.604 12.6311 35.8392
2179 2 0.234541 5.50402 34.0695
70 1 14.4866 9.39546 19.9247
1635 3 16.451 10.7773 19.8045
109 1 0.576302 16.2757 26.9716
1188 1 12.5863 15.8462 32.1684
1633 1 2.14853 10.7238 19.7121
3636 2 1.98998 14.2383 19.7909
2801 3 0.216255 18.1213 32.4096
3634 1 5.3654 10.9711 19.8447
71 1 3.73665 12.5981 19.7373
2135 3 7.24422 12.4179 19.8855
1143 3 5.42544 12.594 21.6777
1638 1 2.00592 0.427037 23.5419
3637 1 9.12304 14.4903 19.86
3142 3 9.00883 12.5672 21.4947
72 3 10.9101 12.626 19.8121
2656 1 0.258966 14.5952 25.0988
2787 1 12.842 18.2178 27.0798
1637 1 12.7893 14.4687 19.8241
2136 3 14.3831 12.7193 19.8025
1145 3 12.7418 12.348 21.7182
3125 1 1.80221 2.15822 18.0765
3144 2 16.6172 12.4347 21.6189
2650 2 14.4769 14.3946 17.875
2647 3 3.68239 14.4801 21.6155
1147 1 1.93624 16.3224 21.5465
348 3 17.9404 5.76928 30.4228
1513 1 2.08731 18.1588 23.3806
3788 2 16.2386 18.0029 27.0409
1636 2 5.43217 14.4042 19.8532
2137 3 3.87265 16.356 19.8344
2565 3 3.67638 0.124895 35.9793
3080 3 9.11045 12.6087 35.8702
74 3 7.38542 16.2121 19.8144
1149 3 9.25701 16.027 21.6956
2138 3 10.9134 16.0943 19.9033
2649 1 10.9036 14.5566 21.9324
75 3 14.3762 16.2593 20.1389
373 3 17.993 16.1675 34.3603
3148 2 12.7374 16.0801 21.6766
3638 2 16.2419 14.3733 19.9791
323 1 18.0182 16.2703 19.8088
3082 1 16.1434 12.4541 35.569
3803 1 9.2906 18.0235 34.1868
3133 1 12.8266 5.72821 17.6661
68 3 0.118281 9.07653 19.7874
76 1 3.59369 2.20438 23.5083
3642 3 2.04963 3.69958 23.3191
1150 1 12.8772 16.3394 18.0309
526 2 7.51272 0.207236 25.0638
344 1 18.1988 2.08502 27.1139
77 3 5.6278 1.99791 24.9147
527 3 3.69215 3.83393 25.1498
1129 3 8.99926 2.24745 21.7282
524 3 10.7764 14.2524 17.9444
2140 2 7.26806 2.11117 23.33
3128 2 12.9725 1.90093 21.7987
509 3 10.9056 4.03445 21.664
78 3 11.1235 2.01876 23.4123
2641 1 0.019144 10.8348 21.5635
1146 1 16.1056 12.6631 18.0732
2629 3 10.8541 0.322497 21.8401
2142 1 14.5946 1.83967 23.2233
80 3 1.95957 5.45812 25.0588
1645 1 1.93803 7.52636 23.4095
1646 2 3.76843 7.38777 25.2991
2805 2 14.3778 18.1916 32.401
1642 3 5.55522 3.68536 23.4595
2143 3 3.91354 5.40946 23.592
81 2 7.27458 5.62887 23.4929
1153 2 5.54087 5.66793 25.2225
2654 1 7.19747 7.21955 25.2161
3644 2 9.02751 4.06742 23.361
1647 3 9.08203 7.21223 23.2611
513 2 7.20549 7.34999 21.4491
2653 2 10.8916 3.70229 24.9481
1644 3 12.7431 3.95196 23.3853
2635 3 14.4034 3.75851 21.6076
2145 3 10.7609 5.76737 23.6479
3152 1 12.3692 5.42036 25.3757
3648 1 12.9038 7.39568 23.4426
3134 3 16.0794 5.52269 21.5994
3645 2 16.3579 3.57759 23.2411
82 2 14.5976 5.64149 23.2949
83 1 16.1843 5.41425 25.2364
84 2 3.59812 9.12864 23.5275
1154 2 1.69318 9.18653 25.1561
2655 1 3.78405 10.9038 25.21
3647 1 5.35687 7.24871 23.3487
2147 1 5.33647 9.15014 24.9667
2148 3 7.30621 8.98396 23.3829
519 3 10.9051 10.6823 21.6352
1139 2 9.18997 8.93841 21.7812
530 3 10.7936 10.7336 25.3301
85 1 10.7385 9.04094 23.3881
3138 1 12.9194 9.426 21.628
1651 1 12.711 10.8125 23.6991
2645 2 14.8758 11.0915 21.7526
1141 3 16.3235 9.22085 21.7121
2627 2 3.84056 0.0467529 21.3973
515 2 14.454 7.59473 21.6116
2149 1 14.5359 9.10361 23.4939
1648 2 16.4073 7.42214 23.5195
3687 3 8.8736 14.162 34.1715
3650 3 2.03761 10.8216 23.3164
3140 2 2.01171 12.542 21.7108
2150 3 2.08416 12.568 25.1051
2151 1 3.77233 12.7615 23.4141
2188 3 10.8449 16.0927 34.0238
1650 2 5.59658 10.828 23.2599
3654 2 5.25645 14.514 23.3149
2643 1 7.36626 10.6162 21.6949
88 2 7.54265 12.574 23.3131
523 3 7.19912 14.6044 21.4601
3651 2 9.14758 10.7495 23.5205
2152 1 10.8128 12.5423 23.4486
525 1 14.7423 14.2658 21.7379
3656 3 12.7186 14.2862 23.4788
1156 2 12.7672 12.7444 25.047
90 1 14.5322 12.7204 23.3939
2187 2 3.87211 16.2055 34.1639
3653 3 16.3211 11.0209 23.5901
1652 1 14.6029 11.0083 25.4137
2657 1 14.6641 14.6447 25.0826
2153 3 16.4554 12.696 25.3908
124 2 7.40145 16.2162 34.2105
1653 2 1.98583 14.4763 23.4766
91 1 3.66308 16.4149 23.2637
1626 2 5.4349 0.439874 19.8102
3655 1 3.77425 14.4241 25.1711
3155 2 1.895 16.2682 25.1958
98 3 0.433088 5.47452 30.5035
3146 2 5.55638 16.3753 21.6062
2155 3 7.41961 16.3101 23.5332
2146 2 0.295469 9.15695 23.1877
1532 3 2.13003 18.0233 30.6583
531 3 7.24923 14.3874 25.136
1654 1 9.29352 14.3442 23.3419
1157 3 9.24253 16.39 25.3539
1677 2 12.4361 0.189094 34.0189
87 3 0.125299 12.7801 23.2846
93 3 10.703 16.5205 23.407
1656 1 16.4459 14.5086 23.4991
2157 2 14.6496 16.2593 23.3713
1151 2 16.2687 16.2845 21.5436
3784 1 5.54368 18.1564 30.4619
1627 2 12.7883 0.33868 19.8209
2784 1 3.86135 18.1091 28.4585
573 1 0.300806 7.197 35.9392
3150 2 2.06988 2.00704 25.2421
1159 1 3.86884 2.05771 26.7702
536 2 2.2158 3.89983 26.8964
537 3 3.74634 3.76069 28.668
3157 2 5.58656 1.95794 28.7286
2159 2 7.27523 2.19597 26.8921
1152 3 8.93316 2.09074 25.2058
2662 2 9.35859 3.79198 26.9068
2517 1 18.2104 10.8272 21.7661
1076 2 9.01107 8.96663 35.9696
3158 1 10.845 2.04285 26.9948
2141 2 12.6868 2.15527 25.2807
694 1 7.31473 18.1579 21.4379
3159 3 12.6867 1.83759 28.7919
1066 2 9.20389 2.00755 35.8683
3151 3 16.0465 2.00707 25.2651
97 2 14.436 2.14301 27.0178
2162 2 3.59893 5.69349 26.9498
1664 1 1.80086 7.48483 26.7926
3160 1 1.81189 5.6116 28.5752
1643 2 7.2711 3.87244 25.1676
1661 1 5.4742 3.78263 27.0709
1163 2 5.47825 5.51112 28.5371
3161 2 7.36218 5.52898 27.0643
2665 1 5.70526 7.14569 27.1758
2144 3 8.99291 5.6617 25.2546
100 3 10.7458 5.48891 26.8879
3663 1 12.4164 3.54287 27.0468
3646 2 14.3342 3.75313 25.3011
1165 3 14.3875 5.55184 26.9776
539 1 16.1464 3.74572 27.1997
1667 3 16.5339 7.4982 26.7697
2341 1 18.1696 16.3773 23.4762
3163 3 16.359 5.81239 28.5287
3164 3 3.71486 9.04118 26.9522
1166 3 1.93698 9.08072 28.7562
3652 1 7.42149 10.773 25.1059
103 2 6.96465 9.23478 26.8508
3165 1 5.50179 9.19043 28.6213
3666 1 8.8485 7.37255 27.0583
3153 3 9.03866 9.11772 25.3602
1167 1 8.85141 9.1319 28.4035
545 2 9.01647 10.7997 26.948
3649 2 10.6706 7.42437 25.1211
86 2 12.7367 9.25821 25.2982
1168 1 10.9146 9.24358 27.0189
542 3 12.5263 7.32583 26.8453
3166 2 12.6389 9.20019 28.7088
1670 3 12.6343 10.9685 26.9812
529 3 14.6786 7.22819 25.2601
1155 3 16.3976 9.10042 25.2623
2168 1 14.7236 8.93976 27.0109
3185 3 2.14695 16.2344 32.4
2668 1 1.91842 10.8254 26.9852
106 3 3.76968 12.5624 26.7536
3154 1 5.64592 12.5968 24.8985
3669 1 5.62298 11.0236 26.6325
1171 2 7.30367 12.6403 26.9271
89 1 8.9978 12.8345 25.1893
1655 2 10.9636 14.4358 25.0723
1673 2 9.25594 14.4869 26.9913
2171 1 10.8304 12.9252 26.9696
3170 1 14.5415 12.6686 26.9275
2674 1 12.7471 14.3704 26.5883
2129 2 0.070854 5.61117 19.7601
2671 3 16.359 10.8315 26.9814
3675 3 16.2686 14.4842 27.146
3672 3 1.89905 14.4969 26.9509
1174 3 3.71566 16.2637 26.8131
2803 3 7.1752 18.1535 32.4242
1173 2 2.14758 16.2419 28.9672
92 2 5.4667 16.1246 25.0206
548 2 5.45038 14.3278 26.9162
549 2 7.42815 14.4638 28.6519
3172 1 5.25921 16.0629 28.6977
2174 1 7.41994 16.4601 26.7164
3173 3 10.926 16.0971 27.2044
2156 3 12.9887 16.3033 25.1527
2675 3 10.8359 14.6283 28.7768
112 2 14.2059 16.029 27.0682
866 3 18.296 3.92634 32.2223
3156 1 16.2576 16.5445 25.4142
123 2 0.343057 16.1053 34.1424
1176 1 16.1453 16.3965 28.7461
502 2 3.91884 0.387224 17.9061
1158 1 1.87887 1.93261 28.7524
95 1 3.88448 1.86779 30.3548
2160 1 7.31482 1.83573 30.4167
1177 3 5.62743 2.07034 32.2212
1662 1 5.46162 3.96586 30.4362
120 3 14.6423 9.1106 34.0139
3893 3 18.0347 3.64707 25.1662
1160 3 9.15974 1.83638 28.9216
96 2 10.7748 1.83266 30.6425
3176 3 9.09415 1.99428 32.4393
560 2 14.4541 10.866 32.1836
2161 1 14.4885 2.11041 30.7701
1161 2 16.4455 1.99011 28.8618
2521 2 18.119 14.3757 17.9839
3686 1 2.15928 14.3957 33.9147
2666 1 3.5273 7.30914 28.5845
3661 2 2.18087 3.96816 30.3412
2163 3 3.75077 5.59635 30.5927
1665 2 1.92597 7.29183 30.5185
556 2 3.86092 7.32542 32.2518
541 2 7.33567 7.33125 28.8132
2663 3 7.34128 3.85821 28.742
2682 1 7.23051 7.109 32.3271
3665 1 5.41086 7.60041 30.3186
538 2 11.0373 3.70642 29.0806
3162 2 9.16684 5.45841 28.784
99 1 7.46129 5.5926 30.3472
3662 3 9.04834 3.61718 30.4702
2164 1 10.8468 5.40803 30.6183
1164 3 12.7057 5.55407 28.7292
1663 3 12.7659 3.8433 30.8587
3667 3 12.8716 7.30649 30.4376
3179 1 12.8216 5.74192 32.1108
2664 2 14.2783 3.76431 28.7254
2353 1 18.0867 8.8356 30.4499
101 2 14.8171 5.61156 30.7871
3664 2 16.3581 3.76407 30.3558
2183 1 10.893 8.87989 34.3704
122 2 10.8255 12.5558 34.3535
2185 3 7.25918 12.5775 34.1119
2670 2 7.1324 10.7974 28.7275
544 3 3.79835 11.0303 28.5042
102 3 3.55327 9.08661 30.604
2167 1 7.4189 9.34949 30.6192
1669 1 5.48565 10.9315 30.6029
1666 2 9.17033 7.37545 30.5637
3181 3 9.15459 9.33458 32.26
3670 2 9.21083 10.8644 30.5792
559 1 7.32352 10.9526 32.2771
2667 3 10.7237 7.31711 28.628
546 1 10.8584 11.0032 28.7644
104 1 10.8704 8.91607 30.3458
1671 1 12.4875 10.5967 30.5899
2169 3 14.571 9.2478 30.4212
1186 2 16.222 12.7029 32.132
1169 2 16.3591 9.00564 28.8948
2672 1 14.2862 10.9589 28.608
3688 2 16.0538 14.3333 34.0464
543 1 14.4751 7.42811 28.5965
1668 2 16.1335 7.3342 30.9902
3671 3 16.3147 10.9245 30.5399
562 1 10.8113 14.4251 32.3244
3168 3 2.05471 12.6948 28.5426
3668 3 1.93971 10.8039 30.2137
1184 2 1.96136 12.7304 32.1052
1170 3 5.6633 12.7856 28.6187
2170 1 3.74744 12.5544 30.3758
107 1 7.26304 12.6879 30.1263
2687 2 7.53127 14.572 32.3335
3169 1 9.13982 12.6446 28.5341
2685 1 10.7707 11.0577 32.3237
1185 3 8.98115 12.4472 32.3903
1674 3 9.14108 14.3793 30.6654
550 3 14.4912 14.389 28.8449
2172 2 10.838 12.6836 30.5299
1172 3 12.689 12.5597 28.6357
3674 2 12.7838 14.4495 30.4981
2571 1 7.30194 3.7789 35.7485
3626 3 2.08191 0.384193 19.814
3171 3 16.3511 12.6976 28.6233
108 3 14.3228 12.5914 30.5806
1675 1 16.3609 14.5504 30.5237
1686 1 5.41585 14.3005 34.0092
540 1 0.206881 7.49652 28.748
1672 1 1.93259 14.4528 30.3298
110 1 4.10457 15.9597 30.425
1130 1 12.8422 2.03389 18.1329
3183 1 5.35369 12.8224 32.3912
2673 3 3.75337 14.3274 28.4718
3673 1 5.74492 14.2836 30.5478
1187 2 5.68954 16.231 32.3346
561 2 3.63988 14.3157 32.1698
2175 3 7.10122 16.3874 30.4201
3186 3 9.01225 16.338 32.2112
1175 2 8.8606 16.373 28.584
111 2 10.9158 16.0439 30.8091
3174 1 12.7335 16.4081 29.0272
2176 3 14.5859 16.2527 30.7715
3182 2 16.26 9.23207 32.2591
3627 1 9.27635 0.139903 19.9859
121 3 3.6461 12.504 33.9691
2778 3 14.4975 18.1403 25.1401
3187 3 16.4323 16.1395 32.3622
1639 1 9.03064 0.210908 23.3119
3684 2 5.3915 10.7083 33.9443
3175 3 2.19221 1.79898 32.2823
2679 3 3.75147 3.6887 32.0776
2177 3 3.73894 1.91995 33.9067
3679 1 5.62797 3.63244 34.0013
114 3 7.33951 2.18504 33.9047
2158 2 0.219518 1.98831 30.4569
2684 1 3.71827 11.0436 32.2788
2178 1 10.9021 2.0488 33.9501
3064 3 5.58088 2.09977 35.965
1178 3 12.6304 2.02038 32.3122
115 1 14.478 1.94048 33.93
2680 1 10.7929 3.73803 32.2771
1685 2 16.3244 10.8634 34.1224
1684 3 8.86126 10.4875 34.1423
3177 2 16.6065 1.95786 32.2306
2688 2 14.4918 14.3817 32.1496
555 2 14.8151 3.98709 32.3371
3184 3 12.5693 12.5836 32.4775
1179 1 1.91617 5.4264 32.4201
1678 1 1.85862 3.74378 34.2717
3681 2 1.91313 7.22154 34.1563
2316 1 18.0124 5.48472 19.7953
3685 3 12.5904 10.6811 34.3201
116 3 3.68192 5.49379 33.961
3178 1 5.47315 5.82747 32.241
1681 2 5.35646 7.26894 34.08
1641 3 16.2943 0.00747749 23.1473
554 1 7.17201 3.99918 32.1378
1679 3 9.09871 3.83403 33.8784
2180 1 7.14956 5.72184 34.141
1180 1 8.98922 5.52293 32.3321
117 2 11.0212 5.69052 33.8965
3682 3 9.11402 7.22759 33.9905
1183 3 12.6101 8.96472 32.4608
3680 3 12.8172 3.99222 33.9776
557 2 10.8754 7.43291 32.0392
2181 3 14.5722 5.66134 34.2491
1682 3 12.9245 7.49907 34.4451
2683 2 14.3769 7.2111 32.5416
1680 1 16.2991 3.47296 33.9237
1181 1 16.5163 5.48549 32.4255
3683 1 16.2639 7.37707 33.9761
1687 2 12.615 14.383 34.0549
2186 1 14.3426 12.3956 33.851
1683 2 1.80441 10.7561 34.1054
3180 2 2.0127 9.24469 32.2851
2182 2 3.70404 8.88988 33.9732
1182 2 5.77672 8.97453 32.2569
119 1 7.16408 9.00321 34.1057
1072 1 12.5064 5.47074 36.0317
1078 3 16.1396 9.09466 35.9525
521 1 0.429682 14.3586 21.2641
2581 3 7.19024 10.7938 35.9468
3769 1 12.9039 18.0532 23.4343
721 3 0.142281 18.0719 28.8446
3628 1 16.1829 0.305565 19.6005
3676 1 1.93096 0.155448 34.0739
3782 2 1.97381 18.1238 26.9708
2758 1 10.9307 18.1357 21.6902
2166 1 0.243329 8.88795 30.5466
2686 2 0.243913 14.4415 32.2327
1080 1 5.46336 12.7174 35.8821
1552 2 5.63634 17.9138 34.0963
2507 1 18.1062 3.69002 21.3808
971 1 17.9938 17.9103 29.1388
2676 2 0.0609286 0.338999 32.2221
329 3 17.811 5.4682 23.3892
368 2 18.0261 9.23328 34.2478
2661 3 0.144224 3.65897 28.6465
845 1 17.7971 -0.00689203 28.5981
2681 2 0.132058 7.1891 32.2983
501 3 0.366447 0.0164973 21.7554
558 1 0.351634 10.8331 32.3095
825 3 17.9216 7.22614 21.4715
815 2 18.0669 0.286559 21.5178
1676 1 5.49955 -0.0150951 34.1254
3641 2 12.6382 0.294575 23.5613
3801 1 2.2085 18.1686 34.3338
503 1 7.36608 0.182796 21.6719
1148 2 5.62248 16.4265 17.9515
579 1 3.83042 10.7872 35.7884
504 3 11.1551 0.370048 18.0623
1070 2 5.19632 5.51265 35.6731
569 3 3.63264 3.71208 35.7171
2640 2 14.2715 7.44068 17.9652
3147 3 9.24554 16.2901 17.9054