ITEM: TIMESTEP
5000
ITEM: NUMBER OF ATOMS
4000
ITEM: BOX BOUNDS pp pp pp
1.8698838191859579e-02 3.5715361161808659e+01
1.8698838191859579e-02 3.5715361161808659e+01
1.8698838191859579e-02 3.5715361161808659e+01
ITEM: ATOMS id type x y z
1 1 -0.121565 1.72517 1.89019
1563 2 -0.227128 0.000688269 0.0815443
2064 1 1.92465 1.61218 0.0265808
3561 3 1.66004 0.261444 1.83941
564 1 3.76679 1.68944 1.8913
565 3 7.46918 1.92645 1.4367
1565 1 7.22768 0.0447191 -0.00605459
2065 2 3.60503 -0.002361 -0.0894796
3061 3 5.37207 2.17196 -0.040421
3562 2 5.25774 0.000768868 1.97713
566 2 10.6644 2.01706 1.48423
1070 3 10.7498 0.096873 -0.0614066
3063 1 9.19885 0.158166 1.52666
3062 3 8.99878 1.89009 -0.28983
567 3 14.3168 1.66867 1.88857
2566 3 14.2187 0.109617 -0.065823
3064 3 12.4734 1.93893 -0.279501
3563 3 12.355 0.160837 1.67229
2 2 17.7988 -0.0361465 0.142202
3 1 16.1151 -0.072264 1.81387
3066 1 18.0186 1.72087 1.96157
3065 1 16.0201 1.79135 -0.00514616
4 1 1.79131 5.29321 0.040365
5 2 1.77486 3.3932 1.8313
6 3 1.96769 7.17839 1.74594
1071 1 -0.0947369 5.32376 2.00301
3067 3 0.144056 3.33936 0.00868991
3565 3 0.0341398 7.30014 -0.118818
7 1 5.44417 5.31059 0.146578
8 3 3.78832 7.00844 0.10762
1072 3 7.10074 5.56229 1.7855
1075 2 5.49587 7.25242 1.64722
1074 1 3.69178 5.20794 2.03246
1567 2 7.13686 7.34464 0.0363179
2570 3 7.16839 3.70992 -0.116453
2569 3 3.37654 3.51447 0.0832732
3569 2 5.61128 3.68264 1.77298
9 2 8.81866 5.50544 -0.125981
10 1 8.91361 3.83835 1.35307
1077 3 10.8804 7.02099 0.0500744
1076 3 10.9795 5.28156 1.8108
1568 1 9.10337 7.21306 1.82276
3068 1 10.8441 3.82884 -0.181014
11 1 12.761 5.25585 -0.0962117
12 3 14.2243 3.47091 0.207017
570 2 12.6682 3.48134 1.84497
1571 1 14.6456 7.23337 -0.240522
1570 2 14.3278 5.43215 1.6429
1569 3 12.7462 7.07966 1.57736
572 2 16.068 3.36293 2.05654
1081 1 15.8061 7.26572 1.5094
1079 1 17.9843 5.34042 1.98858
1078 3 16.0243 5.2294 -0.110618
1573 2 17.7051 3.72726 0.162294
2070 3 17.7729 7.01792 0.143743
575 3 2.00453 10.7027 1.96316
1082 3 2.11626 8.9995 0.00423073
1574 1 -0.120927 8.94113 1.72181
3070 2 0.108544 10.6348 -0.0401477
576 2 3.92044 11.0438 -0.105327
1085 2 5.3317 9.0859 -0.139278
1083 1 5.56808 10.8332 1.7269
1577 2 7.26525 10.6855 -0.0853167
1576 2 7.44844 8.98155 1.90659
1575 2 3.70801 8.86882 1.78923
14 1 10.7615 10.6598 -0.137428
1087 1 9.03793 10.6352 1.64752
1086 1 9.11483 8.9241 -0.137539
2071 2 10.754 9.03986 1.83474
580 3 12.5351 10.7227 1.8127
1088 2 14.3473 10.6342 0.0217301
2073 2 12.607 8.98008 0.0323811
2074 2 14.2614 8.95545 1.87027
15 2 17.9153 8.78448 1.71243
1581 3 16.0988 10.5095 2.02871
2076 2 17.9624 10.6226 -0.158885
2075 1 16.2249 9.18613 0.0644843
2079 2 1.95132 12.2851 0.180808
2078 2 2.00092 14.2684 1.7015
2077 2 0.0286777 12.349 1.7052
2572 1 -0.221673 14.0539 0.00732423
2082 3 5.41525 14.238 1.90103
2081 2 3.67907 12.6998 1.94292
2080 2 5.68102 12.664 0.0526697
2576 2 7.16792 14.494 -0.0485695
2575 1 7.11255 12.645 1.74956
3071 1 3.62956 14.2702 -0.095748
1583 3 8.79549 14.3444 1.8603
2084 2 10.5653 14.4039 -0.0728776
2579 1 10.4808 12.6601 1.85283
3073 3 8.74554 12.5821 -0.0415094
2085 1 12.3476 14.1983 1.60473
2580 1 14.4232 12.3368 1.80888
3074 1 12.5054 12.4645 -0.21857
3574 3 14.3949 14.2548 0.104297
581 2 17.9298 12.3481 1.89225
1089 2 17.9359 14.1628 0.0500071
2583 2 16.1324 14.095 2.11907
3075 1 16.2305 12.4058 0.30505
16 1 0.00925642 17.9169 0.111869
2086 1 2.0212 17.9447 1.609
2584 1 0.204228 15.9408 2.04515
3076 3 1.71897 16.0507 0.120061
17 2 5.40672 16.1617 0.0891396
1090 1 3.62179 17.9895 -0.0692894
2585 2 7.16804 17.6387 0.0387783
3079 1 5.33044 18.003 1.83766
3078 2 6.95777 16.2281 1.85384
3077 1 3.48259 16.0011 1.66206
18 2 8.78895 16.1388 -0.179335
1585 2 10.6563 17.7832 -0.221842
3080 1 10.6451 15.9963 1.70215
3578 1 8.82743 17.9042 1.78462
19 2 12.646 15.9488 -0.263315
2088 3 14.3462 17.8065 -0.1299
3081 3 14.3859 16.0797 1.78087
3581 3 12.717 17.6037 1.73838
20 3 16.3774 15.7881 0.0242264
1586 3 17.7672 15.9309 1.93702
3083 1 15.8886 17.8933 1.93287
3082 1 17.9046 17.8063 0.129869
584 3 1.74546 1.92244 7.0842
1564 3 0.0581936 0.231605 3.53596
2588 1 2.13047 0.209245 5.5971
2563 2 1.80394 1.93313 3.5804
3084 2 -0.100427 0.0106494 7.22511
3583 2 -0.00710547 1.71658 5.63436
22 3 5.55809 1.76814 7.00556
1069 2 3.52701 0.176058 3.58135
1566 1 7.23012 0.123589 3.27466
2089 3 5.35883 0.137097 5.36456
2590 2 3.5337 0.0737499 7.16464
2564 3 5.50405 1.83472 3.67028
3085 1 7.2581 -0.0775312 7.13151
3585 2 3.79896 2.06501 5.53301
3584 2 7.27814 1.55542 5.45998
586 2 9.15147 1.60435 7.11977
2066 2 10.7177 0.0022254 3.41138
2593 1 9.14736 0.0663806 5.21031
2565 1 9.10184 1.74939 3.32027
3086 3 10.8981 -0.1382 7.26653
3586 1 10.9917 1.8234 5.49196
23 2 12.5608 1.84287 7.23921
24 2 14.282 0.0221472 7.3115
25 1 14.2661 1.61565 5.31287
2568 1 14.0465 -0.084113 3.33514
2567 3 12.4024 1.70087 3.45437
3087 1 12.5724 0.197526 5.34679
568 1 17.6894 -0.183439 3.64754
588 1 16.1033 1.78636 7.14494
1587 1 17.8164 0.168407 7.2563
3088 3 16.0008 -0.0881519 5.5412
3588 2 17.8766 1.62906 5.39099
3564 3 15.9756 1.5018 3.63595
27 3 1.77681 5.41785 7.26292
28 2 1.70962 7.18826 5.55059
589 3 -0.0837315 5.51281 5.55992
2067 1 0.00481442 3.31725 3.57195
3090 2 1.77884 3.62763 5.34951
3590 2 -0.235119 7.03389 7.19448
3589 2 0.136874 3.67044 7.52359
3567 2 0.0990009 7.06252 3.60961
3566 2 1.72165 5.23038 3.64711
29 1 3.80086 3.70968 7.25083
593 1 3.70419 7.34797 6.96367
592 1 7.38508 5.22614 5.30653
591 2 7.42634 7.12319 7.23513
590 3 3.49685 5.44682 5.40696
1095 2 5.53424 5.39533 7.21787
1094 3 5.36934 7.25659 5.16412
1073 1 3.48904 6.94111 3.42903
2068 2 7.2916 7.02099 3.53039
2069 2 3.66579 3.50506 3.57424
3593 2 5.65574 3.56755 5.38493
3592 1 7.28868 3.6122 7.17669
3570 3 5.38162 5.48269 3.6075
3568 1 7.34782 3.34083 3.52108
31 3 9.06126 3.35488 5.32768
569 3 10.9871 7.13171 3.45087
594 2 10.8044 5.20235 5.4965
1097 1 9.17911 5.4076 6.96664
1590 3 8.97931 7.14545 5.2094
1589 3 10.7159 7.23812 7.06114
3594 3 10.8785 3.51517 7.39616
3572 3 10.8646 3.59275 3.48319
3571 2 9.17988 5.36874 3.56311
33 1 12.7327 3.50558 5.27492
35 1 14.0823 3.64735 7.18601
571 3 12.7346 5.57589 3.51376
595 3 14.1583 7.11506 7.05462
1100 2 14.3353 5.04222 5.48479
1099 3 12.58 5.29915 7.21041
1592 1 12.2281 6.98146 5.40635
1572 3 14.5519 7.22855 3.51767
3069 1 14.32 3.51616 3.49268
573 3 16.1637 5.26287 3.69699
1080 3 17.7953 3.52548 3.6435
1595 2 16.1811 7.16762 5.48935
1594 1 16.1892 5.08278 7.04422
2094 2 17.9172 7.22478 7.49613
2092 2 18.0022 3.50899 7.24202
2571 2 17.7802 7.0185 3.53265
3092 1 17.6831 5.24703 5.5075
3595 2 16.0355 3.51479 5.35402
13 3 -0.0922906 10.8459 3.57886
597 3 0.0576844 10.7171 7.30239
596 2 1.80355 10.7117 5.17799
574 3 1.789 8.64901 3.51692
1102 1 1.78446 8.92352 7.11138
1101 3 0.0585874 8.96239 5.30815
38 1 3.59275 10.7207 7.22167
578 2 3.89401 10.7092 3.4842
577 1 5.4035 9.05981 3.24808
1106 3 6.82788 10.6447 7.20189
1104 1 5.38803 10.7945 5.36215
1103 2 3.42578 9.04295 5.12801
1084 2 7.30217 10.7267 3.59801
1597 3 7.19178 9.02623 5.16511
1596 1 5.40473 9.09559 7.03391
39 2 10.7524 10.8714 6.96446
599 1 8.78583 10.7368 5.59471
579 1 10.7801 10.6225 3.44646
1107 2 8.91682 8.90352 7.04411
1578 1 8.87289 9.03077 3.70224
2097 3 10.7231 8.87297 5.32467
1108 2 12.2901 10.7714 5.33485
1598 2 12.6675 8.87091 6.87546
1579 1 12.6396 8.74113 3.60508
2072 3 14.1655 10.685 3.41402
2099 2 14.391 10.7048 7.15449
2098 3 14.2269 9.00189 5.19281
1599 1 16.0367 8.88401 7.35344
1580 1 16.2683 8.95211 3.91919
2100 3 16.3182 11.1112 5.40869
3093 3 17.8791 10.7308 7.18052
3597 1 17.9417 8.70499 5.74746
3573 3 18.1382 10.705 3.70812
1110 2 0.144481 14.336 6.90353
1582 3 1.9482 12.5583 3.51491
2103 2 1.86315 12.6284 7.01961
2102 1 1.93655 14.1924 5.20577
2101 3 0.0883834 12.3656 5.40978
2573 1 0.116465 14.2942 3.71277
1112 3 7.12501 14.5173 7.0645
1600 3 5.32728 12.5731 7.32856
2104 3 5.40892 14.1437 5.34869
2083 2 3.75698 14.2277 3.66853
2601 2 7.12498 12.3776 5.37532
2600 3 3.57342 12.29 5.48988
2599 2 3.64587 14.1897 7.0906
2577 2 7.1425 14.2325 3.72021
2574 3 5.56072 12.5395 3.58207
2604 2 9.05481 14.1126 5.28252
2603 1 10.5006 14.4199 7.32058
2602 1 10.6628 12.3949 5.25531
2578 1 9.11151 12.4623 3.53126
3097 1 8.97768 12.5771 7.04889
3072 2 10.6986 14.2718 3.45514
602 2 14.2181 14.0807 6.96926
1603 1 12.3359 12.4568 6.97009
2605 1 14.2295 12.425 5.18471
2581 2 12.4287 12.7338 3.35495
3098 2 12.2679 14.0695 5.2207
3575 1 14.3666 14.1632 3.58282
1114 1 17.9764 12.5921 5.54644
1584 3 17.9695 14.113 3.64533
2582 1 16.094 12.3237 3.4772
3100 1 16.0517 14.2306 5.19472
3099 2 16.1602 12.5232 7.30127
3599 2 18.0094 14.5114 7.20943
582 2 0.295378 17.7446 3.4887
1605 1 1.80923 17.8577 5.4851
1604 2 1.64501 15.9467 7.20192
3104 2 0.0360627 16.1669 5.25735
3103 1 -0.0345943 18.0317 7.31762
3576 3 2.01331 16.0898 3.59989
2087 2 3.7737 17.7783 3.48043
2607 1 5.4447 17.7954 5.13321
2586 1 7.13601 17.979 3.87781
3107 3 7.26599 17.9248 7.07641
3106 3 5.30963 16.1421 7.18517
3105 2 3.73801 17.7899 7.20866
3602 3 3.58755 16.0169 5.3705
3601 1 7.33169 16.1699 5.45392
3577 1 5.36787 16.0556 3.69574
1091 1 10.7893 17.7228 3.65
2107 2 9.04664 16.0843 7.36671
2608 3 8.82022 17.8588 5.26041
3109 1 10.7639 17.8001 7.17794
3603 2 10.5969 16.0821 5.40902
3579 3 8.66263 16.1755 3.46536
41 1 14.3969 15.9086 5.23464
2610 2 12.4248 17.6671 5.43988
2609 1 14.338 17.8602 7.27197
2587 2 14.1692 17.9082 3.78378
3604 3 12.4697 15.9864 7.15678
3580 3 12.4859 16.0003 3.58386
583 2 16.0403 15.9035 3.50873
1606 3 17.7715 17.8518 7.05435
2109 3 15.9045 16.0889 7.29063
3112 1 15.826 17.7174 5.55494
3110 1 18.0673 15.9429 5.47103
3582 3 17.8862 17.7692 4.01389
21 3 -0.111139 1.6302 9.09175
604 3 -0.0420349 0.111387 10.7702
2110 2 1.88116 1.87933 10.719
2589 2 1.79905 -0.0106815 9.08236
585 2 7.53614 1.65494 8.86184
1092 3 5.38011 0.253535 8.94774
1608 3 7.24547 -0.129748 10.6745
1607 2 3.62047 0.00382357 10.7595
2111 3 5.35722 1.78235 10.8909
2591 1 3.68463 1.87461 8.88977
1116 3 10.7882 0.126382 10.7962
2612 3 8.89932 1.74638 10.6647
2592 3 10.8586 1.84028 9.04689
3587 1 9.19893 -0.219485 8.8819
587 2 14.1243 1.75273 9.23766
1609 1 14.2563 0.219796 10.9017
2090 3 12.6827 -0.0352068 9.15112
2613 1 12.5917 2.02288 10.9603
26 3 16.1581 0.110958 8.93033
2594 1 17.873 1.75953 9.07877
3116 3 15.9825 1.94589 10.9811
3115 3 17.7802 -0.00826743 10.7458
1093 1 1.90658 7.31131 8.73973
2091 2 1.76387 3.65401 9.00328
2615 1 0.0772373 3.68419 10.638
3118 2 0.0791951 7.1198 10.7403
3117 2 1.73381 5.32696 10.7889
3089 1 0.254831 5.36771 9.14696
30 3 5.44427 3.64872 8.96662
45 1 7.26017 7.28572 10.7529
1096 1 3.65022 5.42748 9.02922
2112 3 7.15408 3.64576 10.7433
2616 1 3.73284 3.7392 10.5439
3091 2 7.11001 5.39882 8.80327
3608 3 3.60783 7.11395 10.7003
3607 1 5.65213 5.4395 10.676
3591 2 5.38995 7.05374 8.94325
46 3 10.6323 7.24051 10.8886
1098 1 10.7291 5.42286 9.11118
1591 2 9.01202 3.39585 8.77825
1588 3 8.84306 7.32033 9.18588
2113 3 10.7234 3.67005 10.7946
3609 2 8.97445 5.38153 10.8399
32 3 12.4464 7.12246 8.97382
34 2 12.4168 3.48716 9.01024
36 1 14.3236 5.40882 9.02872
609 1 14.2058 7.21742 10.5956
3119 3 14.3618 3.93334 10.8279
3611 2 12.4436 5.46014 10.6679
1120 3 17.9365 3.51123 10.8819
1615 1 17.9484 7.09302 10.6128
1593 2 17.8609 5.20358 8.9589
2093 3 16.0299 6.95231 8.86735
2595 2 16.0019 3.65495 8.8397
3612 2 16.1668 5.4288 10.8363
48 1 1.70104 8.67027 10.716
2095 2 -0.178061 8.99999 8.85818
2596 3 1.81171 10.5023 8.9731
3120 1 0.141896 10.5354 10.7479
37 1 3.86259 8.96628 9.06414
49 2 5.50231 8.98501 10.6664
612 1 7.25909 10.4726 10.8942
1105 3 5.43406 10.8722 8.98276
2096 2 7.16773 8.90396 8.94814
3121 2 3.8223 10.7018 10.8046
613 1 9.20157 9.07435 10.779
598 3 10.7611 8.98756 8.93237
3613 2 10.5829 10.689 10.7477
3596 3 9.04941 10.7968 8.75125
50 2 14.3313 10.76 10.7103
614 1 12.6204 8.98004 10.8443
2598 1 12.3781 10.6467 8.73975
2597 1 14.1733 8.99148 8.89472
51 2 18.0052 10.9886 10.8441
600 1 17.925 8.89673 9.0775
1122 2 16.1142 9.04914 10.7716
1109 2 16.3168 10.7894 9.18279
616 3 0.0277111 14.4865 10.7909
601 1 0.431881 12.6039 8.83953
1123 2 1.74364 12.3126 10.85
3094 1 1.95477 14.3807 9.14205
1124 1 5.48341 12.6209 10.7198
1111 1 5.40592 14.4388 9.03056
1619 3 7.1786 14.3856 10.8977
1618 2 3.75367 14.1697 10.7551
1601 1 7.13991 12.3975 9.11806
3095 3 3.50462 12.3889 9.11535
617 3 10.6433 14.146 10.4328
1125 1 8.84953 12.4056 10.6268
3096 2 8.62625 14.3496 8.95726
3598 3 10.664 12.3065 9.01405
1126 1 14.2855 14.4205 10.8024
1113 2 12.7185 14.3647 9.00144
1620 3 12.4919 12.4849 10.6729
1602 1 14.2935 12.4089 9.18975
1621 1 15.9423 12.5079 10.6399
3126 1 17.5874 14.2898 10.4804
3102 3 15.8249 14.4391 8.70758
3101 2 17.9416 12.511 8.77659
1623 3 0.0262948 17.7946 10.714
2119 3 1.80959 16.1957 10.6986
2606 2 1.96746 17.8614 8.94004
3600 2 -0.00551201 16.2117 8.77307
40 1 7.11445 16.1977 9.10669
619 3 3.57714 18.1225 10.7447
1127 2 7.28289 17.7108 10.8228
2120 1 5.25045 16.0414 10.7187
2106 2 3.41713 16.059 9.0283
2105 3 5.42889 17.9143 9.08327
1624 3 10.954 18.0619 10.6053
2108 2 10.8304 16.1713 9.14171
2625 2 9.01905 16.1796 10.7063
3108 1 8.92216 17.9511 9.03936
603 2 14.17 16.2967 9.01036
1115 2 12.3389 18.0349 8.68398
2626 2 12.6862 16.0876 10.7499
3620 2 13.9648 17.9036 10.7555
2628 1 15.9863 16.283 10.7382
2611 1 17.9313 16.2418 8.94687
3127 3 17.8883 17.8271 10.7163
3111 1 16.1662 17.9478 8.75294
42 1 0.0999243 1.79599 12.4045
2121 2 -0.0604117 0.0432098 14.2254
2629 2 1.59703 1.94178 14.2949
3113 2 1.69641 0.0228117 12.6201
43 1 3.36292 1.78223 12.7364
605 1 7.22072 1.96477 12.5372
1625 3 7.14956 -0.0795416 14.1873
2123 3 3.60512 -0.0894834 14.391
3128 1 5.56454 1.44742 14.4127
3605 3 5.28518 0.0585314 12.5972
606 3 10.8259 2.07137 12.6848
1627 3 10.727 -0.0560577 14.2906
3129 2 8.88482 1.89557 14.1235
3606 2 8.85258 0.0136438 12.4312
1117 1 14.1781 1.82555 12.7114
2632 1 14.3145 0.135067 14.3312
3131 1 12.4712 1.9223 14.4411
3114 2 12.6152 0.0619594 12.5773
44 3 16.0558 -0.132534 12.5244
501 1 17.9075 -0.0324719 14.3234
2614 2 18.081 1.88039 12.5835
3132 1 16.3951 1.75197 14.3922
607 1 2.03601 3.69494 12.5194
1119 2 1.83025 7.15914 12.5169
1118 2 0.105567 5.41835 12.6573
2634 3 0.281752 7.18092 14.4633
2633 2 -0.0522946 3.77116 14.229
3624 1 1.76591 5.31299 14.4753
60 1 7.08703 7.18631 14.3551
608 1 5.33089 3.45182 12.6142
1612 2 7.14755 5.26623 12.5084
1611 2 5.51625 7.11805 12.5506
1610 2 3.84749 5.37344 12.1998
2128 3 6.95509 3.54 14.1253
2126 3 3.65955 3.57675 14.4621
3136 1 3.74806 6.95443 14.0026
3626 2 5.56793 5.56053 14.2973
1613 3 10.7927 5.65772 12.615
2114 1 9.00663 7.12225 12.6502
3137 3 10.6936 3.705 14.2912
3629 2 8.97076 5.41459 14.1562
3628 1 10.9404 7.26352 14.4341
3610 3 9.06421 3.63888 12.4119
610 2 12.516 3.70541 12.6502
1614 3 14.1117 5.48975 12.479
2617 1 12.6849 7.25768 12.3394
3138 3 14.0858 3.64044 14.301
3631 3 14.1929 7.11754 14.2057
3630 2 12.4516 5.50652 14.4599
47 1 18.0548 5.42295 12.4417
65 1 16.0079 5.26834 14.3374
1138 2 17.8418 3.65414 14.4424
1121 3 16.0378 3.6667 12.7357
2618 3 15.9679 7.16756 12.3804
3140 3 17.8199 7.12012 14.1641
67 1 2.19991 8.88124 14.4282
611 1 1.76855 10.3952 12.7304
2115 3 0.132565 8.78611 12.5706
2636 1 0.112078 10.521 14.2977
69 3 7.16857 10.6337 14.2409
70 2 5.31138 8.88571 14.1485
1616 1 5.24873 10.7915 12.3951
2116 2 3.43136 8.93432 12.4572
2619 1 7.23659 8.91995 12.476
3633 3 3.78664 10.869 14.4451
71 3 8.9923 8.94464 14.3663
2117 3 8.9689 10.6552 12.6928
2620 3 10.8331 9.14058 12.7154
3141 3 10.7068 10.6124 14.4361
510 2 12.5709 9.07611 14.2851
1617 3 12.5541 10.7432 12.49
3122 2 14.4403 9.31286 12.7164
3635 2 14.2628 11.0231 14.1882
511 3 16.2417 8.87149 14.2507
615 3 17.8047 8.97772 12.3897
1639 1 17.7292 10.9779 14.3475
2118 1 16.0477 10.816 12.2088
513 3 0.38825 14.4525 14.5844
514 1 1.84337 12.4987 14.5625
2621 2 0.0174278 12.3924 12.6207
3123 3 2.05133 14.2874 12.4713
72 3 6.97453 14.3325 14.4407
515 1 5.43934 12.37 14.3468
516 3 3.69548 14.2543 14.32
3125 3 7.03029 12.6109 12.5733
3124 1 3.59693 12.5156 12.5284
3614 3 5.43445 14.4505 12.5096
73 2 10.7873 14.4176 14.0735
1145 1 8.96491 12.4377 14.2729
3616 2 10.6718 12.5428 12.5707
3615 3 9.0066 14.2587 12.4979
1147 2 12.5061 12.5929 14.3059
1146 1 14.3692 14.4787 14.3253
2622 3 12.4978 14.4016 12.4589
3617 2 14.2505 12.665 12.3056
1149 3 15.9602 12.5756 14.2184
1622 3 17.7387 12.6955 12.492
3146 2 17.9917 14.3634 14.3841
3618 2 16.1424 14.3835 12.322
52 1 0.198004 16.2068 12.5843
518 3 0.191415 18.0644 14.2869
1150 1 2.13729 16.1705 14.5281
2623 3 1.8925 17.8896 12.6379
53 3 3.58666 16.1133 12.5896
618 2 7.19294 16.1137 12.4657
1151 2 3.71106 18.0211 14.532
1642 1 5.3162 16.2757 14.431
2142 2 7.08519 18.1824 14.0952
2624 3 5.3271 17.8932 12.4769
54 3 10.7834 16.2601 12.4696
1643 3 8.98685 16.358 14.3222
2649 2 10.7862 18.0917 14.4359
3619 2 9.06472 17.8768 12.5142
55 2 12.6308 18.0047 12.6054
620 2 14.4913 16.1417 12.4833
1646 1 12.5592 16.2103 14.3113
1644 3 14.3776 17.8526 14.1942
56 1 16.2033 17.7981 12.6053
1647 1 16.062 16.0026 14.1845
2627 3 17.9641 15.9307 12.3456
3644 2 17.8978 17.6575 14.0282
57 3 1.78592 -0.137256 15.9742
621 3 -0.0946642 1.68527 16.1956
1128 3 -0.132732 -0.0458564 17.8438
2122 3 1.93181 1.48447 17.8539
58 2 5.21888 -0.0218447 16.1733
1132 3 7.17245 -0.104293 17.9374
1131 1 7.32599 1.70725 15.97
1130 2 3.84018 0.0412501 17.8778
1129 1 3.42519 1.59662 16.0934
2630 1 5.47027 1.8996 17.6098
1133 3 10.812 1.9053 16.1098
1626 3 10.7023 0.128274 17.9428
2631 3 8.95793 1.73512 17.8316
3621 3 8.9062 0.00261598 16.0733
59 3 12.3396 0.0212204 16.2024
1134 2 14.2981 2.03927 16.0716
2124 2 14.0997 -0.00642386 17.8821
3130 2 12.3816 1.82246 17.8979
502 3 15.8224 -0.112912 16.1311
3133 3 15.9169 1.70856 18.011
3623 2 17.8399 -0.0941877 17.9636
3622 2 17.8498 1.73422 16.3271
503 2 1.7401 3.26836 16.0683
504 2 1.96473 6.81158 16.2484
1628 3 -0.142236 5.3096 15.7984
2125 3 -0.0144642 3.49398 17.7275
3134 2 0.137054 6.9944 17.6173
3625 1 1.92889 5.29724 17.9277
61 1 5.57733 3.54374 16.0511
505 1 3.81111 6.97712 17.7748
1135 1 7.08826 7.1189 17.8408
1631 1 5.34287 7.26017 15.9968
1630 3 3.72708 5.23699 16.1683
1629 2 6.95937 5.44552 16.0698
2127 1 3.57931 3.32901 17.9777
3135 1 7.3542 3.64114 17.7291
3627 3 5.40409 5.12247 17.9735
62 2 8.93209 5.55424 17.9646
63 1 10.793 7.22546 18.0497
506 3 8.85251 3.67329 15.9958
1632 2 10.7095 5.35717 16.0354
2129 3 9.04126 7.11559 15.9738
2635 3 10.5207 3.64895 17.8271
64 2 12.6462 5.71119 17.8164
1137 2 14.4445 7.20769 17.9256
1136 2 12.6603 3.688 16.1233
2131 3 14.345 5.38837 16.1904
2130 2 12.5749 7.20117 16.0938
3139 1 14.3971 3.71745 17.8343
66 3 17.9329 5.40089 16.113
507 2 16.0197 5.25772 17.9519
1140 3 17.9665 3.66861 17.9409
1139 1 16.151 3.62926 16.1824
1634 2 17.9274 7.2918 17.8626
1633 2 16.0599 7.15069 15.915
508 1 1.81844 8.91184 18.0305
1141 1 1.87771 10.7023 16.2151
2132 2 0.206059 8.77327 16.204
3632 3 0.187661 10.7438 17.7938
68 1 3.73405 10.5058 18.0575
509 2 7.28542 10.8019 17.868
1142 3 5.59032 9.13574 17.7653
1635 3 5.5049 10.9101 16.2742
2134 3 7.03989 8.89971 15.9334
2133 3 3.68772 9.00576 16.3148
1143 2 8.87379 8.83634 17.9289
1636 2 9.06464 10.6105 16.1302
2637 1 10.8682 9.04394 16.2858
3634 1 10.7633 10.7191 17.8756
1144 2 12.5396 10.7274 16.169
1638 1 12.6622 8.76483 17.8679
1637 1 14.2566 10.6862 17.7891
2638 3 14.4545 8.8968 15.9378
512 1 17.8255 8.94945 15.9382
1640 3 16.0876 8.85501 17.762
2135 1 16.0297 10.8282 16.0164
2639 1 18.0599 10.9639 17.8432
2137 1 0.200293 14.5295 18.1156
2136 2 1.75155 12.5222 18.0699
2641 3 2.15682 14.3791 16.1935
2640 1 -0.0311093 12.7239 16.2795
2140 1 7.16843 14.3125 17.6778
2139 1 3.60188 14.0857 18.1649
2138 3 5.48311 12.5113 17.8608
2643 1 5.23872 14.311 16.1723
2642 3 3.55509 12.2325 16.3394
3142 2 7.26711 12.3963 16.1303
2141 2 8.9382 14.4135 16.0023
2645 3 9.09628 12.5628 17.9305
2644 1 10.7109 14.2066 17.5596
3143 3 10.8429 12.8064 15.7827
2647 2 12.6123 14.301 16.2607
2646 3 12.4177 12.5815 17.765
3145 3 14.4688 14.5301 18.0513
3144 2 14.279 12.5439 16.0959
517 3 17.8238 14.3306 17.9072
1148 2 17.7606 12.6637 15.9466
3148 1 15.8495 14.1693 16.1128
3147 2 15.9862 12.5878 17.8525
2648 2 1.83669 18.0954 16.1553
3150 3 1.87262 16.3216 18.0993
3149 3 0.340152 16.3043 16.1367
3636 3 0.00293118 17.9254 18.1335
1641 3 3.61901 18.156 17.8966
2143 1 7.63797 18.0549 17.7429
3640 1 5.70404 18.063 16.3236
3639 1 7.24221 16.3796 15.938
3638 1 5.6322 16.3821 18.0253
3637 1 3.76237 16.0935 16.6427
74 1 9.01388 18.0475 16.095
519 2 10.7302 18.074 17.9348
3642 2 9.031 16.0329 17.9545
3641 3 10.821 16.0869 16.0823
75 3 12.5659 16.1217 17.7738
76 1 12.6519 17.9862 16.0137
1645 1 14.4022 17.8381 18.1641
3643 2 14.3727 16.0616 16.0558
77 2 16.1033 16.2728 17.8094
2144 1 17.8322 16.161 15.9792
2650 2 17.689 18.1582 17.7594
3645 2 16.0917 17.8855 16.0035
520 3 0.00541498 0.118025 21.3939
78 2 -0.030056 1.69158 19.6931
2145 2 1.76346 1.82482 21.4441
3151 3 1.86041 0.114104 19.756
521 1 3.42704 0.0479239 21.4306
80 1 3.42141 1.82891 19.6487
79 3 7.19983 1.81582 19.4645
2147 2 5.31968 1.72986 21.4121
2146 1 7.10401 0.169027 21.5408
2651 1 5.3117 0.00883651 19.6404
81 1 10.6749 1.73661 19.8992
1648 2 10.5464 -0.0245746 21.5039
2652 2 8.84631 1.77079 21.4527
3152 2 8.76422 -0.0321116 19.8678
522 2 14.2934 1.59645 19.6991
1649 1 14.5084 0.230283 21.7635
2653 2 12.4963 1.87305 21.494
3646 3 12.5313 -0.0584996 19.7785
82 3 17.7855 0.211925 21.5669
2654 1 17.9903 1.7536 19.7005
3153 1 16.1 1.99506 21.3675
3647 1 16.1798 0.126243 19.6602
523 3 0.0349771 5.11186 19.5291
84 3 1.7137 7.03168 19.7514
83 3 0.0142408 6.85083 21.2608
1650 3 -0.232615 3.52937 21.4626
3155 2 1.62426 5.12805 21.4727
3154 3 1.6425 3.55024 19.4786
524 1 3.63588 5.31481 19.6695
525 2 7.30292 5.41429 19.6248
526 2 3.59287 7.15281 21.309
1153 2 7.31571 7.28797 21.3709
1152 2 5.51206 7.10543 19.6098
2655 3 3.72262 3.6638 21.2364
3156 1 7.02973 3.48567 21.5717
3649 1 5.50706 3.62546 19.6952
3648 3 5.29028 5.26946 21.2999
86 3 10.7114 7.3198 21.5333
85 1 9.08278 3.61625 19.7884
1155 3 10.8072 5.3976 19.8253
1154 2 9.03785 7.17708 19.8066
2656 1 10.6676 3.60935 21.5285
3650 3 9.22798 5.60227 21.6516
527 3 12.4218 7.33437 19.7254
88 3 12.6956 5.21233 21.445
87 2 12.3486 3.5244 19.587
1156 3 14.423 5.56267 19.604
2148 1 14.244 7.18575 21.3705
2657 3 14.2633 3.60211 21.2719
528 2 18.0813 3.52011 21.3394
89 1 16.0618 5.15562 21.2923
1157 2 16.051 7.20467 19.7081
3158 3 18.0358 5.25612 19.6809
3157 1 18.1545 7.04481 21.4088
3651 1 16.0957 3.62468 19.7334
529 2 1.89396 8.83309 21.4398
530 1 1.87429 10.5815 19.6585
1158 2 0.0566206 8.91708 19.3874
3652 2 0.12285 10.6914 21.212
531 3 5.59026 9.02342 21.2297
532 2 5.29516 10.7419 19.8075
533 2 7.22509 10.8699 21.4875
1159 3 3.72224 8.85566 19.655
1651 1 7.29477 9.19689 19.6906
3653 1 3.44293 10.6484 21.5122
90 3 8.98112 10.5673 19.6726
1161 1 9.13776 9.0867 21.5436
1160 2 10.6436 10.877 21.1797
1652 3 10.8036 8.87992 19.6041
534 3 12.5316 10.886 19.582
1162 1 12.6017 8.8982 21.5307
1654 3 14.2637 10.7377 21.4253
1653 2 14.2496 9.03638 19.6783
1656 3 16.0774 10.6371 19.5944
1655 2 16.4143 8.9381 21.3124
3159 3 17.9497 10.8271 21.3463
3654 1 17.909 9.13226 19.5767
1660 2 -0.0332813 14.1827 21.3734
1659 1 2.09832 14.298 19.8363
1658 1 1.64993 12.4743 21.4399
1657 1 -0.0305552 12.7099 19.4889
1163 1 5.50705 14.381 19.5586
1661 2 3.79243 14.223 21.4833
2151 1 7.23621 12.3091 19.6667
2150 3 5.48128 12.4847 21.4258
2149 2 3.63861 12.4243 19.7302
3160 2 7.15313 14.1923 21.4875
1662 3 8.81869 14.1358 19.7098
2153 1 8.9378 12.3354 21.5039
2152 1 10.7337 12.6765 19.7254
2658 1 10.8623 14.1863 21.5147
2155 3 14.379 12.561 19.5565
2154 2 12.6145 14.2727 19.6242
2660 1 14.367 14.2637 21.3289
2659 3 12.7024 12.4922 21.488
535 2 17.9158 12.7607 19.4736
1164 3 17.9379 14.2235 21.338
2156 1 16.1099 14.2985 19.6829
2661 1 15.8977 12.5853 21.3435
1165 2 0.346764 17.7803 21.7475
2157 1 1.74119 17.8411 19.7535
2662 3 0.0380115 16.164 19.7753
3161 2 1.95831 16.2382 21.4838
1664 2 6.8836 18.0723 21.5598
1663 1 3.77965 17.8149 21.5414
2664 2 3.72378 16.3031 19.6462
2663 3 7.29979 16.0656 19.813
3163 1 5.22184 16.2128 21.4916
3162 1 5.32482 18.1329 19.5674
536 3 10.8291 17.757 21.4064
2665 3 10.6516 15.9397 19.5563
3164 3 8.98835 17.9576 19.8811
3655 2 9.0439 15.9313 21.3576
2666 2 12.5012 17.8144 19.7503
3166 3 14.5322 16.0547 19.8699
3165 2 14.2273 17.9276 21.5165
3656 3 12.5717 15.8491 21.1486
92 3 15.9601 16.0312 21.4464
91 1 17.8302 17.7957 21.6213
1166 1 18.0342 16.2494 19.4969
3167 1 16.1178 17.9226 19.6365
93 2 1.9029 1.84998 24.953
1665 3 1.74526 0.149305 23.3362
2667 1 -0.0544651 -0.0505089 25.0273
3168 1 -0.196015 1.7327 23.1534
2158 1 5.22627 0.00975659 23.1823
2670 1 3.60613 0.252625 24.603
3170 1 6.98147 2.05607 23.2207
3169 3 3.62446 1.9027 23.1081
3659 1 6.99051 0.207743 24.9455
3658 2 5.23741 1.83812 25.0495
537 3 9.00334 1.87139 24.9199
2671 1 8.81615 0.0831232 23.0603
3171 3 10.8478 0.0323073 24.7656
3660 2 10.7679 1.55622 23.2223
2673 3 12.6731 -0.237938 22.9864
3663 1 14.4669 1.87663 23.1541
3662 1 14.1128 0.157114 25.0378
3661 2 12.2717 1.86371 25.0192
539 1 15.857 1.99673 25.0007
1167 2 17.8562 -0.0645692 25.2306
1668 3 17.9443 1.85919 23.3871
2160 1 16.3441 0.183567 23.5149
99 3 1.72362 5.32669 25.0494
98 2 1.76404 7.1611 23.0678
97 2 -0.00414608 7.01646 24.9086
96 1 -0.0969361 5.35236 23.1292
3173 1 1.81704 3.60195 23.2403
3172 2 0.0185177 3.36168 24.8304
540 2 3.72345 7.08703 24.9942
541 3 5.52696 7.0987 22.8397
542 2 7.22377 5.3081 23.0924
543 1 5.34116 5.46978 24.7108
101 2 7.12775 7.13716 24.9865
100 2 3.44228 5.28761 23.1347
2675 3 6.96732 3.64056 24.8332
3175 2 3.59435 3.59336 24.8867
3665 2 5.22653 3.65708 23.278
546 2 8.79686 7.07415 23.2096
547 1 8.81201 5.29695 25.1696
102 2 10.8573 5.39702 23.3932
1170 2 10.7004 7.1038 24.9884
3177 3 10.5846 3.73505 24.9769
3666 2 8.95735 3.38422 23.0547
548 1 14.4767 5.32366 23.2008
549 2 12.4623 5.54359 25.1145
105 2 14.2837 3.6185 25.2323
1670 1 12.4953 6.98979 23.3548
3179 2 12.4852 3.7775 23.305
3667 1 14.5183 7.03026 24.99
1172 1 15.9989 5.19006 25.2224
1672 3 17.8913 3.66051 25.2032
1671 3 16.2137 7.02363 22.9672
2678 3 17.604 6.98373 24.9489
2677 2 17.7763 5.36268 23.2253
3668 2 16.2491 3.47164 23.1601
550 1 0.0592796 8.66247 23.2448
106 3 1.7645 10.9754 23.1873
1175 2 2.03013 8.96502 24.9245
3669 1 -0.0487576 10.7278 24.9321
108 1 5.31253 10.708 23.3074
1180 3 7.05775 10.6685 24.8389
1178 3 7.11519 8.84934 22.9851
1177 1 3.71282 8.99892 23.064
1176 3 5.42265 8.95161 24.9677
3670 2 3.51855 10.5342 24.8583
551 2 10.8838 10.6381 25.0529
552 1 9.14663 10.5792 23.4339
1181 1 8.72064 8.76872 24.7131
1674 2 10.8795 8.99021 23.3637
1182 3 12.6952 10.6604 23.2637
1676 2 12.7095 8.6606 24.9851
1675 3 14.3898 8.79415 23.1742
2163 3 14.386 10.8414 24.9859
1183 1 16.1588 8.8698 24.9303
1677 2 16.3362 10.3995 23.2596
2165 1 17.8413 10.8927 24.8271
3671 1 18.0885 8.74974 23.1017
555 2 0.0228668 14.0715 25.0478
1184 1 1.84401 14.3955 23.3333
1678 2 1.97599 12.5084 24.9577
2166 2 0.0574134 12.5904 23.114
113 1 7.42999 14.3655 25.178
1185 3 5.46239 12.4496 25.1829
2170 1 5.57715 14.4103 23.4604
2169 3 3.65971 12.5649 23.2453
2168 3 3.4808 14.2546 25.1489
2167 1 7.15889 12.6763 23.1531
1680 3 10.825 14.2564 24.4906
2171 1 10.9303 12.1231 23.3604
2682 3 8.92141 14.4343 23.1072
2681 3 8.95791 12.5127 24.9213
114 3 14.3809 14.2929 24.9057
1681 1 12.2468 12.4687 25.1653
2684 2 14.4611 12.4786 23.1804
2683 2 12.767 14.1408 23.1114
557 2 17.8633 12.5096 23.2241
2173 3 16.0917 14.1866 23.193
2685 2 16.0589 12.4624 25.0295
3183 2 17.8991 14.3856 25.0219
1684 1 1.75418 15.9695 25.0924
1683 1 1.81118 17.8032 23.5035
2688 2 -0.0543801 15.9845 23.4365
2687 2 0.218847 17.7669 24.9752
2175 1 7.10297 17.7749 25.223
2174 2 5.39607 17.8035 23.4346
2689 3 3.69306 17.8761 25.204
3187 1 5.3562 16.0215 25.3722
3186 3 7.26318 16.0814 23.0895
3185 3 3.69319 16.0583 23.4572
1687 2 9.16233 17.8303 23.2116
1686 1 8.98159 16.2399 25.0909
2177 3 10.7233 17.7852 25.1197
3675 3 11.0181 16.1729 23.1208
2178 2 14.4492 18.0438 24.7484
2690 3 12.5372 17.9812 23.1525
3188 1 12.4195 15.8845 24.9659
3676 2 14.2835 16.0673 23.248
1187 2 18.0684 15.9724 23.1581
1186 2 18.109 17.881 25.1503
1689 2 16.0553 15.8397 24.8694
3189 2 16.1681 18.0232 23.2961
1188 3 0.113629 0.0925472 28.6445
2180 3 1.73969 1.64433 28.6042
2668 1 1.69431 0.289773 26.5427
3657 2 -0.0036 1.85343 26.8536
559 2 7.21503 0.0793443 28.474
94 3 7.31234 1.66142 26.6875
1189 1 3.59525 0.0655019 28.7598
1666 2 5.26234 0.135921 26.6475
2181 1 5.57463 1.72163 28.6092
2669 3 3.62706 1.633 26.8017
560 1 10.5899 0.0340276 28.53
95 3 8.98424 0.00467406 26.6593
2182 3 8.91287 1.86296 28.6103
2672 2 10.637 1.72639 26.7234
538 2 14.0756 1.68658 26.8093
1667 3 12.5482 0.000374398 26.7826
2184 1 12.4409 1.82432 28.3371
2183 3 14.3542 -0.0924398 28.7247
2159 3 17.9224 1.72544 26.7315
3193 2 15.9325 1.90667 28.7326
3679 2 17.6508 0.155694 28.5252
3664 1 16.1382 0.0509915 26.6324
1168 1 1.88721 3.39021 26.736
1669 1 2.09773 7.21406 26.767
2186 1 0.0798936 7.0341 28.5685
2185 2 -0.108837 3.74548 28.4869
2674 1 -0.0771832 5.29991 26.5357
3194 2 1.89218 5.35517 28.5647
544 1 3.71015 5.44521 26.9034
563 2 7.28793 7.18523 28.6931
1691 3 7.15096 3.78428 28.671
1690 3 3.73947 3.36699 28.7385
2676 2 7.16062 5.49288 26.6909
3196 2 3.74182 7.05319 28.6199
3195 1 5.48071 5.36848 28.7302
3176 3 5.43039 3.85548 26.9485
3174 2 5.65863 7.14228 26.6367
545 2 10.8233 5.57533 26.744
1171 2 8.83164 3.34281 26.7762
1169 2 8.81709 7.46519 26.6969
2694 2 10.7945 3.67455 28.4383
3197 2 8.92412 5.46371 28.4871
3681 1 10.7609 7.18401 28.4007
104 2 12.47 3.6674 26.9288
103 2 14.1968 5.53317 26.9048
2695 1 14.344 3.6237 28.6744
3178 2 12.6634 7.19238 26.7861
3684 2 14.4721 7.37246 28.3771
3683 2 12.5537 5.47729 28.6407
622 1 17.9147 3.78746 28.7219
1004 3 17.8307 6.99972 28.5712
1174 3 16.1731 7.20179 26.8177
1173 2 17.8704 5.23747 27.0605
3180 1 16.2164 3.26607 26.9049
3685 1 15.8995 5.25387 28.2665
1673 3 -0.0352234 8.83051 26.6091