ITEM: TIMESTEP
5000
ITEM: NUMBER OF ATOMS
4000
ITEM: BOX BOUNDS pp pp pp
5.1647132380566063e-02 3.5739112867619639e+01
5.1647132380566063e-02 3.5739112867619639e+01
5.1647132380566063e-02 3.5739112867619639e+01
ITEM: ATOMS id type x y z
563 1 0.15973 0.189106 0.188839
1064 1 1.89991 1.91976 -0.0859153
1563 3 1.97225 0.207533 1.89307
2064 3 -0.0220165 1.83521 1.78625
1 3 3.68526 1.62273 1.97628
565 1 7.37961 -0.0544414 0.159329
2065 3 7.3003 1.79487 1.9717
2565 3 3.67905 0.0200953 0.00873904
3064 1 5.35123 1.67877 -0.0984799
3564 1 5.51287 -0.00862574 1.814
2 1 10.4929 1.94384 1.82062
1066 2 8.869 1.59855 0.0720534
1564 2 8.93142 -0.113254 1.93543
2567 1 10.7994 0.414488 -0.134249
567 2 14.2791 0.0583245 -0.0356347
2066 3 14.3218 1.85495 1.7243
3066 2 12.4123 2.05915 0.103829
3565 2 12.3801 0.150024 1.63534
1068 1 16.0586 1.79309 0.035745
1565 2 15.9886 -0.0213122 1.80985
3 3 0.11414 5.38991 2.00437
573 1 -0.0461106 7.06074 0.0724884
1568 3 1.90972 7.20409 1.79896
2569 3 0.143533 3.70037 0.0923943
3068 2 1.84816 5.30215 -0.00140575
3566 3 1.96897 3.58776 2.08715
4 3 7.14327 5.37963 1.87879
575 2 7.25262 7.24082 0.195122
569 3 3.68536 3.37929 0.0517261
1070 3 5.60086 5.26184 0.0100283
1566 1 5.37325 3.74235 1.94291
2067 3 3.5985 5.34994 1.91222
2575 2 3.71218 7.17195 -0.152227
2571 1 7.2598 3.49847 0.228089
3569 1 5.27779 7.2965 1.61074
571 1 10.401 3.61157 0.121059
1569 3 8.95099 7.13241 1.91441
2068 3 10.6036 5.33987 1.92044
2577 3 10.6739 7.25971 0.0053656
3070 1 8.88971 5.49855 0.0868741
3567 2 9.02109 3.78407 1.76281
5 1 14.4142 5.53054 1.82802
577 2 14.5597 7.09466 -0.242844
1072 3 12.4773 5.61067 0.193718
1567 3 12.3889 3.84088 1.53378
2573 2 14.5022 3.57128 -0.127726
3570 3 12.4209 7.26258 1.92079
1570 3 15.99 7.1614 1.90868
3072 2 16.0976 5.20574 -0.0602318
3568 2 16.1469 3.69545 1.88309
1074 2 1.9038 8.85316 -0.0560961
2069 2 0.144874 8.615 1.84058
2579 2 -0.0837957 10.5887 -0.0426144
3571 3 1.80855 10.6927 1.94773
6 2 3.67193 9.07047 1.82193
579 1 3.56117 10.9836 0.0627212
1571 1 5.52838 10.7844 1.88004
2070 3 7.30937 9.06998 1.83739
2581 3 7.04903 10.7445 0.00659481
3074 3 5.39894 8.92928 -0.0390209
7 2 10.9338 8.96932 1.73455
581 3 10.6477 10.8698 0.0866365
1076 1 8.6544 8.92475 0.260248
3572 1 9.06974 10.809 1.88627
1572 3 12.3777 10.8284 1.78128
2071 1 14.0393 8.76824 1.74788
2583 1 14.2643 10.7125 0.11908
3076 2 12.557 8.92166 -0.135952
1078 3 16.0954 9.00924 -0.108506
3573 2 16.0528 10.9558 1.87339
8 2 -0.147246 12.4746 2.01985
583 3 -0.0809584 14.4888 0.169956
1573 3 1.66702 14.221 1.81911
3078 2 1.66086 12.2042 0.249635
9 1 7.33496 12.6201 1.88355
585 2 7.18839 14.1832 0.0687862
1080 2 5.49914 12.5292 -0.00888731
2072 1 3.50319 12.5452 1.87096
2585 1 3.54221 14.2833 0.201275
3574 2 5.41661 14.2624 1.66552
1574 1 8.98055 14.4173 1.87596
2073 3 10.7457 12.5469 1.97143
2587 1 10.8332 14.3359 -0.0156084
3080 3 9.0325 12.4444 -0.137204
10 3 14.227 12.7748 1.78818
587 1 14.6125 14.5557 0.0176084
1082 3 12.7869 12.5556 0.0773744
3575 1 12.4158 14.2713 1.64136
1575 1 16.0589 14.1468 1.7965
3082 3 16.3965 12.3736 -0.133225
1084 2 1.86858 15.9555 -0.0718016
2074 3 0.0942555 16.0632 1.85723
11 3 3.48685 16.217 1.71292
2075 2 7.18141 16.1903 1.87364
3084 1 5.38112 16.0275 0.291769
12 2 11.0106 16.1964 1.61946
1086 3 8.85886 16.0198 0.067373
2076 3 14.2804 16.2294 2.04278
3086 1 12.5189 16.3564 -0.00560617
1088 1 16.095 16.1616 0.079939
13 2 0.125501 1.83661 5.41559
588 1 0.241847 -0.333313 7.22384
1089 3 2.16514 1.84684 7.05563
2564 1 0.11838 0.102622 3.85755
3063 1 1.97604 1.72361 3.79125
3576 1 1.89198 -0.14503 5.52097
14 2 7.22465 1.90897 5.32382
564 1 3.92247 -0.191872 3.5707
1065 3 5.54314 2.06597 3.61197
1577 3 3.65039 0.0369288 7.05087
1576 1 5.54619 0.147358 5.51688
2078 3 5.5476 1.86403 6.96846
2077 3 3.89901 1.93554 5.32065
2589 2 7.15873 0.236241 7.27426
2566 1 7.24987 0.258432 3.90023
566 3 10.8551 0.176295 3.60345
2079 1 10.9499 1.98316 5.68281
3088 3 8.98218 1.84953 7.18185
3065 3 9.02552 1.86168 3.50854
3578 3 10.711 0.010968 7.40833
3577 2 9.0977 0.216473 5.31135
15 3 12.5055 1.7682 7.44765
16 3 14.2954 1.75694 5.708
589 2 14.336 -0.107836 7.39961
1067 3 12.6923 2.26712 3.44443
1578 2 12.4635 0.0741468 5.63978
2568 3 13.8347 0.22942 3.64637
1090 2 16.2548 1.7382 7.28298
3067 2 15.9474 1.72372 3.56352
3579 3 16.0668 0.0235374 5.19995
568 3 0.217834 3.36956 3.64493
1069 3 1.74986 5.33587 3.81535
1580 3 -0.0800858 3.53881 7.16106
1579 1 1.84325 3.43398 5.48864
2081 1 1.84055 5.1696 7.22186
2080 3 0.126686 5.43662 5.58004
2591 1 0.133789 7.13386 7.13675
2574 1 0.0553623 7.2288 3.74706
3583 3 1.81995 7.24117 5.31943
17 3 3.73563 5.2819 5.2787
591 1 7.00215 7.30986 7.34185
574 3 3.79362 7.26836 3.55703
570 3 7.44501 3.63563 3.58807
1584 3 5.62132 7.2861 5.34447
2082 2 7.22207 5.5865 5.68953
2590 3 3.71911 3.75924 7.01843
2576 3 7.44838 7.22092 3.79766
2570 3 3.708 3.57524 3.62818
3089 1 5.38041 5.42051 7.17137
3069 1 5.65008 5.54216 3.51289
3584 1 3.70762 6.92434 7.36133
3581 2 7.36063 3.57301 7.26519
3580 2 5.51765 3.83573 5.29637
18 2 9.01803 5.25028 7.23934
19 3 10.9803 5.39907 5.39296
590 1 10.7939 3.43087 7.29476
576 2 10.8929 7.23264 3.80586
1071 1 9.00013 5.3822 3.87757
1586 2 10.7325 7.37196 7.40359
1581 2 8.83866 3.65275 5.43213
2572 3 10.9259 3.63997 3.84158
3585 1 9.12908 7.14378 5.52784
572 3 14.3177 3.73019 3.65561
1091 1 12.7386 5.46094 7.19054
1585 2 12.6394 7.3874 5.41043
1583 3 14.5995 3.80987 7.34781
2083 1 14.2151 5.50198 5.42396
2592 3 14.3143 7.43819 7.30134
2578 3 14.3248 7.4142 3.73488
3071 2 12.5186 5.34214 3.71486
3582 1 12.67 3.71829 5.49779
1073 1 16.3176 5.50016 3.7573
1582 1 16.0845 3.52284 5.66524
2084 3 16.2942 5.67551 7.26379
3586 1 16.3233 7.49989 5.52861
20 2 -0.00945908 8.9006 5.53088
578 1 -0.177219 10.5456 3.42654
1587 1 1.81312 10.4139 5.28955
3090 2 1.83017 8.73719 7.28692
3073 3 1.85355 8.88849 3.52332
3587 3 0.145456 10.6607 7.13638
21 2 5.35557 8.93404 7.23673
22 2 7.18888 8.95214 5.54586
592 3 3.76582 10.7805 7.07604
580 1 7.29666 10.7506 3.69404
1075 3 5.58261 9.06101 3.64856
1589 1 7.08777 10.9039 7.20057
2085 3 3.69877 8.98191 5.31397
2580 1 3.66554 10.758 3.53595
3588 1 5.51702 10.7595 5.31917
1092 3 8.9115 9.00003 7.24437
1588 1 9.0963 10.7765 5.48861
2086 3 10.9099 9.02444 5.76142
2593 3 10.7588 10.8179 7.58062
2582 2 10.7242 10.8348 3.96435
3075 3 9.08304 9.00202 3.76513
23 2 14.1814 9.00911 5.4383
582 3 14.2549 10.9826 3.35621
1077 1 12.4721 9.08701 3.92524
2087 1 12.7158 9.07903 7.33929
3590 1 14.2932 10.5556 7.55641
3589 3 12.5498 10.8266 5.59888
1590 3 16.0244 10.7021 5.49103
3091 1 16.4853 9.1825 7.40079
3077 3 15.9931 9.15283 3.46983
24 2 1.81013 12.3875 6.96777
593 1 -0.0883537 14.333 7.05687
1079 3 1.69805 12.4147 3.73086
2088 3 0.0121161 12.5515 5.23143
2584 3 -0.0866776 14.3088 3.80611
3591 1 1.84008 14.2394 5.20423
25 2 3.61252 12.5731 5.29695
584 1 3.72998 14.3482 3.49687
1093 3 5.28952 12.5712 6.92707
1592 1 3.34959 14.1738 7.18273
1591 3 5.38601 14.4778 5.51157
2089 3 7.17104 12.5074 5.28956
2594 3 7.03047 14.2701 7.37825
2586 3 7.16482 14.4094 3.56407
3079 3 5.36522 12.5229 3.42551
26 2 10.6205 12.39 5.64335
586 2 10.6662 14.3898 3.59922
1081 2 8.91355 12.5177 3.79461
2090 3 8.838 12.5262 7.31534
3593 2 10.5807 14.3099 7.28707
3592 1 8.93251 14.2716 5.39447
594 1 14.2869 14.2797 7.14965
1593 3 12.4746 14.1774 5.43645
2091 3 14.5194 12.3397 5.65021
2588 1 14.0797 14.2285 3.77686
3092 1 12.4847 12.6078 7.31364
3081 3 12.2733 12.7169 3.68629
27 3 16.1728 12.6618 7.48325
1083 1 16.1419 12.5659 3.89787
3594 1 16.1642 14.1792 5.49268
28 2 0.0115145 16.1887 5.20364
1094 2 1.53163 16.0168 7.04424
3083 3 1.85378 16.0963 3.44141
29 1 7.01021 16.1622 5.27166
1085 1 5.42812 16.0105 3.53093
2093 3 5.19284 15.9322 7.34428
2092 1 3.41956 15.983 5.52471
2094 3 10.677 16.0896 5.52184
3093 3 9.00802 16.0082 7.12935
3085 3 8.97896 16.1327 3.6192
30 3 12.3144 15.9635 7.2934
31 2 14.2096 16.2204 5.31608
1087 1 12.5776 16.1814 3.77202
1095 3 16.231 15.9309 7.05471
3087 1 15.9218 16.0982 3.77382
1594 3 1.90845 0.0311494 8.95737
2095 1 -0.128204 1.94743 9.21852
2595 1 0.210073 -0.0325567 10.6215
3094 1 1.67743 1.94715 10.8609
33 2 7.44687 2.0005 9.05288
595 3 3.73615 0.253715 10.751
1096 1 5.62382 1.79535 10.8885
2597 3 7.3644 0.189453 10.9756
2596 2 5.63056 0.15533 8.81339
3095 1 3.98045 1.86795 8.96711
597 1 10.8223 0.0752219 10.9051
1097 1 10.6411 1.92311 9.07161
3096 3 9.12459 1.86138 11.0025
3596 1 8.6723 0.126941 8.9464
596 3 12.5767 0.179973 9.16471
1098 3 12.5195 1.92415 10.8078
2098 1 14.604 2.00721 8.8499
2598 2 14.3476 0.0855929 10.7595
1597 2 16.1287 -0.12661 9.11373
3097 2 16.2595 2.01803 10.7102
598 2 -0.100369 3.6015 10.8032
1099 1 1.97855 5.00714 10.452
2603 1 0.0315833 7.19522 10.5218
2599 1 1.86643 3.50153 8.88595
3098 2 0.148856 5.45775 8.79135
3602 3 1.98587 7.19828 9.03023
36 2 3.7412 5.18064 9.00439
603 2 3.29993 7.26774 10.8802
602 1 5.16947 7.06708 9.21853
600 1 7.31374 3.89369 10.8728
1100 2 7.22875 5.31666 8.88746
2604 3 6.90711 7.01805 10.6963
2600 2 3.6391 3.30591 10.6087
3099 1 5.43883 5.07629 10.7636
3599 2 5.4868 3.54553 8.86363
604 1 11.1381 7.15272 10.7436
599 2 8.99978 3.77651 9.04384
1101 2 9.05981 5.52633 10.6434
1603 3 8.88671 7.29845 9.0096
2101 1 10.8401 5.41143 8.82699
2601 1 10.9686 3.77004 10.6776
601 2 14.4385 3.60813 10.6132
1600 2 12.857 3.74549 8.96887
2606 2 14.4197 7.39047 10.7824
2605 2 12.7978 7.16371 9.065
3101 1 14.4516 5.54765 9.0485
3100 2 12.6354 5.53321 10.8231
1102 2 16.201 5.28291 10.7753
2602 1 16.3425 3.74529 9.05224
3605 1 16.7187 7.37585 9.15711
39 1 0.0241847 8.85536 8.89606
606 1 0.0910028 10.7874 10.69
605 1 1.70058 10.661 8.83999
3102 2 1.80905 9.03659 10.7232
607 3 7.05342 10.7029 10.5889
1104 2 5.34427 8.94772 10.7586
1103 3 3.54247 9.08513 8.8106
1606 1 5.45086 10.6362 8.76645
2104 3 7.12732 8.81587 9.03486
2607 3 3.55199 10.6425 10.8716
2609 1 10.7698 10.8022 10.8785
2608 2 8.818 10.8707 9.04663
3104 1 10.8832 9.1471 9.1118
3103 3 9.13011 8.94672 10.7825
42 1 14.6026 9.09392 9.15346
609 1 14.4884 10.6579 10.941
1105 2 12.6967 8.85473 10.5923
3608 3 12.7503 11.0498 9.39462
608 3 16.2353 10.9099 9.32193
3105 3 16.3178 8.9706 10.9214
1107 3 1.87757 12.3984 10.7707
1106 1 -0.0475231 12.4865 8.90389
1609 3 1.76162 14.2351 8.73154
2610 3 0.0981612 14.4063 10.6645
610 3 3.46599 14.3776 10.5601
2107 2 3.62228 12.2805 8.79236
2612 2 7.26995 14.269 10.7554
2611 1 5.23094 14.0139 9.10518
3107 3 7.06853 12.5323 8.94607
3106 2 5.33651 12.4714 10.6189
45 1 10.6687 12.4778 9.2293
612 3 10.769 14.4039 10.8795
1108 1 9.03547 12.4757 11.0218
3611 2 8.96469 14.4791 8.90565
611 2 12.388 14.3956 9.12388
1109 1 14.377 12.8274 9.18006
2613 2 14.4322 14.3259 11.1215
3108 1 12.4418 12.861 10.9391
1110 3 16.0128 12.4479 11.125
1612 1 16.3145 14.3703 8.8454
2110 2 0.228859 16.2368 9.15428
3109 2 1.64595 16.2265 10.7083
48 2 7.05769 16.1715 8.94361
1111 3 5.30367 15.9879 10.4648
3110 3 3.37853 16.0829 9.02013
1112 3 10.7736 16.1217 8.96973
3111 1 8.72064 16.2899 10.633
1113 1 12.648 16.089 10.7418
2113 1 14.3812 15.827 9.21082
3112 3 16.1156 16.1113 10.9632
32 1 0.0463145 1.89265 12.5721
613 3 0.00509396 0.137325 14.2763
1114 3 1.96846 1.88769 14.2728
3595 2 1.7331 -0.0861263 12.3154
34 2 7.3344 1.88662 12.6688
614 1 7.03253 0.176544 14.2638
1595 2 5.57667 0.265954 12.4191
2096 1 3.67361 1.77602 12.4479
2614 3 3.4967 0.0695141 14.4134
3113 3 5.29244 1.94122 14.3221
1115 2 8.91075 2.02187 14.476
2097 1 10.9178 1.98943 12.8243
2615 2 10.7246 0.262211 14.3772
3597 1 8.99592 0.314111 12.8428
35 3 14.4616 1.85907 12.4967
615 1 14.6947 0.210064 14.1573
1596 3 12.6121 0.335451 12.5875
3114 1 12.6124 2.02666 14.5631
1116 3 16.2206 2.17888 14.5028
3598 2 15.9986 0.16691 12.2426
618 1 0.158578 7.18734 14.5676
1598 2 1.75091 3.7957 12.2908
2099 2 0.0430691 5.46942 12.5556
2616 1 0.172313 3.69019 14.1216
3115 2 1.9271 5.42288 14.2736
3603 2 1.68572 7.08777 12.5952
37 1 3.58551 5.53641 12.4569
619 3 7.11162 7.23972 14.1577
616 1 3.56101 3.6168 14.1418
1117 3 5.4826 5.47566 14.2883
1602 2 5.38015 6.93991 12.4445
2100 2 7.3269 5.29263 12.7268
2619 3 3.50714 7.11296 14.4081
2617 1 7.24039 3.80792 14.3084
3600 3 5.37432 3.58959 12.5128
38 2 10.9133 5.4844 12.6325
617 1 10.8127 3.81391 14.3675
1599 1 9.20956 3.70675 12.5446
2620 2 10.9149 7.06243 14.4244
3116 2 8.887 5.45401 14.3992
3604 2 9.09698 7.25778 12.3826
620 2 14.4344 7.2882 14.3894
1118 1 12.6821 5.42157 14.4192
1604 2 12.6834 7.31911 12.5903
2102 2 14.4189 5.38178 12.5678
2618 1 14.4501 3.66612 14.3811
3601 2 12.7696 3.81246 12.4895
1601 2 15.8977 3.60944 12.6355
3117 2 16.3289 5.41307 14.2978
3606 1 16.2436 7.12312 12.7222
40 1 0.0580874 8.68947 12.515
1119 1 1.66994 8.89803 14.233
1605 1 1.772 10.5982 12.4865
2621 3 0.0810163 10.709 14.2484
41 3 7.03029 9.00826 12.3747
621 2 3.83582 10.6718 14.1748
2103 2 3.74051 8.87056 12.4566
2622 2 7.11282 10.5369 14.0671
3118 3 5.30878 8.75831 14.3975
3607 3 5.45434 10.6457 12.2124
622 3 10.7415 10.8561 14.1522
1120 2 9.02633 9.09186 14.5197
1607 3 8.95024 10.7131 12.4606
2105 1 10.8471 8.83023 12.5576
43 3 14.4983 8.86869 12.664
2623 2 14.3172 10.6254 14.6622
3119 3 12.6978 8.91057 14.3643
3609 2 12.6994 10.4097 12.4849
1121 2 16.4507 8.77956 14.5889
1608 2 16.0732 10.674 13.076
623 1 -0.165554 14.2245 14.087
2106 3 -0.266787 12.4186 12.4239
3120 3 1.80975 12.5765 14.1196
3610 3 1.60608 14.4424 12.4699
44 2 3.68777 12.5654 12.3091
624 3 7.13569 14.512 14.2252
1122 3 5.53955 12.6238 14.2546
1610 1 5.29219 14.2125 12.5468
2108 2 6.94211 12.6341 12.3506
2624 2 3.62486 14.1225 14.3557
46 2 10.8075 12.5618 12.729
2625 1 10.5415 14.5271 14.3202
3121 1 8.68239 12.7036 14.054
3612 2 9.00837 14.4341 12.3514
625 3 14.6085 14.0899 14.4225
1123 1 12.5367 12.264 14.3624
1611 3 12.4071 14.3566 12.8274
2109 3 14.1378 12.3174 12.7029
3122 2 16.1742 12.5066 14.3341
3613 2 15.9404 14.2222 12.5463
47 2 0.043494 16.1677 12.6194
1124 1 2.1401 16.0101 14.3897
49 2 7.1993 16.2489 12.5768
2111 1 3.52472 16.1163 12.3322
3123 3 5.41868 16.1482 14.2047
1125 2 8.93275 16.1839 14.2211
2112 3 10.5649 16.213 12.6078
50 2 14.278 15.8567 12.8372
3124 3 12.4633 16.099 14.4281
1126 2 16.2433 16.2462 14.4378
1613 1 1.81776 0.0527361 15.992
2114 3 0.278329 1.92174 16.0116
51 1 3.74276 1.85474 16.0657
2115 1 7.12557 2.00782 16.2332
3614 3 5.38877 0.175344 16.1213
52 3 10.7753 1.90186 16.2379
1614 3 8.69923 0.123905 16.0814
2116 2 14.4213 1.87863 16.0602
3615 1 12.534 0.162405 16.1383
1615 1 16.025 0.183766 16.4624
53 3 0.0782821 5.16751 16.1062
1618 1 1.73882 7.13399 16.2484
3616 3 2.07904 3.45661 15.9611
54 3 7.1558 5.41727 16.3426
1616 1 5.449 3.71159 16.071
2117 2 3.59213 5.3334 16.0513
3619 1 5.23229 7.10791 16.1855
1619 3 8.94177 7.02166 16.1192
2118 1 11.0059 5.48221 16.1578
3617 1 9.10757 3.6415 16.1827
55 2 14.4991 5.35037 16.2007
1617 3 12.7363 3.68877 16.0525
3620 1 12.734 7.23176 16.273
1620 2 16.3804 6.89571 16.2327
3618 2 16.0739 3.68253 16.2628
2119 1 0.0391938 9.05276 16.0577
3621 3 1.8008 10.9848 16.0689
56 2 3.35631 9.14949 16.2751
1621 2 5.36211 10.8233 16.1115
2120 2 6.98937 9.0275 15.9097
57 1 10.7533 9.05418 15.9137
3622 1 8.87204 10.8222 15.8564
1622 2 12.4528 10.844 16.1258
2121 1 14.4045 8.64063 16.1505
3623 3 16.3204 10.8665 16.0499
58 1 -0.258196 12.4974 15.9549
1623 3 1.88825 14.1867 15.9388
59 1 7.19728 12.549 16.1988
2122 2 3.5985 12.4757 15.9397
3624 1 5.44675 14.2923 16.0292
1624 3 8.92089 14.2955 16.0282
2123 2 10.7426 12.4066 16.0539
60 1 14.4017 12.5363 16.0711
3625 2 12.5583 14.0367 15.8321
1625 2 16.2844 14.6365 16.2231
2124 2 -0.00161348 15.9559 15.8792
61 1 3.85109 15.9311 16.1031
2125 1 7.16908 16.2183 16.0563
62 3 10.6555 16.0573 16.1536
2126 1 14.3143 16.2137 16.0736
63 3 0.184055 2.08555 19.6082
2626 2 -0.00329144 0.192738 17.783
3125 3 2.02572 2.12747 18.0718
3626 1 1.60962 0.172136 19.5064
502 3 3.47642 0.013182 17.8307
64 1 7.27442 1.8343 19.6422
1128 2 5.45651 1.96744 18.0659
1626 3 5.45072 0.199128 19.5451
2127 3 3.62297 1.69905 19.6708
2628 3 7.27884 0.246112 17.9403
504 3 10.742 0.0754624 17.8795
2128 1 10.993 1.8251 19.6711
3127 3 9.16595 2.11592 18.0802
3627 1 9.11734 0.0455674 19.5854
65 1 14.1425 1.95454 19.7816
1130 3 12.7057 1.84225 17.8882
1627 3 12.5804 -0.0360495 19.5537
2630 1 14.3415 -0.107297 17.9881
3129 2 15.956 1.82982 17.9864
3628 1 16.0316 0.00256582 19.624
506 3 0.0642 3.60452 17.9049
1132 2 1.92939 5.32766 17.8327
1628 1 1.82602 3.81509 19.6807
2129 3 0.37201 5.60514 19.6079
2636 3 0.00472264 7.2747 17.9668
3631 2 1.969 7.22731 19.7874
508 2 7.26922 3.84467 17.924
512 1 3.16971 7.38298 17.7513
66 1 3.79315 5.66826 19.6754
1631 1 5.63615 7.44649 19.7647
2130 2 7.26854 5.3156 19.7799
2638 2 7.31943 7.61502 17.9945
2632 1 3.84884 3.90247 18.1123
3131 3 5.34552 5.65149 17.9171
3629 3 5.49419 3.60574 19.9179
514 2 10.7397 7.17227 18.1166
67 2 10.8019 5.56372 19.6991
1134 1 9.06198 5.66273 17.9643
1629 2 9.03441 3.72937 19.7184
2634 3 10.7952 3.69906 17.856
3632 3 8.71452 7.06203 19.8984
510 1 14.3967 3.5962 17.8472
1632 3 12.7197 7.19904 19.6944
2131 2 14.5012 5.48064 19.7939
2640 2 14.4536 7.0031 18.0134
3133 2 12.5144 5.2817 18.0389
3630 1 12.5594 3.69736 19.6674
1136 1 16.2678 5.30525 18.0358
1630 2 16.0879 3.44788 19.758
3633 3 16.23 7.10512 19.5828
516 3 0.0486866 10.8873 17.9501
68 3 -0.00645069 8.93672 19.8931
1633 2 1.95001 10.7829 19.6163
3135 1 1.60466 9.06263 17.9371
518 1 6.95611 10.4758 17.7526
69 1 7.0714 9.05598 19.6858
1138 3 5.22083 8.91401 17.9309
2132 1 3.54277 9.12193 19.6271
2642 1 3.60051 10.7794 17.8993
3634 2 5.30077 10.6988 19.758
1634 2 9.1205 10.8116 19.8565
2133 2 10.8669 9.00349 19.5619
2644 3 10.7318 10.7586 17.9349
3137 1 8.96972 9.15987 17.6461
520 3 14.5385 10.7347 17.7849
70 3 14.4443 9.10605 19.5935
1140 1 12.4977 9.08289 17.9514
3635 3 12.7342 10.8485 19.5479
1635 3 16.5373 10.7856 19.4491
3139 2 16.1915 8.99354 17.5735
1142 3 1.92544 12.6747 18.02
2134 3 -0.250738 12.6107 19.6906
2646 3 -0.150938 14.2971 17.7648
3636 2 1.87675 14.3453 19.6141
522 3 3.64062 14.2293 17.901
71 2 3.96532 12.588 19.5772
1636 3 5.62639 14.4906 19.577
2135 1 7.29082 12.4738 19.5042
2648 3 7.21115 14.3827 17.7282
3141 2 5.52208 12.5859 17.781
524 1 10.8829 14.1433 17.7869
72 3 10.8316 12.5878 19.7636
1144 2 8.94522 12.5128 17.6951
3637 2 8.69064 14.3401 19.6226
1637 2 12.7551 14.4055 19.6424
2136 2 14.3349 12.5637 19.5764
2650 1 14.1636 14.2396 17.6912
3143 2 12.4514 12.6384 17.7118
1146 3 16.2289 12.5012 17.8166
3638 1 15.9942 14.3736 19.3911
73 2 0.171603 16.0697 19.4277
3145 3 1.75522 15.9755 17.6997
74 1 7.13786 15.9555 19.824
1148 2 5.27993 16.266 17.8032
2137 3 3.40998 16.1733 19.8356
2138 3 10.6644 16.0162 19.4644
3147 3 8.93641 16.1124 17.8719
75 1 14.1152 16.1237 19.5303
1150 1 12.6154 15.9088 17.7579
3149 2 16.2484 16.3391 17.8507
501 2 -0.0894413 0.250245 21.3924
1127 1 1.71175 1.80304 21.4959
1638 2 1.63581 0.0470405 23.1313
2139 2 -0.0791514 2.041 23.1291
2651 1 0.0392664 0.174175 24.9165
3150 1 1.73876 1.96606 24.8722
503 2 7.33982 0.161447 21.2917
526 3 7.13721 -0.0179624 25.3106
77 3 5.29616 1.71387 24.9902
76 2 3.66478 1.63765 23.0996
2140 2 7.32656 1.81575 23.3554
2627 3 3.79011 -0.0384935 21.4348
3126 2 5.66786 1.89577 21.575
3640 1 3.42631 -0.0793303 24.8878
3639 2 5.45023 -0.0736988 23.3475
78 1 10.7077 1.6377 23.2125
1152 1 8.96973 1.85359 25.0537
1129 3 9.1033 1.90643 21.417
1640 2 10.764 -0.113992 24.9783
1639 2 8.76577 0.00935666 23.3675
2629 2 10.6658 0.0574635 21.6575
505 3 14.3974 0.129581 21.6671
2142 2 14.558 1.97706 23.488
2141 3 12.4317 1.81889 24.8926
2652 2 14.3119 -0.156807 24.7831
3128 3 12.5362 1.71666 21.6373
3641 3 12.6013 -0.206705 23.2052
1131 3 16.2394 2.00914 21.5525
1641 2 16.1482 -0.196487 23.3825
3151 2 16.2812 1.7105 24.9286
511 2 0.157172 7.05988 21.5659
528 3 0.129189 7.48041 25.1318
80 3 1.94366 5.29774 25.0704
79 1 -0.0165164 5.45796 23.1452
1645 3 2.07175 7.19972 23.2898
2631 3 -0.131146 3.7091 21.3711
3130 3 1.99509 5.41543 21.4323
3643 3 0.132468 3.87886 24.9961
3642 3 1.73368 3.77112 23.0443
507 3 3.61694 3.43255 21.5314
513 3 6.97644 7.27923 21.6912
527 1 3.39804 3.25174 24.9421
81 3 7.02926 5.34529 23.0929
1153 3 5.50627 5.21152 25.2229
1133 3 5.35027 5.25195 21.2696
1646 1 3.79136 6.98694 25.0272
1643 3 7.03211 3.57655 25.0614
1642 1 5.37487 3.4832 22.9467
2143 3 3.59567 5.25558 23.3079
2654 1 7.09866 7.24423 24.9045
2637 3 3.65349 7.16443 21.5159
2633 1 7.34958 3.54627 21.4921
3647 3 5.36153 7.24615 23.2398
509 3 10.8695 3.6519 21.3419
1647 3 9.12552 7.25194 23.1797
2145 3 10.6049 5.39787 23.2093
2144 1 8.77595 5.37306 24.9755
2653 2 10.839 3.72211 25.047
2639 3 10.7853 7.32233 21.5896
3132 1 8.84639 5.39928 21.6123
3649 1 10.7716 7.3409 24.9763
3644 2 8.86467 3.57252 23.4413
515 2 14.4107 7.49475 21.4282
529 3 14.3157 7.24397 25.1191
82 1 14.4648 5.86782 23.3649
1135 2 12.6014 5.44487 21.8893
1644 2 12.7308 3.70902 23.217
2635 2 14.304 3.63903 21.5143
3152 2 12.4341 5.56118 25.1494
3648 2 12.4405 7.62792 23.1838
3646 2 14.3205 3.68346 25.1783
83 1 15.9261 5.54256 25.1589
1648 3 16.3124 7.14931 23.1189
3134 2 16.1652 5.55681 21.4538
3645 3 16.0645 3.70249 23.2549
1154 1 1.98465 9.13779 25.1004
1137 1 1.8328 9.15907 21.6822
1649 3 0.0313168 10.5332 25.2098
2146 1 0.210589 8.91264 23.0425
2641 1 -0.0854903 10.8156 21.3896
3650 2 1.84899 10.7867 23.219
517 2 3.52684 10.8094 21.4299
84 2 3.68099 9.05341 23.1836
1650 2 5.36477 10.7753 23.1972
2148 2 7.21983 9.13119 23.1925
2147 2 5.41877 8.95178 24.9928
2655 1 3.5872 10.5851 25.0689
2643 3 7.10951 10.8835 21.4854
3136 1 5.19305 9.12131 21.5283
3652 1 7.17311 10.7969 24.8986
519 2 10.6742 10.6304 21.4422
530 2 10.526 10.6315 24.9372
85 1 10.8695 9.17035 23.0135
1139 3 8.83661 9.01503 21.417
3153 2 8.85134 8.98439 25.1463
3651 1 8.96938 10.8712 23.3368
86 2 12.3946 9.019 25.2028
1652 2 14.408 10.4018 25.1069
1651 2 12.6317 10.7294 23.4538
2149 2 14.3949 9.04226 23.053
2645 2 14.6091 10.7878 21.2079
3138 3 12.5468 9.28372 21.4698
1155 2 16.337 8.7542 24.8651
1141 2 16.0886 9.21734 21.4999
3653 3 16.1096 10.6398 23.0802
521 1 0.258079 14.3217 21.3535
87 1 -0.00245599 12.5321 23.2864
1653 2 1.84607 14.1655 23.2365
2150 3 1.71864 12.5547 25.2684
2656 2 0.0153326 14.2713 25.2191
3140 2 1.52768 12.4357 21.4764
523 3 7.09498 14.3017 21.4172
531 3 7.31919 14.2476 25.0301
88 2 7.2546 12.6133 23.2144
1143 2 5.5248 12.5665 21.5985
2151 2 3.42003 12.4786 23.3242
2647 3 3.48501 14.3244 21.3778
3154 2 5.10214 12.6029 25.0661
3655 2 3.53489 14.3212 25.1048
3654 3 5.1563 14.289 23.2401
89 3 8.90275 12.5328 25.2621
1655 3 10.81 14.2219 25.2869
1654 1 9.22676 14.2689 23.5018
2152 3 11.0929 12.4298 23.1884
2649 1 10.9038 14.1636 21.4534
3142 2 9.10009 12.6918 21.5819
525 1 14.4193 14.2593 21.4577
90 3 14.3311 12.3184 23.1682
1156 2 12.6656 12.5853 25.0023
1145 2 12.8246 12.6966 21.3524
2657 2 14.217 14.2809 25.2827
3656 1 12.6739 14.1999 23.6133
1656 2 15.9371 14.3838 23.2281
2153 2 16.1875 12.5069 25.0829
3144 2 16.062 12.6811 21.3234
1147 1 1.77516 16.028 21.5871
2154 2 0.218718 15.9654 23.1886
3155 1 1.79854 15.9017 24.8484
92 2 5.62449 15.9295 25.0445
91 2 3.45039 16.0447 23.15
2155 3 7.32746 15.9415 23.2796
3146 3 5.35487 16.2533 21.6042
93 2 10.6436 16.0737 23.3
1157 2 8.80979 16.1409 25.2025
1149 3 9.12303 16.0272 21.4426
2157 3 14.1511 16.2889 23.1764
2156 2 12.6703 16.1245 24.9758
3148 3 12.3868 16.2201 21.4961
1151 2 15.956 15.9991 21.2027
3156 2 16.2704 16.3044 24.9813
532 1 0.00695327 0.02105 28.3597
94 3 0.0552071 2.13563 26.7488
1158 2 1.9685 1.59567 28.691
3657 2 1.90374 0.227489 26.7936
533 2 5.14926 -0.136909 26.8362
534 3 7.23339 -0.147221 28.4524
1159 1 3.76174 1.74716 26.8787
2159 1 7.1265 1.78541 26.7787
2658 1 3.67588 0.0741096 28.7486
3157 2 5.52919 1.65694 28.7795
1160 2 8.81727 1.44998 28.5073
1658 1 8.96771 -0.213113 26.7074
2660 2 10.7415 -0.0781723 28.3154
3158 3 10.5831 1.85014 26.6768
535 3 14.3796 0.0421236 28.429
97 2 14.3101 1.70891 26.4807
2659 2 12.7022 -0.220332 26.7189
3159 3 12.4852 1.69745 28.3814
1161 3 15.9604 1.83703 28.3619
3660 2 16.2138 0.0661094 26.8018
536 1 1.81675 3.34185 26.9425
540 3 -0.0131756 7.06705 28.6899
1162 1 0.235836 5.54271 26.88
1664 2 1.85086 7.27934 26.7076
2661 2 0.155843 3.8085 28.5591
3160 2 1.9999 5.3726 28.5134
537 2 3.71364 3.52971 28.7992
541 3 7.03663 7.02073 28.6952
1163 2 5.34312 5.31199 28.6038
1661 3 5.38051 3.50708 26.7895
2162 1 3.53696 5.27087 26.9079
2666 2 3.56995 7.34924 28.4974
2665 2 5.60788 7.03371 26.5828
2663 3 7.21059 3.62561 28.5936
3161 1 7.31872 5.50968 26.9466
538 1 10.7751 3.47065 28.5069
100 3 10.9287 5.45279 26.7621
2667 3 10.8965 7.02902 28.6652
2662 3 8.78492 3.63937 26.7094
3162 3 9.15522 5.48091 28.5883
3666 1 8.77258 7.20885 26.7823
542 3 12.531 7.32909 26.7981
543 2 14.2541 6.96067 28.6452
1165 1 14.2321 5.62753 26.9454
1164 3 12.5471 5.23444 28.6007
2664 3 14.1886 3.53229 28.3048
3663 2 12.444 3.3471 26.7264
539 2 15.9814 3.73778 26.7158
1667 2 16.0201 7.27609 26.8042
3163 3 16.2696 5.469 28.5663
1166 1 1.80648 8.93455 28.5899
2165 1 0.133191 9.03086 27.1044
2669 2 -0.0512577 10.7664 28.5772
2668 1 1.78297 10.6971 26.9192
544 3 3.63229 10.5428 28.567
103 3 6.95058 8.86169 26.9594
2670 2 7.12892 10.7764 28.5475
3165 2 5.43858 9.02776 28.7528
3164 1 4.07374 9.10026 26.6736
3669 2 5.3478 10.824 26.8059
545 3 8.928 10.7284 27.0076
546 2 10.8353 10.9191 28.4941
1168 3 10.7259 8.98812 26.8659
1167 2 8.87121 9.03425 28.6155
1670 3 12.8637 10.7551 26.7526
2168 1 14.6033 8.91901 26.8285
2672 3 14.6621 10.8289 28.5049
3166 3 12.8993 9.04006 28.6664
1169 2 15.9981 8.96946 28.7397
2671 1 16.4463 10.5187 26.7297
547 3 0.230576 14.507 28.7864
3168 3 1.95058 12.8458 28.586
3167 3 0.150893 12.2472 27.0101
3672 1 1.4535 14.4043 26.9073
548 3 5.37522 14.362 26.6931
549 2 7.22275 14.0855 28.7821
106 3 3.70733 12.5734 26.9238
1171 2 7.19888 12.3844 26.8282
1170 3 5.34494 12.6269 28.5183
2673 1 3.67673 14.4061 28.7269
1673 3 8.97115 14.1355 27.0516
2171 1 10.8228 12.4166 26.7768
2675 2 10.7912 14.1853 28.5915
3169 1 9.10645 12.3991 28.5601
550 1 14.5143 14.3155 28.5871
1172 1 12.7782 12.6565 28.7892
2674 2 12.6704 14.3493 26.9973
3170 1 14.532 12.3237 26.9235
3171 3 16.2543 12.5264 28.7065
3675 3 16.4638 14.3615 26.7895
109 2 -0.00145487 16.1746 26.7713
1173 2 1.73712 16.2755 28.4937
1174 3 3.40253 16.0799 26.907
2174 3 7.07792 16.1307 26.9495
3172 2 5.3735 16.0568 28.367
1175 3 9.01703 15.9557 28.7435
3173 1 10.7591 16.0744 26.8557
112 2 14.473 15.9424 26.8701
3174 2 12.5317 15.9405 28.6923
1176 2 16.0872 16.1998 28.6151
1657 2 1.80061 0.0287259 30.4401
2158 3 0.153818 1.56821 30.1561
95 3 3.66691 1.6487 30.5995
2160 1 7.26212 1.64036 30.2866
3658 2 5.56551 -0.0713574 30.4687
96 1 10.5534 1.71497 30.2151
1659 2 8.95142 -0.367802 30.3318
2161 2 14.354 1.96835 30.2914
3659 1 12.7236 -0.0157588 30.4082
1660 1 16.0773 0.367329 30.3508
98 2 0.0569166 5.3541 30.2396
1665 3 1.81995 7.04076 30.1215
3661 2 2.04288 3.67843 30.2793
99 3 6.91194 5.51972 30.3988
1662 1 5.48884 3.3601 30.388
2163 2 3.80029 5.37545 30.3338
3665 1 5.40445 7.37167 30.4427
1666 1 8.97496 7.33248 30.4209
2164 3 10.6822 5.35327 30.4887
3662 3 8.7375 3.74971 30.3156
101 3 14.2465 5.28118 30.1801
1663 2 12.489 3.48396 30.19
3667 2 12.7106 7.26406 30.4725
1668 3 16.2142 6.96015 30.4362
3664 2 16.059 3.49154 30.1484
2166 3 0.196875 9.10794 30.3318
3668 3 1.80228 10.9036 30.3431
102 2 3.7131 9.08722 30.3541
1669 1 5.26274 10.7424 30.3573
2167 2 7.35198 8.99225 30.2385
104 2 10.7766 8.95496 30.102
3670 3 9.1177 10.9704 30.3629
1671 1 12.6169 10.5867 30.4528
2169 2 14.3364 9.08073 30.624
3671 2 16.3028 10.676 30.4531
105 2 -0.0321494 12.5148 30.4824
1672 1 1.94102 14.1522 30.4622
107 3 7.30142 12.3685 30.4166
2170 1 3.77223 12.4546 30.3421
3673 1 5.45676 14.3313 30.3559
1674 2 8.90858 14.3302 30.5014
2172 3 10.9137 12.6257 30.4307
108 1 14.5258 12.5362 30.4716
3674 2 12.8861 14.263 30.3651
1675 1 16.2456 14.3296 30.2813
2173 2 0.115432 16.1872 30.4766
110 3 3.84797 15.9773 30.6422
2175 3 7.21468 15.9741 30.244
111 1 10.8815 15.9543 30.439
2176 1 14.424 16.3104 30.4196
113 3 0.142158 2.09596 33.9684
2676 1 0.0446552 0.189411 32.0487
3175 2 1.69135 2.00683 31.9924
3676 2 1.81955 0.242779 33.861
551 1 3.76391 0.0401278 32.4158
114 2 7.29232 1.86212 33.9791
1177 1 5.62974 1.62612 32.1714
1676 3 5.53511 -0.180334 33.9831
2177 3 3.72348 1.75385 33.847
2677 1 6.96086 0.0216721 32.3132
552 1 10.9545 0.0257152 32.0072
2178 3 10.7732 1.94488 33.9365
3176 1 8.8964 1.85982 32.1603
3677 2 8.95494 0.146888 33.8555
115 3 14.1673 1.94048 33.7443
1178 3 12.399 1.93671 31.9329
1677 1 12.431 0.210726 33.8193
2678 3 14.3813 -0.139534 32.3495
3177 1 16.0469 1.82408 32.1511
3678 2 16.1181 0.0279952 33.8914
553 3 -0.000298096 3.56216 32.1072
1179 2 1.77356 5.35705 32.0706
1678 2 2.09021 3.51847 33.8334
2179 1 0.390782 5.31389 33.8117
2681 2 0.381644 7.1904 31.9634
3681 3 1.97435 7.09274 33.852
554 1 7.09364 3.35728 32.1604
556 2 3.62552 7.19966 32.2498
116 1 3.61573 5.26151 33.9396
1681 1 5.47818 7.12527 34.1472
2180 3 7.21501 5.40713 33.8874
2682 1 7.18225 7.04409 32.101
2679 2 3.87319 3.5356 32.1328
3178 2 5.25693 5.41852 32.3551
3679 3 5.32226 3.73087 34.1293
557 3 10.6562 7.10866 32.0892
117 3 10.7175 5.31982 33.8775
1180 2 9.0111 5.36287 31.8722
1679 3 8.93324 3.52065 33.8577
2680 1 10.6793 3.46766 31.9081
3682 2 8.98 7.25051 33.7267
555 1 14.2168 3.57496 31.8202
1682 1 12.7108 6.95822 33.7946
2181 1 14.3299 5.29992 33.9524
2683 2 14.4031 7.20405 32.0985
3179 1 12.4697 5.09926 32.0475
3680 1 12.5384 3.57908 33.7942
1181 3 16.2926 5.37893 32.1408
1680 1 16.005 3.60101 33.7729
3683 2 16.3012 7.23395 33.7396
558 1 -0.0507625 10.6605 32.0773
118 2 0.0397675 8.91282 33.8812
1683 3 1.64134 10.7535 33.936
3180 1 1.71774 9.14431 32.2953
559 1 7.3251 10.6523 32.0152
119 2 7.09423 9.00209 33.8435
1182 1 5.50579 8.93209 32.3482
2182 2 3.65568 9.0366 33.85
2684 3 3.62499 10.8259 32.2484
3684 1 5.40597 10.8462 33.8638
1684 2 8.93238 10.4648 33.9308
2183 1 10.6409 8.85582 33.8981
2685 1 10.8593 10.6116 31.8995
3181 2 8.97962 8.96249 32.0872
560 2 14.428 10.7751 32.0895
120 3 14.2795 8.99222 33.8877