ITEM: TIMESTEP
5000
ITEM: NUMBER OF ATOMS
4000
ITEM: BOX BOUNDS pp pp pp
1.2545755561971461e-01 3.5608602444380168e+01
1.2545755561971461e-01 3.5608602444380168e+01
1.2545755561971461e-01 3.5608602444380168e+01
ITEM: ATOMS id type x y z
1 2 0.0693565 1.94801 1.68635
1563 2 0.0335151 0.163718 0.0931705
2064 1 1.91914 1.75162 0.0997366
3561 2 1.89066 0.0019552 1.82769
564 1 3.66766 1.92578 1.78676
565 1 7.29204 1.91495 1.94265
1565 2 7.21211 0.162378 0.256203
2065 2 3.80464 0.107888 0.0151257
3061 2 5.49488 1.89447 0.261669
3562 2 5.20708 0.072847 1.9357
566 1 10.7261 1.84628 1.89473
1070 1 10.8363 -0.0245606 0.0703841
3063 1 8.99537 0.192293 1.92972
3062 3 9.03164 1.91335 0.0531679
567 1 14.2552 1.90005 1.78324
2566 1 14.2516 0.0731891 0.012575
3064 2 12.4815 1.87069 0.0405958
3563 1 12.5204 0.00220585 1.9211
2 1 17.9044 0.160181 0.172761
3 3 16.0117 0.0587132 2.04576
3066 1 17.8109 1.96143 1.88308
3065 3 16.0673 1.86032 0.199974
4 2 1.73717 5.35647 0.00872049
5 3 1.83251 3.45899 1.80105
6 3 1.78681 6.94838 1.8154
1071 3 0.133975 5.26558 1.95453
3067 1 -0.0120724 3.6194 0.0407569
3565 2 0.0231299 7.21162 0.116306
7 2 5.48107 5.38845 0.187165
8 3 3.59153 6.81695 0.226184
1072 1 7.16841 5.40303 1.88601
1075 3 5.51022 7.20921 1.8619
1074 2 3.66568 5.33371 1.94099
1567 1 7.33016 7.13628 0.0266485
2570 2 7.26417 3.56972 0.07935
2569 3 3.53914 3.67186 0.0889982
3569 2 5.56345 3.67301 1.85898
9 1 8.96395 5.43578 0.00999544
10 3 9.06634 3.62245 1.89247
1077 2 10.6489 7.17136 0.0466817
1076 3 10.6656 5.4642 1.88441
1568 1 9.01155 7.39152 1.64179
3068 2 10.6811 3.70253 0.0684424
11 3 12.4474 5.60083 0.135763
12 2 14.2765 3.66334 0.211518
570 2 12.4753 3.61636 1.63164
1571 1 14.2684 7.27055 0.259268
1570 3 14.2095 5.43017 1.89272
1569 2 12.5115 7.29101 1.95808
572 2 16.0048 3.61108 1.97308
1081 2 15.9334 7.30735 1.88897
1079 1 17.7044 5.37431 1.8246
1078 2 16.0411 5.32956 0.102823
1573 2 18.0164 3.61924 0.142103
2070 1 17.6977 7.31461 0.238382
575 2 1.92247 10.5443 1.894
1082 2 1.93352 8.78309 0.0658606
1574 2 0.137949 8.97495 1.81796
3070 1 0.168053 10.6063 0.0702249
576 3 3.64744 10.6379 0.037656
1085 3 5.5628 8.98765 0.0925456
1083 2 5.42454 10.8874 1.84679
1577 1 7.10755 10.7411 0.23354
1576 2 7.23369 9.02156 1.81632
1575 2 3.55038 8.91675 1.73811
14 2 10.791 10.7753 0.0227533
1087 1 9.06879 10.7507 2.00482
1086 2 9.00607 9.21011 0.105607
2071 3 10.8159 8.983 1.8426
580 1 12.4663 10.6813 1.78868
1088 3 14.3707 10.7149 0.00309947
2073 2 12.5682 9.00415 0.0680869
2074 3 14.3721 9.24495 1.86894
15 2 17.8753 9.06552 1.8789
1581 3 16.1757 10.8282 1.79135
2076 1 17.8566 10.6911 0.108319
2075 2 16.0123 8.98242 0.0931606
2079 3 1.87875 12.6544 0.0984816
2078 2 2.00677 14.264 1.70492
2077 1 0.171305 12.554 1.72045
2572 2 -0.0363682 14.3702 0.0321034
2082 1 5.67156 14.3909 1.74756
2081 2 3.79219 12.5926 1.70313
2080 1 5.66651 12.6094 0.0822334
2576 3 7.28633 14.2296 0.115628
2575 2 7.27861 12.4846 1.98547
3071 2 3.7656 14.4037 -0.145299
1583 2 9.00293 14.2002 1.96017
2084 1 10.8261 14.2273 0.206819
2579 2 10.8591 12.4935 1.88936
3073 3 9.01909 12.3833 0.26524
2085 1 12.5217 14.2558 1.78321
2580 1 14.5166 12.4582 1.99393
3074 3 12.607 12.4853 0.161323
3574 1 14.2921 14.3712 0.207562
581 2 17.9371 12.6011 1.9722
1089 2 17.7058 14.4619 0.085393
2583 1 16.1347 14.3273 1.97876
3075 3 16.1167 12.4723 0.0481257
16 2 -0.0175165 17.8035 0.151645
2086 2 1.91983 17.8191 1.92898
2584 2 0.0762044 16.0093 1.82939
3076 1 1.76858 16.0104 0.0376775
17 1 5.55129 15.9587 0.20303
1090 2 3.63729 17.8249 0.0652123
2585 2 7.2234 17.8152 0.237534
3079 1 5.52195 18.0757 1.83874
3078 3 7.33774 16.2414 1.99982
3077 1 3.75626 16.0222 1.73539
18 3 9.09289 15.9918 0.0908744
1585 3 10.8268 17.9059 0.384422
3080 2 10.7288 15.9138 2.03328
3578 2 8.93743 17.9525 2.05986
19 3 12.579 16.0761 0.255033
2088 1 14.1642 17.9732 0.0953528
3081 1 14.3294 16.1582 2.09868
3581 2 12.6803 17.7261 2.10268
20 1 15.9151 16.1369 0.0598918
1586 3 17.8155 16.0686 1.91165
3083 3 16.0508 18.0906 1.77962
3082 3 17.8175 18.125 0.0632468
584 1 1.89996 1.94986 7.28473
1564 2 0.16062 0.0659543 3.62774
2588 2 1.79685 0.214759 5.43577
2563 2 1.8929 1.88684 3.52236
3084 2 0.158429 0.343584 7.46274
3583 1 0.155193 1.91259 5.48082
22 1 5.2955 1.88882 7.02729
1069 1 3.59583 0.090912 3.66321
1566 2 7.04291 0.0177071 3.56214
2089 1 5.4775 0.0397209 5.35343
2590 2 3.61267 0.182706 7.38098
2564 1 5.48887 1.88301 3.56979
3085 3 7.07003 0.165139 7.34157
3585 1 3.62791 1.83622 5.18142
3584 1 7.22122 1.85983 5.41237
586 3 8.90716 1.73939 7.27557
2066 2 10.6989 0.0541845 3.67961
2593 1 9.0238 0.223296 5.34217
2565 2 9.00062 1.82293 3.57774
3086 3 10.6 0.0286249 7.18147
3586 3 10.6127 1.94114 5.46638
23 2 12.5171 2.06096 7.20788
24 3 14.2717 0.350978 7.20314
25 3 14.3092 1.95521 5.47486
2568 3 14.2692 0.0638326 3.72171
2567 2 12.5096 1.94028 3.70097
3087 2 12.4487 0.334333 5.37881
568 1 17.9549 0.254312 3.82208
588 2 16.1689 1.95935 7.28721
1587 3 17.7259 0.0347035 7.28089
3088 3 16.0761 0.105458 5.34934
3588 1 18.112 2.01774 5.53871
3564 1 15.9324 1.92514 3.49268
27 3 1.94728 5.48089 7.27833
28 3 1.77565 7.21264 5.46303
589 3 0.205915 5.44126 5.36993
2067 3 0.138438 3.56352 3.70506
3090 3 1.9125 3.64587 5.42649
3590 3 0.102495 7.29575 7.15262
3589 2 0.175615 3.64298 7.18407
3567 2 0.1095 7.17469 3.63987
3566 3 1.98281 5.36577 3.66847
29 1 3.60386 3.74531 7.15536
593 3 3.58106 7.18132 7.35604
592 3 7.24714 5.58511 5.40173
591 2 7.20626 7.20643 7.26675
590 3 3.6096 5.39427 5.36636
1095 1 5.32243 5.59622 7.00202
1094 1 5.38119 7.42362 5.3867
1073 3 3.70662 7.11085 3.54481
2068 1 7.18758 7.33336 3.5259
2069 1 3.64867 3.75285 3.54574
3593 1 5.44847 3.78432 5.40409
3592 1 7.2936 3.69179 7.13015
3570 1 5.3837 5.29924 3.79907
3568 2 7.16243 3.70971 3.57448
31 3 8.97449 3.80234 5.33613
569 2 10.7534 7.12496 3.62089
594 1 10.7618 5.38718 5.27051
1097 2 8.96057 5.40272 7.1787
1590 3 9.07135 7.21627 5.50184
1589 2 10.6913 7.26747 7.15404
3594 2 10.5218 3.64779 7.38119
3572 2 10.7575 3.62804 3.66362
3571 3 8.92853 5.50649 3.38691
33 3 12.5024 3.6957 5.4118
35 2 14.3242 3.85499 7.11631
571 2 12.468 5.42859 3.58459
595 1 14.4291 7.30767 7.11409
1100 3 14.3179 5.5592 5.43917
1099 3 12.289 5.43719 7.22278
1592 3 12.5601 7.23493 5.36403
1572 3 14.3465 7.21459 3.65104
3069 1 14.1969 3.8126 3.67529
573 1 16.1097 5.47122 3.59189
1080 3 17.7799 3.66632 3.56594
1595 1 16.0648 7.25683 5.40427
1594 2 16.0772 5.60529 7.2151
2094 1 18.0153 7.39654 7.24877
2092 2 17.8764 3.79509 7.32088
2571 3 17.8382 7.18917 3.58887
3092 3 17.977 5.49851 5.36986
3595 3 15.9799 3.63406 5.43937
13 3 0.00840419 10.6806 3.53029
597 2 0.199388 10.8258 7.04671
596 3 1.96212 10.8319 5.24327
574 1 1.78639 9.00404 3.67192
1102 2 1.75134 9.27487 7.11392
1101 3 0.126952 9.1006 5.53104
38 2 3.92819 10.7175 7.0949
578 3 3.70489 10.7574 3.60669
577 3 5.37597 8.99504 3.4881
1106 1 7.16448 10.6795 7.24392
1104 1 5.43131 10.7117 5.43203
1103 2 3.69674 9.04684 5.29275
1084 1 7.16153 10.6778 3.72239
1597 1 7.23185 8.95548 5.47987
1596 2 5.28824 8.81617 7.20779
39 2 10.7958 10.8572 7.19516
599 1 8.98527 10.8644 5.46484
579 3 10.8777 10.788 3.86641
1107 1 8.98154 9.05954 7.20037
1578 1 9.12692 8.8018 3.64699
2097 3 10.7055 8.98847 5.43889
1108 2 12.5316 10.7347 5.52804
1598 3 12.4517 8.98394 7.09179
1579 2 12.5016 8.94454 3.65231
2072 1 14.1723 10.8147 3.62106
2099 3 14.5463 10.8855 7.25515
2098 1 14.2818 9.04443 5.58005
1599 3 16.0982 8.99196 7.19232
1580 1 16.1994 9.05433 3.58732
2100 2 16.1064 10.836 5.53676
3093 1 17.961 10.817 7.21222
3597 1 17.8186 8.97733 5.42851
3573 3 17.9107 10.7496 3.79855
1110 1 0.0739602 14.3813 7.22251
1582 3 1.89806 12.6441 3.63886
2103 3 1.93674 12.3608 7.23421
2102 2 1.8727 14.3829 5.38323
2101 3 0.187749 12.5554 5.43867
2573 2 0.215379 14.2439 3.44296
1112 1 7.13863 14.1943 7.13101
1600 1 5.51164 12.4146 7.22424
2104 3 5.43637 14.4357 5.30345
2083 1 3.6724 14.3666 3.54272
2601 3 7.23714 12.4429 5.26563
2600 1 3.69368 12.5953 5.41519
2599 1 3.59246 14.4057 7.23147
2577 2 7.26082 14.3864 3.69635
2574 3 5.34756 12.5485 3.5584
2604 2 9.15439 14.3303 5.4796
2603 3 10.8258 14.248 7.42095
2602 3 10.9511 12.6741 5.53263
2578 1 9.18307 12.5525 3.77489
3097 1 8.99147 12.5928 7.16645
3072 2 10.8826 14.1314 3.70449
602 1 14.1605 14.2417 7.25987
1603 3 12.7007 12.5164 7.29379
2605 3 14.2707 12.4278 5.34803
2581 2 12.6727 12.5374 3.51711
3098 1 12.5933 14.4583 5.40048
3575 3 14.3999 14.258 3.62735
1114 1 18.037 12.4943 5.5398
1584 1 17.9366 14.2268 3.4911
2582 1 16.0953 12.28 3.68068
3100 3 16.2361 14.2282 5.46654
3099 3 16.1934 12.62 7.22962
3599 2 17.9503 14.3472 7.09563
582 2 0.156165 17.7983 3.56891
1605 1 1.88701 17.7192 5.40463
1604 1 1.84366 15.9287 7.09165
3104 2 0.00528987 15.9977 5.29283
3103 3 0.0949311 17.7517 7.09065
3576 3 1.99266 16.1031 3.59425
2087 2 3.7665 17.7816 3.49651
2607 2 5.4577 17.7309 5.34115
2586 2 7.46343 17.8858 3.79737
3107 1 7.26483 17.8879 7.23969
3106 2 5.5034 15.9754 7.09817
3105 3 3.59186 17.7253 7.01217
3602 2 3.69132 16.0364 5.4269
3601 3 7.25624 16.0554 5.4672
3577 1 5.49984 16.1687 3.52278
1091 3 10.8315 17.9018 3.83591
2107 2 9.04049 16.0325 7.25196
2608 1 9.10171 17.9546 5.61728
3109 1 10.8172 17.8448 7.27011
3603 1 10.8862 15.9993 5.54141
3579 1 9.06951 15.9903 3.65394
41 3 14.4958 15.9041 5.47891
2610 1 12.5639 17.8637 5.41071
2609 1 14.3441 17.7929 7.17725
2587 2 14.3343 17.9346 3.79627
3604 1 12.6364 16.0255 7.19242
3580 2 12.7282 15.9822 3.75219
583 3 16.2758 16.0594 3.74473
1606 3 17.9409 17.8571 7.35931
2109 3 16.2745 16.0682 7.35018
3112 2 16.1645 17.8063 5.43284
3110 1 17.9618 16.0325 5.51728
3582 3 17.9819 17.8442 3.64953
21 1 0.0201421 1.91029 9.0457
604 3 0.0218106 0.0787594 10.96
2110 1 1.87703 1.92813 10.7118
2589 1 1.96844 0.192238 9.01756
585 1 7.00767 2.13047 8.92635
1092 3 5.4017 0.244449 9.07764
1608 3 7.17385 0.172747 10.8439
1607 2 3.57277 0.354477 10.9252
2111 1 5.39056 1.95158 10.6302
2591 2 3.71063 2.0514 9.0435
1116 3 10.494 0.160161 10.6791
2612 3 8.80724 1.96972 10.7515
2592 3 10.6537 1.86772 8.81187
3587 3 8.71766 0.199495 9.07754
587 2 14.3392 2.03816 8.9221
1609 3 14.2075 -0.0186736 10.729
2090 2 12.5712 0.11821 8.95906
2613 3 12.4127 1.87018 10.6665
26 3 16.0505 0.1484 9.03959
2594 1 17.8796 1.89223 8.89548
3116 3 16.1069 1.91666 10.7115
3115 1 17.8417 -0.0276171 10.6712
1093 2 1.80696 7.2096 9.09882
2091 2 1.87413 3.67432 9.18325
2615 3 0.0131897 3.81692 10.811
3118 1 0.143449 7.02548 10.8028
3117 2 1.81622 5.45654 10.7575
3089 2 0.0814172 5.43214 9.02405
30 1 5.43826 3.76082 8.81589
45 3 7.19668 7.22705 10.8166
1096 1 3.72901 5.42898 9.07884
2112 3 7.22652 3.72847 10.8036
2616 1 3.76513 3.75089 10.8311
3091 1 7.13277 5.40806 8.93468
3608 2 3.60534 7.1729 10.8215
3607 2 5.36322 5.55594 10.7314
3591 1 5.37243 7.30034 9.08933
46 1 10.8831 7.25532 10.7169
1098 2 10.713 5.5109 8.88833
1591 2 8.88387 3.69573 9.1278
1588 1 8.92823 7.27873 8.94006
2113 2 10.7756 3.58768 10.5088
3609 1 8.96985 5.49713 10.6956
32 2 12.4792 7.19834 8.86357
34 2 12.6205 3.68776 8.96432
36 3 14.12 5.53789 8.93924
609 1 14.1046 7.30845 10.6298
3119 1 14.368 3.79814 10.7744
3611 1 12.4153 5.60532 10.7129
1120 1 17.9561 3.6981 11.0972
1615 1 17.8759 7.33545 10.6997
1593 1 17.9144 5.49834 9.07464
2093 3 16.0095 7.33762 8.97953
2595 1 16.1316 3.71591 8.94926
3612 1 15.9548 5.69823 10.697
48 1 1.8992 8.9198 10.8972
2095 3 0.117166 9.01797 9.00111
2596 3 1.90424 10.6936 9.07762
3120 1 0.192898 10.8035 10.6817
37 3 3.57481 9.08179 8.9077
49 1 5.19301 9.00648 10.8711
612 1 7.25637 10.8523 10.7816
1105 3 5.48164 10.7749 8.90533
2096 2 7.10347 8.90942 9.09266
3121 2 3.60768 10.7886 10.8781
613 2 8.98378 8.96282 10.6028
598 1 10.7518 9.09215 8.93981
3613 2 10.734 10.7511 10.7856
3596 2 8.90932 10.7945 8.87425
50 3 14.2974 10.8818 10.7586
614 2 12.3525 9.09329 10.8373
2598 3 12.4707 10.7072 8.92856
2597 2 14.1811 9.06343 8.91198
51 1 17.9727 10.7007 10.8262
600 3 17.8099 8.96656 8.98875
1122 1 15.8677 8.92581 10.8523
1109 1 16.1203 10.651 9.21667
616 2 0.0954905 14.2187 10.823
601 2 -0.0171709 12.4127 8.86535
1123 3 1.88522 12.6711 10.9401
3094 2 1.6924 14.1601 8.95672
1124 3 5.50766 12.4538 10.9473
1111 3 5.48015 14.2807 8.95418
1619 1 7.27672 14.3119 10.9216
1618 1 3.76223 14.2362 10.6237
1601 3 7.26459 12.5944 9.06944
3095 1 3.73532 12.4222 9.08889
617 3 10.7111 14.3103 10.7077
1125 2 8.88564 12.6214 10.8847
3096 1 8.93619 14.2627 8.98974
3598 3 10.6919 12.3798 9.07761
1126 3 14.3841 14.2375 10.8266
1113 1 12.5681 14.2665 9.17601
1620 1 12.5904 12.4891 10.7871
1602 1 14.4447 12.6017 8.99706
1621 3 16.1877 12.571 10.7021
3126 2 17.8352 14.2913 10.741
3102 3 16.1931 14.3453 9.03246
3101 1 17.9217 12.4555 8.90419
1623 1 -0.0458148 17.7669 10.7135
2119 3 1.76839 16.0465 10.7639
2606 1 1.81913 17.9967 8.94017
3600 3 0.103462 16.2123 8.86478
40 3 7.24598 16.0309 9.03316
619 2 3.73539 17.7869 10.7353
1127 1 7.27881 17.7267 10.8146
2120 2 5.57712 15.9979 10.9071
2106 1 3.55483 16.0157 9.06646
2105 2 5.53566 17.7412 9.0048
1624 3 10.7787 17.936 10.8633
2108 3 10.717 16.0822 9.0728
2625 1 8.94703 16.0321 10.8913
3108 2 9.12682 17.7553 8.94003
603 3 14.3014 16.0318 8.99609
1115 2 12.6267 17.8457 8.9606
2626 2 12.6022 16.1587 10.7128
3620 2 14.1957 17.8888 10.8161
2628 3 16.0155 16.0147 10.8482
2611 1 18.1308 16.0356 9.12339
3127 2 17.8819 17.9295 10.6531
3111 3 16.0399 17.9498 8.96253
42 1 0.00769781 1.84135 12.6555
2121 1 -0.158979 0.146325 14.4144
2629 3 1.93513 1.85968 14.4885
3113 1 1.79218 0.323488 12.7143
43 3 3.81697 1.94954 12.6174
605 3 7.26864 1.90759 12.8645
1625 3 7.21087 -0.0945498 14.3735
2123 2 3.64413 0.25201 14.3694
3128 1 5.42307 1.97799 14.4895
3605 3 5.41493 0.245227 12.6349
606 2 10.5439 1.8711 12.4954
1627 3 10.6785 0.216655 14.1487
3129 1 8.95499 1.92542 14.2686
3606 1 8.94607 0.104119 12.42
1117 1 14.25 1.88341 12.3791
2632 3 14.2867 0.0961018 14.1295
3131 2 12.3923 1.94795 14.2166
3114 2 12.2772 0.145716 12.3162
44 2 16.3131 0.147813 12.4998
501 2 17.7775 0.158494 14.2862
2614 1 17.9849 1.75236 12.526
3132 3 16.1165 1.75726 14.2294
607 1 1.79336 3.71931 12.4752
1119 2 1.78058 7.20025 12.6227
1118 1 -0.0770794 5.4949 12.5934
2634 2 0.00536394 7.31187 14.2845
2633 3 0.0484151 3.74182 14.2454
3624 2 1.75058 5.45797 14.2447
60 3 7.06661 7.2333 14.3721
608 3 5.58227 3.71452 12.5975
1612 3 7.21483 5.63312 12.4793
1611 2 5.32885 7.13809 12.4603
1610 2 3.63821 5.57729 12.5499
2128 1 7.15726 3.92618 14.3663
2126 1 3.68418 3.70661 14.4112
3136 3 3.53909 7.32659 14.3091
3626 1 5.27773 5.62143 14.3828
1613 3 10.851 5.37516 12.4802
2114 3 8.82085 7.4172 12.5411
3137 2 10.6166 3.83422 14.3031
3629 1 8.94912 5.54317 14.1004
3628 2 10.6226 7.28636 14.3328
3610 2 8.988 3.6325 12.5513
610 3 12.4424 3.55439 12.4048
1614 1 14.3458 5.56896 12.5192
2617 2 12.6006 7.17625 12.5088
3138 1 14.2496 3.72151 14.2811
3631 2 14.4759 7.20277 14.2548
3630 3 12.3808 5.49609 14.3699
47 1 17.8519 5.73648 12.5976
65 1 16.096 5.26622 14.2408
1138 1 17.7778 3.58776 14.3788
1121 1 16.1629 3.68461 12.4456
2618 2 16.0611 7.26789 12.4708
3140 1 17.8523 7.31389 14.3959
67 3 1.68021 9.18249 14.344
611 1 1.88002 10.8614 12.4342
2115 1 0.128962 8.98255 12.4716
2636 2 0.0376337 10.9394 14.2688
69 1 7.02542 10.7318 14.4439
70 3 5.36219 8.96576 14.3371
1616 2 5.41403 10.8067 12.6801
2116 1 3.59641 8.99379 12.5435
2619 1 7.1543 9.11707 12.5186
3633 3 3.59088 10.6439 14.3957
71 3 8.84419 9.0494 14.3928
2117 2 8.96933 10.6705 12.5902
2620 1 10.7835 9.02236 12.615
3141 2 10.7869 10.5643 14.4045
510 2 12.4738 8.92463 14.3047
1617 2 12.4778 10.7159 12.7183
3122 3 14.1405 8.95014 12.484
3635 1 14.2269 10.7393 14.1136
511 3 16.0713 8.96269 14.4634
615 1 17.7872 9.04046 12.7835
1639 2 17.8315 10.7369 14.3608
2118 1 16.1516 10.74 12.6424
513 2 0.0383219 14.0153 14.5725
514 1 1.94667 12.5973 14.3386
2621 1 -0.00578979 12.602 12.5164
3123 1 1.89893 14.1836 12.5943
72 1 7.11598 14.1569 14.4056
515 3 5.3464 12.6059 14.3298
516 1 3.77541 14.3204 14.3693
3125 3 7.19141 12.4613 12.585
3124 2 3.62313 12.4446 12.5381
3614 1 5.39601 14.3429 12.565
73 2 10.8325 14.4489 14.4183
1145 3 8.93455 12.5046 14.4057
3616 3 10.7078 12.5906 12.6485
3615 2 8.96505 14.3392 12.7444
1147 1 12.548 12.4972 14.1446
1146 2 14.2637 14.2043 14.2155
2622 1 12.5285 14.349 12.4051
3617 1 14.4038 12.5318 12.6046
1149 3 16.2144 12.3857 14.4351
1622 2 17.8508 12.6344 12.6165
3146 2 17.9222 14.1955 14.3602
3618 3 16.0892 14.1933 12.5599
52 2 0.225217 16.0313 12.7509
518 2 0.253503 17.7679 14.3444
1150 2 1.9757 15.9657 14.4449
2623 2 1.90996 17.8431 12.3482
53 3 3.63404 16.0061 12.529
618 1 7.17344 16.143 12.7127
1151 1 3.53773 17.7447 14.2714
1642 3 5.31373 16.1013 14.2862
2142 3 7.14769 17.8421 14.308
2624 2 5.37339 17.9071 12.4499
54 2 10.7505 16.0829 12.4759
1643 2 8.96692 16.1971 14.4966
2649 1 10.8306 17.7231 14.1377
3619 2 8.95087 17.7642 12.519
55 1 12.5283 17.7743 12.5585
620 1 14.4099 15.9361 12.6125
1646 3 12.5585 15.9121 14.315
1644 3 14.3035 17.7942 14.2904
56 3 15.9862 17.8743 12.5803
1647 2 16.1231 16.0351 14.2443
2627 1 17.7942 16.2159 12.4481
3644 1 17.8909 17.9306 14.3604
57 2 1.80899 0.137226 16.1072
621 1 0.0129766 1.93427 16.195
1128 1 -0.0474926 0.0075078 17.8901
2122 1 1.79305 1.85286 17.9898
58 1 5.34064 0.138716 16.0709
1132 3 7.2991 0.330007 18.0862
1131 2 7.21093 1.82766 16.1668
1130 2 3.75035 0.197938 17.8787
1129 2 3.68373 1.92793 16.2966
2630 3 5.53118 1.98477 18.1249
1133 3 10.7814 1.8845 16.0645
1626 2 10.8845 0.196552 17.7657
2631 1 9.16129 1.99116 18.0418
3621 3 9.00884 0.225528 16.1973
59 3 12.554 0.168024 15.9102
1134 3 14.2573 1.86903 15.9199
2124 1 14.1822 0.0644688 17.7845
3130 1 12.5418 1.92439 17.8238
502 2 16.1625 0.181053 16.1035
3133 1 16.0686 1.91645 17.6892
3623 2 17.8556 0.250777 17.8864
3622 2 17.8606 1.96814 15.9402
503 2 1.69845 3.72417 16.2491
504 1 1.79665 7.28844 16.1149
1628 1 0.0139783 5.33732 16.119
2125 2 0.190182 3.62954 18.0699
3134 1 0.138754 7.23914 17.9984
3625 2 1.89609 5.38372 17.9098
61 3 5.42022 3.69902 16.1393
505 2 3.61 7.35178 17.8312
1135 1 7.27579 7.19189 18.0856
1631 1 5.33725 7.36265 16.1769
1630 3 3.53638 5.37299 16.1166
1629 1 7.0822 5.6952 16.0741
2127 2 3.58806 3.57292 17.996
3135 2 7.47182 3.59343 17.8081
3627 2 5.17596 5.55233 17.9248
62 1 9.08427 5.46575 17.8848
63 1 10.7907 7.14227 17.9845
506 1 9.09731 3.76981 15.9725
1632 3 10.5785 5.52675 15.9914
2129 1 8.8095 7.18064 16.1853
2635 1 10.9358 3.83452 17.8559
64 2 12.6537 5.35257 17.912
1137 3 14.1881 7.27822 17.8944
1136 2 12.3894 3.67995 15.8333
2131 3 14.3402 5.50465 16.0383
2130 2 12.5576 7.32108 16.0575
3139 3 14.1851 3.45942 17.8119
66 1 17.7867 5.35863 16.0828
507 1 16.0932 5.3267 17.9134
1140 2 17.9269 3.56516 17.9276
1139 2 15.9702 3.69054 16.1179
1634 3 17.8896 7.19121 17.8255
1633 1 16.1557 7.22125 16.1208
508 3 1.81063 8.98596 17.9942
1141 3 1.8504 10.8592 16.0923
2132 3 0.018979 9.0391 16.1818
3632 2 0.112046 10.7625 17.9176
68 1 3.79174 10.7254 17.908
509 3 7.30907 10.7028 18.0197
1142 3 5.54227 8.92963 17.9861
1635 2 5.51991 10.7578 16.0973
2134 2 7.08001 8.94236 16.1409
2133 3 3.6699 9.11218 16.0537
1143 2 8.93889 8.77985 17.8897
1636 3 8.98977 10.7642 16.2728
2637 1 10.6662 9.00914 16.0668
3634 1 10.7035 10.5265 18.007
1144 3 12.4976 10.6243 16.0969
1638 2 12.4344 8.95932 17.8666
1637 3 14.2643 10.6536 17.8831
2638 3 14.2424 8.835 15.9994
512 1 17.98 9.10624 16.1653
1640 3 16.0845 8.8943 17.8919
2135 1 16.0775 10.6459 16.1551
2639 3 17.7737 10.7346 18.0286
2137 1 0.149381 14.2332 17.8733
2136 2 2.10599 12.4347 17.9471
2641 2 1.98841 14.2438 15.9368
2640 2 0.0519406 12.5327 16.2903
2140 1 7.28717 14.2588 17.948
2139 2 3.77038 14.2205 18.0291
2138 3 5.49527 12.4451 17.7807
2643 3 5.5267 14.4566 16.1493
2642 2 3.74487 12.5906 16.0806
3142 1 7.16544 12.4829 16.2092
2141 2 8.88486 14.2625 16.2479
2645 3 9.11972 12.514 17.9221
2644 2 10.8897 14.3219 17.828
3143 1 10.7707 12.5393 16.1434
2647 1 12.5802 14.1586 16.1409
2646 3 12.431 12.3991 17.8863
3145 1 14.469 14.1876 17.8146
3144 3 14.2985 12.3207 16.0243
517 1 17.5334 14.2209 17.7802
1148 2 17.8993 12.3675 16.1637
3148 2 15.9732 14.2083 16.1112
3147 2 16.0129 12.4817 17.8877
2648 3 1.98912 17.7875 16.0582
3150 1 1.90381 15.9357 17.7264
3149 3 0.181944 16.0243 15.9093
3636 3 0.150335 17.9745 17.7183
1641 3 3.6317 17.7915 17.864
2143 1 7.13081 17.7378 17.9442
3640 1 5.36663 17.9366 16.0378
3639 3 7.31931 16.1846 16.2337
3638 1 5.40258 16.1266 18.0619
3637 2 3.64226 16.0735 16.1858
74 1 8.89469 18.054 16.2041
519 2 10.816 17.9777 17.7551
3642 1 9.06672 15.9252 17.9492
3641 1 10.8086 16.2477 16.0779
75 3 12.6892 16.1728 17.9024
76 2 12.4843 17.8592 16.0744
1645 3 14.3118 17.914 17.9807
3643 3 14.3839 16.2755 16.0662
77 3 16.0988 16.1313 17.6893
2144 3 17.9011 15.9106 16.1302
2650 1 17.9153 17.8587 17.8656
3645 1 16.0941 17.7751 16.0938
520 3 0.0976 -0.0564946 21.4377
78 1 0.238991 2.00605 19.7566
2145 2 1.81761 1.84919 21.4586
3151 3 1.84365 0.141361 19.6223
521 2 3.7819 0.0602772 21.4132
80 1 3.61273 1.83034 19.6032
79 1 7.24212 1.89519 19.8328
2147 1 5.37481 1.91936 21.5363
2146 2 7.05922 0.0186857 21.5462
2651 2 5.4515 0.135601 19.6898
81 2 10.9138 1.82085 19.5293
1648 2 10.8404 0.0919114 21.3363
2652 1 9.00223 1.94636 21.3896
3152 3 9.08142 0.142906 19.5436
522 3 14.4143 1.87117 19.6231
1649 2 14.3193 0.0330503 21.4542
2653 2 12.5928 1.928 21.5954
3646 3 12.6179 0.203799 19.6405
82 2 18.0073 0.0180452 21.4458
2654 1 17.7408 1.83872 19.7539
3153 3 16.1809 1.70951 21.4331
3647 1 15.8591 0.137776 19.5792
523 2 0.369586 5.3363 19.7594
84 2 1.95802 7.14529 19.54
83 1 0.103211 7.11392 21.4661
1650 3 0.145005 3.73234 21.5688
3155 1 1.99227 5.62145 21.3892
3154 3 2.01902 3.56451 19.7814
524 2 3.62722 5.57685 19.6041
525 2 7.10181 5.26066 19.4908
526 2 3.60387 7.38497 21.5057
1153 3 7.13623 7.2405 21.3504
1152 2 5.37285 7.13077 19.7421
2655 1 3.51379 3.49653 21.3939
3156 2 7.25296 3.72104 21.3923
3649 3 5.38994 3.79716 19.5329
3648 2 5.46641 5.41665 21.4079
86 2 10.7593 7.14781 21.5979
85 3 9.06536 3.68546 19.7289
1155 1 10.9309 5.39446 19.8461
1154 2 9.01093 7.10048 19.6508
2656 2 11.0322 3.58621 21.4729
3650 1 8.89106 5.33271 21.3557
527 1 12.6382 7.22876 19.6926
88 2 12.6196 5.48482 21.5083
87 2 12.5802 3.48303 19.6862
1156 1 14.5235 5.45604 19.6216
2148 1 14.3519 7.39621 21.4493
2657 2 14.3186 3.7659 21.4718
528 3 17.8804 3.54207 21.5009
89 3 16.1586 5.46477 21.4701
1157 2 16.1129 7.20218 19.6647
3158 1 17.8611 5.35174 19.6066
3157 3 17.9921 7.2394 21.401
3651 3 16.1252 3.59122 19.6869
529 1 1.90998 8.9416 21.2811
530 2 1.90678 10.8198 19.7453
1158 1 -0.00957365 9.08325 19.6812
3652 1 -0.00832625 10.6856 21.4751
531 3 5.32348 9.01847 21.3829
532 2 5.48183 10.876 19.614
533 2 7.21623 10.7727 21.5178
1159 2 3.76239 9.08786 19.5796
1651 3 7.34972 8.90717 19.8389
3653 3 3.65173 10.751 21.401
90 1 9.06335 10.7026 19.8186
1161 2 9.03366 8.92858 21.5614
1160 2 10.6263 10.7167 21.5258
1652 1 10.7426 8.6897 19.8887
534 1 12.3847 10.5985 19.7557
1162 1 12.5195 8.98561 21.5489
1654 1 14.3095 10.7529 21.5667
1653 1 14.5107 8.88222 19.7043
1656 2 16.0634 10.6822 19.6379
1655 2 15.9969 9.11371 21.3722
3159 2 17.7906 10.8553 21.3047
3654 3 17.898 8.99034 19.602
1660 2 0.124119 14.2461 21.3739
1659 2 1.79338 14.312 19.5216
1658 1 1.90988 12.4096 21.388
1657 3 0.0676337 12.42 19.6578
1163 3 5.41769 14.2154 19.7357
1661 2 3.75743 14.193 21.3915
2151 3 7.26593 12.4876 19.7649
2150 3 5.496 12.4498 21.5656
2149 2 3.61529 12.5144 19.7598
3160 1 7.3519 14.2399 21.4874
1662 2 8.99711 14.2163 19.6941
2153 3 9.00043 12.4318 21.5003
2152 1 10.7841 12.6035 19.8653
2658 1 10.7846 14.3078 21.6554
2155 3 14.3387 12.4348 19.6959
2154 3 12.5638 14.3181 19.4235
2660 2 14.4722 14.4031 21.4049
2659 2 12.5756 12.5217 21.623
535 2 17.7022 12.6757 19.6585
1164 3 17.8371 14.2788 21.4511
2156 2 16.0937 14.4349 19.603
2661 2 16.0976 12.5496 21.2437
1165 3 0.145899 17.8386 21.3885
2157 2 1.71615 17.6965 19.4646
2662 1 0.0411326 16.0665 19.452
3161 1 1.89032 15.9348 21.1832
1664 1 7.27806 17.9101 21.2571
1663 3 3.66275 17.8137 21.3467
2664 1 3.60125 16.1048 19.5149
2663 3 7.26201 16.0027 19.6323
3163 1 5.33893 16.0328 21.4747
3162 3 5.31172 17.8806 19.72
536 1 10.8298 17.9573 21.4411
2665 3 10.7771 15.9212 19.855
3164 3 9.10818 17.7799 19.4399
3655 3 9.17723 16.2092 21.4343
2666 1 12.3889 17.8744 19.7539
3166 1 14.3697 16.243 19.7813
3165 1 14.3436 17.9807 21.5781
3656 2 12.5172 16.1413 21.4503
92 3 16.2453 16.2153 21.4261
91 1 17.8649 17.9524 21.4465
1166 2 18.0148 16.1712 19.6381
3167 1 16.1973 17.9587 19.5992
93 3 1.93096 1.90689 24.9003
1665 2 1.95035 0.0307228 23.1421
2667 3 0.183325 0.160774 24.8245
3168 1 0.106727 2.04739 23.3473
2158 1 5.51679 0.261434 23.3563
2670 1 3.69796 0.0585888 25.0941
3170 1 7.34986 1.89692 23.153
3169 3 3.66211 1.91158 23.1919
3659 1 7.28743 -0.0406803 25.0237
3658 1 5.51844 1.87498 24.9564
537 1 9.02981 1.84543 25.0589
2671 1 8.97032 0.0360513 23.0793
3171 2 10.8313 -0.0534289 24.9287
3660 1 10.524 1.79697 23.0887
2673 1 12.4382 0.257021 23.0925
3663 3 14.3155 1.89185 23.2666
3662 2 14.3981 0.211128 24.9478
3661 3 12.5037 1.99358 24.9286
539 2 16.1307 1.93314 24.8467
1167 3 17.9313 0.0510711 25.0535
1668 3 17.9337 1.83329 23.2622
2160 1 16.2511 -0.189497 23.1699
99 2 1.97766 5.55334 25.1262
98 2 1.93798 7.18577 23.2171
97 3 0.23201 7.32715 24.8647
96 3 0.102266 5.49176 23.3581
3173 2 1.89442 3.81346 23.2019
3172 3 0.174311 3.79791 24.9707
540 1 3.78209 7.12443 25.0159
541 1 5.51881 7.27506 23.1526
542 1 7.03403 5.48091 23.0515
543 2 5.59431 5.43963 25.0659
101 3 7.29087 7.16867 25.0395
100 1 3.73965 5.45752 23.198
2675 1 7.16397 3.53118 25.0859
3175 2 3.65298 3.67495 24.9745
3665 2 5.53576 3.69312 23.2257
546 3 8.97323 7.29907 23.2251
547 3 8.91236 5.32671 25.0866
102 2 10.7065 5.41701 23.1989
1170 1 10.7001 7.10247 24.9023
3177 3 10.6949 3.71688 24.8348
3666 1 8.7844 3.72368 23.2108
548 1 14.5057 5.47998 23.2726
549 3 12.5445 5.43336 25.1167
105 3 14.332 3.66342 24.9919
1670 3 12.5938 7.00454 23.2689
3179 1 12.6931 3.95563 23.2508
3667 3 14.4481 7.0962 25.0176
1172 1 16.3561 5.32138 24.9294
1672 3 18.0567 3.70755 25.0346
1671 1 16.2557 7.14367 23.0073
2678 1 17.9045 7.38591 24.9891
2677 3 17.9969 5.38224 23.1517
3668 2 16.1415 3.67746 23.1902
550 1 0.219976 8.92476 23.1505
106 1 1.94189 10.7437 23.2209
1175 1 1.8366 8.99131 24.9562
3669 3 0.176219 10.8168 25.0266
108 1 5.50099 10.6662 23.2616
1180 2 7.27062 10.8607 24.9646
1178 1 7.15973 8.91425 23.2005
1177 1 3.69767 8.98324 23.1929
1176 3 5.57358 9.01957 24.9894
3670 2 3.65883 10.5931 25.1127
551 1 10.782 10.8181 25.0365
552 1 8.90179 10.6286 23.3611
1181 3 8.9368 8.96479 24.9679
1674 2 10.804 8.96158 23.4175
1182 1 12.6161 10.8793 23.3586
1676 3 12.6011 8.9368 24.946
1675 1 14.2784 8.98016 23.3023
2163 1 14.3668 10.6858 25.1525
1183 3 16.0923 9.02304 25.1688
1677 2 16.105 10.7624 23.1968
2165 3 17.7041 10.9254 25.121
3671 3 17.8232 8.97987 23.3649
555 1 0.236154 14.2691 24.9943
1184 1 2.06823 14.2544 23.0618
1678 3 1.96604 12.4022 25.0548
2166 1 0.175841 12.6126 23.3052
113 1 7.25398 14.4155 25.0031
1185 1 5.36044 12.5093 25.0888
2170 1 5.56952 14.3419 23.1852
2169 3 3.65655 12.476 23.2666
2168 1 3.73847 14.3988 24.9094
2167 3 7.17943 12.416 23.3588
1680 2 11.0174 14.4338 25.1268
2171 1 10.7879 12.6747 23.1961
2682 1 9.09753 14.4127 23.1502
2681 2 9.01415 12.6386 24.9046
114 1 14.396 14.5937 24.9277
1681 2 12.5721 12.4719 24.9379
2684 3 14.504 12.5676 23.2411
2683 2 12.6876 14.3612 23.3038
557 2 17.6851 12.4958 23.2883
2173 2 16.1985 14.3497 23.2005
2685 3 16.0412 12.7361 25.0678
3183 2 17.8345 14.4746 25.2383
1684 3 1.88698 15.9606 24.8725
1683 3 1.85261 17.6106 23.0249
2688 3 0.246053 15.8891 23.1766
2687 2 0.133893 17.8927 24.9598
2175 1 7.15984 18.0093 24.835
2174 2 5.51657 17.8134 23.0218
2689 3 3.59993 17.7385 25.0415
3187 1 5.57213 16.0435 25.055
3186 1 7.21102 16.1789 23.1232
3185 2 3.69355 16.183 23.1647
1687 2 8.95694 17.9061 23.087
1686 1 8.9934 16.192 24.7689
2177 2 10.6821 17.8744 24.9284
3675 2 10.8792 16.2309 23.1684
2178 3 14.3145 17.8597 24.9101
2690 1 12.6606 17.8478 23.14
3188 2 12.6309 16.2781 25.0053
3676 1 14.3948 16.0013 23.12
1187 1 17.8275 16.0275 23.2608
1186 1 18.049 18.0186 25.1253
1689 2 16.1834 16.2487 24.9797
3189 1 16.3618 17.826 23.3491
1188 1 0.0908737 0.321944 28.4867
2180 2 1.90744 1.87548 28.4662
2668 1 1.72576 0.323849 26.7358
3657 1 0.0877566 1.97262 26.6771
559 3 7.21838 -0.0674124 28.5285
94 1 7.22437 1.78636 26.8324
1189 1 3.65144 0.134149 28.636
1666 2 5.40015 0.0167816 26.7901
2181 3 5.47709 1.71605 28.6465
2669 1 3.85524 1.88635 26.7025
560 3 10.8348 0.0857995 28.3685
95 2 8.9856 0.216233 26.6835
2182 1 9.02736 1.81707 28.5287
2672 1 10.7373 1.94916 26.643
538 3 14.3807 1.83673 26.8237
1667 1 12.634 0.133664 26.6209
2184 2 12.5579 1.8619 28.304
2183 3 14.3821 0.0738672 28.4607
2159 2 18.0401 1.93236 26.6055
3193 1 16.1721 1.82757 28.5895
3679 3 17.8013 0.0261641 28.3276
3664 1 16.0932 0.136189 26.7201
1168 2 1.88123 3.54111 26.7249
1669 1 1.89551 7.22921 26.7105
2186 3 0.210901 7.05688 28.6021
2185 3 0.102839 3.66489 28.4051
2674 2 0.208925 5.45558 26.7824
3194 1 2.07377 5.42013 28.4132
544 1 3.74264 5.31728 26.7731
563 2 7.2699 7.17681 28.8348
1691 1 7.12968 3.61209 28.6948
1690 2 3.76194 3.58245 28.6787
2676 2 7.20412 5.38318 26.7709
3196 1 3.80403 7.19004 28.4673
3195 3 5.36851 5.37049 28.5635
3176 1 5.5061 3.5445 26.7744
3174 2 5.53808 7.35993 26.6822
545 3 10.8304 5.41009 26.7601
1171 1 8.93255 3.60478 26.9008
1169 2 8.96445 7.21309 26.7371
2694 3 10.8443 3.59244 28.5662
3197 3 9.03615 5.34261 28.5664
3681 1 10.8416 7.12891 28.4576
104 2 12.5608 3.62798 26.8131
103 1 14.4267 5.47712 26.8056
2695 3 14.3238 3.49969 28.6642
3178 3 12.6082 7.23472 26.7804
3684 3 14.404 7.26249 28.5888
3683 1 12.5753 5.37174 28.3457
622 1 17.8092 3.51264 28.4885
1004 1 17.9774 7.2039 28.6176
1174 3 16.279 7.14755 26.7478
1173 3 17.9909 5.44358 26.7034
3180 2 16.1243 3.4917 26.6675
3685 1 16.2218 5.4243 28.4785
1673 3 0.226718 9.09387 26.8155
2161 1 2.02817 10.6526 26.7869
2696 3 0.306792 10.8501 28.4915
3687 3 1.88645 8.92299 28.7035