ITEM: TIMESTEP
5000
ITEM: NUMBER OF ATOMS
4000
ITEM: BOX BOUNDS pp pp pp
1.2878072956483422e-01 3.5605279270435162e+01
1.2878072956483422e-01 3.5605279270435162e+01
1.2878072956483422e-01 3.5605279270435162e+01
ITEM: ATOMS id type x y z
1 3 0.109214 1.94584 1.98618
1563 1 0.22073 0.212265 0.150526
2064 3 1.92422 1.8441 0.0587254
3561 1 1.92123 0.196562 1.83107
564 2 3.76514 1.78976 1.80833
565 3 7.23816 1.90587 1.92845
1565 3 7.23823 0.208138 0.165678
2065 2 3.67626 0.0864672 0.0403777
3061 2 5.44605 1.83444 0.0269667
3562 3 5.53109 0.0261489 1.89044
566 2 10.7951 1.72622 1.94208
1070 2 10.9223 0.116306 0.172171
3063 1 9.01619 0.114737 1.84732
3062 2 9.0702 1.93064 0.22289
567 1 14.2147 2.04657 1.96397
2566 2 14.2473 0.142925 0.317032
3064 3 12.6577 1.9816 0.0957923
3563 2 12.5524 -0.0747745 1.8966
2 3 17.7737 0.114201 0.103264
3 3 16.0024 0.196509 2.01125
3066 2 17.9318 1.85906 1.92879
3065 3 15.9331 1.88064 0.0939933
4 1 1.96916 5.34474 0.218688
5 2 1.90716 3.55665 1.93523
6 1 2.05161 7.22195 1.84596
1071 1 0.123299 5.42181 1.85102
3067 2 0.214147 3.74858 0.145445
3565 2 0.100754 7.2452 0.29241
7 2 5.39513 5.51251 0.107471
8 3 3.76844 7.2938 0.258266
1072 1 7.3114 5.54156 1.8544
1075 2 5.44204 7.05672 1.9148
1074 2 3.69853 5.24215 1.76784
1567 3 7.26502 7.16873 0.112516
2570 3 7.21115 3.58882 0.195556
2569 2 3.80981 3.61293 0.179152
3569 3 5.51782 3.67455 1.84007
9 1 9.00228 5.20735 0.163778
10 2 8.8995 3.54205 1.93731
1077 3 10.5406 7.25428 0.367304
1076 2 10.5437 5.39782 1.96319
1568 2 8.91575 7.22061 1.98966
3068 2 10.81 3.5824 0.213277
11 3 12.5121 5.54115 0.197819
12 2 14.351 3.78263 0.00285391
570 1 12.5725 3.76538 1.85553
1571 2 14.2529 7.24333 0.201168
1570 3 14.3257 5.57802 2.02937
1569 3 12.386 7.1568 1.92403
572 2 16.0303 3.83572 1.81183
1081 2 16.1556 7.28791 1.95953
1079 3 17.8908 5.51038 2.038
1078 2 16.1201 5.52537 0.15421
1573 2 17.8865 3.80134 0.385526
2070 1 17.8398 7.28135 0.217488
575 2 1.79933 10.8324 1.93173
1082 3 1.96769 8.99108 0.108461
1574 1 0.150181 9.09772 1.96468
3070 1 0.188638 10.912 0.145805
576 3 3.66606 10.8968 0.115475
1085 1 5.4598 9.01259 0.110906
1083 1 5.50212 10.91 1.87053
1577 1 7.14867 10.887 0.255199
1576 1 7.06174 8.83017 1.79401
1575 3 3.65252 9.19208 1.943
14 1 10.7845 10.9351 0.154246
1087 1 8.95613 10.7744 1.85183
1086 3 9.1094 9.02844 0.231807
2071 2 10.7486 9.04077 1.92577
580 3 12.5257 10.8859 1.79421
1088 2 14.3668 10.8217 0.0561979
2073 2 12.3379 8.95598 0.273133
2074 1 14.2273 8.91859 1.85065
15 3 17.8302 9.03263 1.93449
1581 1 16.0157 10.797 1.82895
2076 2 17.7232 10.8071 0.151298
2075 3 16.0074 8.98339 0.141762
2079 2 1.99857 12.5091 0.108472
2078 1 1.93016 14.2771 1.98815
2077 3 0.140599 12.5652 1.85633
2572 2 0.0210035 14.2829 0.232152
2082 2 5.37086 14.4112 1.79832
2081 3 3.63082 12.4981 1.98195
2080 1 5.37015 12.6309 0.0565911
2576 2 6.92583 14.3917 0.043332
2575 2 7.12689 12.7346 1.71972
3071 2 3.52961 14.264 0.0586833
1583 1 8.97825 14.3476 1.72049
2084 2 10.7738 14.2434 0.201027
2579 3 10.7512 12.5844 1.92097
3073 2 8.86547 12.6087 0.0865797
2085 2 12.4292 14.4708 2.0263
2580 1 14.2159 12.5919 1.91763
3074 3 12.5736 12.5435 0.0318678
3574 3 14.3424 14.3342 0.263445
581 2 17.7929 12.5398 1.90559
1089 1 17.7571 14.3353 0.0402623
2583 3 15.9993 14.2599 1.90184
3075 2 15.8968 12.6242 0.0146948
16 1 0.0991709 17.9658 0.232138
2086 3 2.02898 17.9925 1.86147
2584 2 0.105675 16.1875 2.07173
3076 2 1.67607 16.1663 0.120347
17 1 5.30685 16.1363 0.0882723
1090 3 3.56916 17.9202 0.0681478
2585 3 7.08321 17.7783 0.0149892
3079 1 5.3471 17.8733 1.96299
3078 3 7.08054 16.1585 1.92095
3077 3 3.59267 16.1693 1.82826
18 1 8.77447 16.0863 0.110915
1585 3 10.6546 18.0486 0.160659
3080 3 10.5909 16.1453 1.70612
3578 1 8.94284 17.9339 1.83118
19 1 12.3774 16.0732 0.0488908
2088 3 14.3308 17.928 0.0947335
3081 3 14.4007 16.0857 1.82756
3581 1 12.4427 17.7666 1.84495
20 2 16.1263 16.0852 0.148563
1586 1 17.9047 16.0435 1.8442
3083 1 15.9914 17.9271 1.91414
3082 3 18.0382 17.8503 0.221355
584 3 2.01525 1.88602 6.97206
1564 1 0.228594 -0.00800375 3.5492
2588 3 1.97921 0.101622 5.46635
2563 2 1.91145 1.96687 3.69435
3084 1 0.052931 0.163107 7.27263
3583 3 0.202446 1.90281 5.42444
22 3 5.47511 1.94775 7.05245
1069 3 3.66439 0.0212857 3.46136
1566 3 7.21387 0.126378 3.56495
2089 2 5.53099 0.188532 5.36039
2590 1 3.76111 0.122772 7.24604
2564 2 5.43416 1.81842 3.69153
3085 3 7.21815 0.0596136 7.15978
3585 1 3.71541 1.7952 5.1722
3584 2 7.23973 1.97602 5.29949
586 1 8.94639 1.89132 7.14911
2066 3 10.7522 0.0508229 3.73911
2593 3 9.00074 0.159118 5.3502
2565 2 8.99798 1.84897 3.73931
3086 1 10.7729 0.0648614 7.15118
3586 2 10.8199 1.69175 5.42326
23 3 12.4277 1.8043 7.24801
24 2 14.236 0.0479835 7.28107
25 2 14.3082 1.81798 5.50701
2568 3 14.2309 0.0571977 3.66924
2567 1 12.5182 1.94062 3.60178
3087 3 12.6135 -0.0343783 5.43499
568 1 17.9764 0.138494 3.61693
588 3 16.1701 1.91332 7.15938
1587 2 17.7771 0.13646 7.10727
3088 1 16.0526 0.173553 5.49335
3588 3 17.8819 2.00993 5.39859
3564 3 16.0193 1.80989 3.71164
27 3 1.88657 5.41966 7.1487
28 3 1.90601 7.28383 5.3402
589 1 0.179435 5.50434 5.20085
2067 2 0.243071 3.69837 3.62215
3090 2 1.86548 3.83288 5.42474
3590 2 0.220739 7.11655 7.09136
3589 1 0.136856 3.75464 7.08253
3567 2 0.183729 7.2877 3.45851
3566 2 2.0598 5.60987 3.55915
29 3 3.73334 3.76665 7.09215
593 3 3.61037 7.20305 7.14091
592 2 7.14954 5.40255 5.58953
591 2 7.32958 7.31627 7.20901
590 3 3.6572 5.37935 5.40487
1095 2 5.37174 5.51905 7.23964
1094 1 5.55864 7.10137 5.44781
1073 1 3.65583 7.18767 3.57241
2068 2 6.98622 7.1722 3.68931
2069 3 3.69479 3.5954 3.69383
3593 1 5.65835 3.71874 5.41996
3592 3 7.28072 3.81879 7.19496
3570 3 5.47499 5.40699 3.59704
3568 1 7.31472 3.67764 3.67819
31 1 8.93379 3.82044 5.35705
569 3 10.6675 7.36721 3.72339
594 2 10.6716 5.39099 5.3771
1097 3 9.05458 5.50115 7.19033
1590 3 8.76522 7.24139 5.50866
1589 2 10.8044 7.31042 7.11096
3594 1 10.6816 3.60595 7.17326
3572 2 10.7082 3.70509 3.60445
3571 3 8.9687 5.49255 3.7166
33 3 12.3595 3.63369 5.41336
35 2 14.3086 3.64623 7.2174
571 2 12.3457 5.47102 3.57326
595 1 14.1886 7.15833 7.06764
1100 1 14.1892 5.38025 5.49231
1099 3 12.4502 5.57846 7.10826
1592 2 12.4829 7.27677 5.26678
1572 3 14.3035 7.24054 3.58178
3069 3 14.2121 3.75368 3.81959
573 1 16.1042 5.69095 3.77695
1080 1 17.7992 3.60785 3.54963
1595 1 15.9268 7.25806 5.52698
1594 1 16.0571 5.29432 6.98857
2094 1 17.9824 7.05927 7.16092
2092 2 17.9398 3.7034 7.12379
2571 3 17.9175 7.19344 3.70584
3092 3 17.9602 5.46884 5.32349
3595 3 16.0546 3.66869 5.28906
13 2 0.100112 10.6801 3.72448
597 1 0.0903733 10.7028 7.13736
596 1 1.92059 10.7325 5.44807
574 2 1.94746 9.06214 3.6728
1102 3 1.82162 8.98417 7.16416
1101 1 0.157762 8.91191 5.47404
38 1 3.63367 10.7949 7.13418
578 2 3.57448 10.8789 3.71559
577 3 5.37374 9.13136 3.64498
1106 3 7.08438 10.7068 7.17401
1104 1 5.39615 10.8966 5.29227
1103 3 3.63302 9.0772 5.36731
1084 1 7.20924 10.911 3.5277
1597 3 7.03344 9.03709 5.36505
1596 2 5.31032 9.0558 7.17699
39 2 10.8319 10.731 7.48214
599 3 8.99198 10.7323 5.45533
579 3 10.72 10.8205 3.68287
1107 2 9.00179 9.06892 7.30026
1578 1 8.76511 8.93735 3.49578
2097 1 10.7283 9.06619 5.48606
1108 2 12.5624 10.8634 5.50946
1598 3 12.5383 9.02812 7.22972
1579 3 12.4936 9.05403 3.57272
2072 3 14.2762 10.9319 3.77832
2099 2 14.4226 10.7941 7.10091
2098 2 14.3029 9.01157 5.44493
1599 1 16.0252 8.87541 7.04408
1580 2 15.9612 9.07587 3.71518
2100 2 16.1772 10.6845 5.39887
3093 2 17.5891 10.7764 7.28438
3597 2 17.7747 8.98129 5.43833
3573 1 17.9035 10.8441 3.62748
1110 1 0.0242472 14.4333 7.41168
1582 1 1.97158 12.6008 3.58638
2103 3 1.78404 12.5424 7.32362
2102 3 1.97823 14.323 5.43218
2101 2 0.0657528 12.6317 5.42765
2573 3 0.119333 14.2525 3.68947
1112 3 7.11793 14.1333 7.15153
1600 1 5.41027 12.5829 7.09333
2104 2 5.48195 14.2263 5.42554
2083 2 3.66364 14.2591 3.73666
2601 2 7.16612 12.5252 5.36624
2600 1 3.70543 12.6624 5.29506
2599 2 3.68847 14.3552 7.21159
2577 1 7.15543 14.4716 3.66471
2574 2 5.51036 12.63 3.69874
2604 2 8.86741 14.2631 5.44669
2603 1 10.6595 14.258 7.11925
2602 2 10.602 12.6615 5.32732
2578 1 8.91595 12.4478 3.73954
3097 3 9.11855 12.4182 7.33324
3072 3 10.605 14.5883 3.55411
602 3 14.261 14.2746 7.10414
1603 1 12.6936 12.5323 7.24539
2605 1 14.4367 12.5086 5.37002
2581 1 12.2731 12.6585 3.62918
3098 1 12.6172 14.347 5.38416
3575 2 14.3144 14.3126 3.61065
1114 1 17.6775 12.6378 5.5011
1584 3 17.8058 14.0951 3.60229
2582 2 16.0987 12.3882 3.59129
3100 1 16.009 14.4166 5.32682
3099 3 16.0017 12.5159 7.23949
3599 3 17.7703 14.2841 7.13794
582 1 0.0737259 17.879 3.5328
1605 2 1.83075 17.7591 5.30224
1604 2 1.92476 16.2281 6.95272
3104 3 0.00516111 15.9837 5.34545
3103 2 0.227284 17.787 7.0894
3576 1 1.75828 16.1381 3.81881
2087 3 3.6899 17.9836 3.78209
2607 2 5.43463 18.0019 5.45263
2586 3 7.17484 17.9816 3.63635
3107 2 7.19796 17.8378 7.06815
3106 1 5.46578 16.0306 7.06088
3105 3 3.74458 17.7852 7.17493
3602 1 3.65497 16.0113 5.32963
3601 3 7.30312 16.1007 5.37087
3577 3 5.20932 16.0384 3.74774
1091 1 10.7486 17.7863 3.58279
2107 1 8.85651 16.0315 7.19361
2608 3 8.91322 17.8796 5.44979
3109 1 10.6208 17.7184 7.21377
3603 3 10.8063 16.0503 5.30987
3579 3 8.7261 16.1835 3.55671
41 2 14.3487 16.0865 5.4123
2610 2 12.3702 17.7753 5.586
2609 1 14.1446 17.9349 7.17789
2587 2 14.2218 17.7841 3.72847
3604 1 12.6112 16.0376 7.13174
3580 2 12.5849 16.1076 3.65923
583 3 16.0402 16.0876 3.55949
1606 3 17.9481 17.8896 7.19848
2109 1 16.0251 16.1344 7.19861
3112 3 15.9868 17.9139 5.42419
3110 2 17.9114 16.0229 5.19148
3582 2 17.8441 17.9617 3.70838
21 1 0.212306 2.02439 9.14434
604 3 0.144968 -0.0348695 10.9669
2110 1 1.88437 1.87037 10.7827
2589 1 1.91179 -0.0070652 8.8548
585 1 7.3065 1.81321 8.96242
1092 2 5.53938 0.20602 8.81108
1608 2 6.96989 0.192386 10.6063
1607 1 3.79947 0.226924 10.6275
2111 1 5.47671 2.05246 10.7335
2591 3 3.71029 1.92399 8.93793
1116 2 10.587 0.0446404 10.7926
2612 2 9.10887 2.01219 10.7556
2592 3 10.8367 1.9801 8.8033
3587 1 9.13481 0.270732 8.99049
587 2 14.1794 1.8597 9.11838
1609 3 14.2377 0.0931551 10.6883
2090 3 12.4345 0.0648277 9.05814
2613 3 12.2508 1.9173 10.6743
26 2 15.9517 0.146415 8.96469
2594 1 17.8226 1.84673 8.87605
3116 3 16.0016 1.85233 10.7879
3115 3 17.7761 0.174115 10.8198
1093 3 1.86384 7.26619 8.93261
2091 3 2.00544 3.73544 8.848
2615 1 0.217271 3.77832 10.7519
3118 3 0.164145 7.13355 10.6276
3117 2 2.0068 5.41105 10.7548
3089 2 0.0877004 5.38168 8.87491
30 2 5.41427 3.64817 8.85765
45 3 7.18461 7.23531 10.7923
1096 3 3.70412 5.42985 8.85022
2112 2 7.21516 3.78874 10.6904
2616 2 3.64356 3.66134 10.6984
3091 3 7.17494 5.5341 9.05834
3608 3 3.71977 7.26078 10.6759
3607 3 5.40417 5.34062 10.8085
3591 3 5.45169 7.15024 8.98836
46 3 10.6984 7.16679 10.7599
1098 2 10.7673 5.49022 8.8765
1591 1 9.0359 3.6708 8.97102
1588 1 8.97879 7.36655 9.02134
2113 2 10.7991 3.74925 10.6027
3609 3 9.05421 5.53605 10.6728
32 2 12.2638 7.19508 8.96807
34 2 12.4132 3.82695 8.95174
36 2 14.2275 5.47499 8.76509
609 2 14.5649 7.18029 10.6534
3119 2 14.3286 3.70091 10.8157
3611 2 12.7054 5.52973 10.6465
1120 3 17.8802 3.54679 10.7592
1615 1 17.7756 7.18094 10.7639
1593 3 17.752 5.3492 8.8761
2093 2 16.0449 7.07555 8.76455
2595 3 15.9317 3.60938 9.0349
3612 3 16.093 5.37154 10.8147
48 3 1.93572 8.93833 10.641
2095 2 0.218712 9.00427 8.86594
2596 1 1.94667 10.7145 8.87565
3120 3 0.0467553 10.5486 10.7569
37 1 3.72063 8.89087 8.93559
49 3 5.45772 9.00591 10.6915
612 2 7.20856 10.5939 10.8403
1105 3 5.39011 10.8555 8.9502
2096 3 7.1444 9.0156 8.98566
3121 2 3.60936 10.6867 10.7307
613 2 9.0837 8.95672 10.7688
598 2 10.8485 9.12588 9.04355
3613 3 10.8015 10.712 10.9074
3596 1 8.98361 10.595 9.03068
50 3 14.2031 10.6506 10.5964
614 2 12.5427 8.68338 10.6997
2598 1 12.5384 10.7801 8.96869
2597 3 14.3514 8.95104 8.95635
51 3 17.914 10.807 10.6189
600 1 17.7664 8.8783 9.03355
1122 2 15.9355 9.09802 10.6822
1109 1 15.8866 10.9749 8.96155
616 2 0.224003 14.2113 10.6314
601 3 -0.00777929 12.3545 8.87941
1123 3 1.80442 12.4592 10.7338
3094 3 1.86443 14.3596 8.84714
1124 3 5.36251 12.4452 10.7407
1111 1 5.55761 14.2126 8.96842
1619 3 7.04599 14.4443 10.6388
1618 3 3.665 14.2838 10.6771
1601 3 7.19496 12.3794 9.02146
3095 3 3.63406 12.5458 9.11723
617 1 10.7474 14.2834 10.7841
1125 1 9.0067 12.5234 10.8291
3096 3 8.91019 14.2388 9.02456
3598 1 10.8703 12.7163 8.91744
1126 1 14.4096 14.2317 10.6679
1113 2 12.3193 14.379 8.77716
1620 1 12.431 12.6504 10.6266
1602 2 14.2274 12.5703 9.08628
1621 1 16.0585 12.4983 10.8077
3126 1 17.9411 14.3628 10.6823
3102 1 16.2208 14.1011 9.06716
3101 3 18.0707 12.5929 8.74854
1623 3 0.0748195 17.9855 10.5889
2119 2 1.70837 16.1179 10.6424
2606 3 1.7712 17.849 8.96752
3600 2 -0.0340617 16.1666 8.97204
40 3 7.16832 16.0344 8.92565
619 1 3.60183 17.7858 10.829
1127 1 7.33943 17.7832 10.6344
2120 1 5.25047 16.1474 10.6951
2106 1 3.63164 16.1467 8.87673
2105 3 5.33075 17.9339 8.95253
1624 1 10.8489 17.8994 10.7881
2108 1 10.6495 15.9782 9.01329
2625 3 8.89295 16.1598 10.6784
3108 1 8.89029 17.9639 9.02723
603 1 14.4104 16.1474 8.80113
1115 2 12.5872 17.8944 8.85952
2626 3 12.6488 16.0981 10.563
3620 3 14.3275 17.9119 10.6996
2628 3 16.0031 15.9986 10.5208
2611 3 17.8618 16.0809 9.02765
3127 3 17.895 18.0525 10.6406
3111 1 16.1001 17.9606 8.94736
42 1 0.0423488 1.86209 12.4715
2121 3 0.0113154 0.126139 14.3645
2629 1 1.67935 1.76027 14.3439
3113 2 1.93713 0.17349 12.5165
43 2 3.57701 1.9421 12.5728
605 1 7.32294 1.99743 12.4286
1625 1 7.4574 0.282285 14.3674
2123 3 3.76972 0.156422 14.2775
3128 2 5.62486 1.95157 14.1834
3605 3 5.39204 0.225941 12.4134
606 3 10.7008 1.82113 12.6697
1627 1 10.603 0.128003 14.3315
3129 1 8.97849 1.93273 14.4905
3606 1 8.80459 0.0985748 12.4153
1117 1 14.2059 1.83422 12.3985
2632 2 14.2841 -0.00566836 14.4253
3131 3 12.5197 1.87673 14.2602
3114 3 12.3943 0.148253 12.3594
44 3 15.9904 0.0915541 12.5958
501 3 18.043 0.152778 14.2202
2614 1 17.8459 1.87361 12.5296
3132 1 16.1385 1.80727 14.1921
607 3 1.93056 3.7408 12.5857
1119 2 1.94258 7.26843 12.5299
1118 2 0.220971 5.46387 12.5423
2634 3 -0.054665 7.15003 14.3057
2633 2 0.105522 3.70944 14.2275
3624 1 1.85119 5.59827 14.27
60 3 7.22373 7.16983 14.3147
608 2 5.46475 3.70724 12.6084
1612 1 7.35485 5.28088 12.5177
1611 3 5.37179 7.05611 12.5407
1610 1 3.6441 5.49421 12.5532
2128 1 7.36592 3.6475 14.2956
2126 1 3.68371 3.53256 14.3943
3136 3 3.66252 7.13256 14.3157
3626 2 5.38988 5.4706 14.2539
1613 3 10.758 5.46571 12.555
2114 2 8.95854 7.21207 12.5069
3137 1 10.82 3.74111 14.2614
3629 2 9.03397 5.35289 14.3782
3628 3 10.8207 7.21131 14.3266
3610 3 9.10764 3.63033 12.5144
610 3 12.3436 3.70713 12.4641
1614 1 14.2512 5.51023 12.4382
2617 1 12.4858 7.34469 12.5495
3138 3 14.268 3.66242 14.1359
3631 3 14.2438 7.22628 14.2913
3630 3 12.5657 5.55234 14.2393
47 2 17.7593 5.39533 12.5161
65 2 16.0192 5.45843 14.4088
1138 2 17.768 3.74877 14.3038
1121 3 16.1024 3.66835 12.4646
2618 2 16.1707 7.26391 12.5342
3140 2 17.8475 7.25496 14.1468
67 2 1.9345 9.00652 14.0141
611 2 1.8796 10.7555 12.4314
2115 2 0.139571 8.89232 12.4877
2636 1 0.137965 10.6103 14.0578
69 3 7.18875 10.7428 14.1532
70 1 5.5073 8.974 14.367
1616 3 5.39035 10.6399 12.437
2116 1 3.62906 8.96512 12.4805
2619 1 7.39023 8.90998 12.5361
3633 3 3.60993 10.8914 14.2628
71 1 9.08424 9.027 14.2778
2117 2 8.8844 10.7251 12.5704
2620 1 10.7898 8.91065 12.4846
3141 2 10.7015 10.7618 14.2772
510 2 12.4936 9.08905 14.2558
1617 1 12.5404 10.6444 12.3231
3122 2 14.3573 8.85252 12.457
3635 2 14.2139 10.7871 14.2032
511 3 16.0974 8.97729 14.3028
615 1 17.8637 8.94481 12.4482
1639 1 17.8289 10.7861 14.4031
2118 3 16.0821 10.6672 12.5006
513 2 0.211294 14.1997 14.3234
514 3 1.85348 12.52 14.3348
2621 2 0.154825 12.5674 12.5768
3123 2 1.82942 14.3592 12.5864
72 1 7.35051 14.4021 14.3343
515 3 5.49064 12.6232 14.4918
516 1 3.62852 14.2688 14.4339
3125 3 7.1968 12.5834 12.3971
3124 1 3.68206 12.5385 12.5428
3614 3 5.38955 14.3218 12.6996
73 3 10.6612 14.2205 14.1098
1145 3 8.87293 12.494 14.1847
3616 3 10.7937 12.5248 12.4625
3615 3 8.92743 14.2672 12.4853
1147 1 12.4856 12.4139 14.3378
1146 1 14.2869 14.3346 14.0794
2622 2 12.4734 14.1925 12.4683
3617 2 14.2465 12.4713 12.3086
1149 3 16.1118 12.5058 14.2238
1622 1 17.9692 12.5021 12.5806
3146 1 17.6576 14.3755 14.1233
3618 1 16.3198 14.2867 12.3862
52 3 0.134632 15.927 12.5274
518 3 0.198318 17.9122 14.279
1150 3 1.81044 16.0463 14.332
2623 3 1.9222 18.074 12.5199
53 2 3.71663 16.0567 12.6782
618 3 7.13526 16.1371 12.5237
1151 1 3.55636 17.7229 14.2186
1642 2 5.43609 16.2356 14.2989
2142 3 7.22141 17.7754 14.3537
2624 1 5.40458 17.764 12.509
54 2 10.933 16.1227 12.474
1643 3 9.10744 16.0056 14.2162
2649 1 10.8011 17.7432 14.2281
3619 3 8.93592 17.7173 12.5137
55 2 12.6374 17.748 12.5021
620 3 14.3342 15.9653 12.4147
1646 1 12.7014 16.1127 14.1719
1644 2 14.3776 17.872 14.3216
56 1 15.9371 17.8748 12.4271
1647 3 15.9691 16.1384 14.4353
2627 3 17.8296 16.1283 12.4253
3644 3 17.9228 17.8762 14.2377
57 2 1.94305 0.109058 16.064
621 1 0.104055 1.97511 16.0622
1128 2 0.193853 0.188414 17.7912
2122 3 1.84612 1.92463 17.6693
58 2 5.54499 0.299893 16.1931
1132 1 7.19852 0.316838 17.9079
1131 2 7.09117 2.04987 16.2505
1130 1 3.72352 0.314884 17.8371
1129 1 3.6519 1.83665 16.0012
2630 2 5.37865 1.98828 18.0322
1133 3 10.8913 2.01097 16.1338
1626 2 10.7691 0.191967 17.9546
2631 1 8.98051 2.06317 17.8315
3621 3 9.00873 0.161898 16.1882
59 2 12.5258 0.07831 16.1747
1134 3 14.3061 1.79231 16.1643
2124 2 14.2175 -0.00213265 18.0989
3130 3 12.5849 1.93293 17.941
502 2 16.0738 0.0137223 16.0309
3133 1 16.1596 1.80411 17.8829
3623 3 17.8266 0.126012 17.7386
3622 3 17.7845 1.86793 16.1205
503 2 1.86413 3.53847 15.987
504 3 1.78993 7.21772 15.9956
1628 3 0.106801 5.44256 16.0677
2125 2 0.21965 3.69658 17.8104
3134 1 0.292878 7.22662 17.7269
3625 1 1.9616 5.3088 17.6986
61 2 5.46001 3.64691 15.9787
505 1 3.72945 7.17678 17.7907
1135 3 7.32743 7.10325 17.8347
1631 1 5.52375 7.30512 16.1132
1630 1 3.61626 5.4867 16.1223
1629 3 7.24416 5.31825 16.1034
2127 1 3.5265 3.64323 17.9227
3135 2 7.24299 3.7262 17.929
3627 3 5.41877 5.42418 17.7771
62 1 9.00012 5.31428 17.8737
63 1 10.6942 7.39501 17.8513
506 2 9.16029 3.79937 16.0848
1632 2 10.8339 5.3872 16.1153
2129 2 9.10842 7.15928 15.9617
2635 2 10.7623 3.66206 17.9344
64 1 12.6525 5.53727 17.8825
1137 3 14.4926 7.29053 17.7568
1136 2 12.7574 3.64201 16.0446
2131 1 14.2911 5.44952 16.0818
2130 1 12.5798 7.40363 16.0157
3139 2 14.2928 3.71962 17.9112
66 1 17.9435 5.43186 16.023
507 1 16.1063 5.34125 17.9212
1140 3 17.7637 3.56729 17.856
1139 1 15.8835 3.67396 16.0481
1634 3 17.7444 7.27918 17.7605
1633 3 16.1564 7.24856 16.0275
508 2 1.90117 8.98233 17.9447
1141 3 2.0447 10.8131 16.0637
2132 2 0.158887 9.10172 16.1349
3632 2 -0.041561 10.6449 17.9033
68 3 3.74101 10.82 17.9161
509 2 7.15508 10.6811 17.885
1142 3 5.46859 9.08137 17.8812
1635 3 5.39395 10.8126 16.1435
2134 2 7.19723 8.94057 16
2133 1 3.68699 8.96974 15.8719
1143 1 8.90061 9.06625 17.7518
1636 2 8.80261 10.751 15.9003
2637 3 10.6383 9.09151 16.1132
3634 3 10.7567 10.8712 17.7675
1144 3 12.4728 10.6681 16.097
1638 3 12.6119 8.97468 18.0022
1637 2 14.3063 10.6857 17.7704
2638 1 14.195 9.02234 15.9056
512 1 17.9142 9.06536 15.877
1640 2 15.9932 8.9616 17.7456
2135 3 16.1767 10.8241 16.1731
2639 2 17.7788 10.5576 17.9025
2137 3 0.181485 14.4269 17.8508
2136 1 1.84547 12.5806 17.8236
2641 1 1.86269 14.3972 16.122
2640 1 0.0616384 12.4509 16.2575
2140 2 7.17755 14.3041 18.0936
2139 3 3.69467 14.298 17.8339
2138 1 5.41734 12.5068 17.9967
2643 3 5.44696 14.4276 16.0725
2642 3 3.55451 12.6665 16.0451
3142 1 7.17036 12.4708 16.1589
2141 3 8.9908 14.4802 16.1938
2645 2 8.83808 12.5574 17.9691
2644 3 10.7526 14.1702 17.773
3143 2 10.7292 12.551 15.9847
2647 2 12.6323 14.2844 15.7869
2646 3 12.4647 12.6539 18.0116
3145 3 14.4181 14.212 17.8223
3144 1 14.2219 12.4668 16.0957
517 3 17.7948 14.3485 17.8973
1148 1 17.8727 12.7787 16.1426
3148 1 16.0515 14.3646 15.9789
3147 3 16.1191 12.5823 17.8903
2648 3 1.91984 17.8503 16.0588
3150 3 1.96973 16.1374 17.8264
3149 2 0.0859122 16.0853 16.0719
3636 1 0.218249 18.0188 17.8468
1641 3 3.60649 17.7855 17.7783
2143 3 7.22597 17.729 17.7518
3640 1 5.38731 17.9071 16.169
3639 3 7.06827 16.1185 16.1468
3638 1 5.33008 16.0846 17.8505
3637 2 3.67238 16.0943 16.0942
74 3 9.01348 17.7989 16.1899
519 1 10.9318 17.8783 17.7104
3642 1 9.04951 16.1336 17.9261
3641 2 10.9252 15.9264 15.9393
75 2 12.4416 15.9967 17.8906
76 2 12.5407 17.7825 16.0603
1645 1 14.3923 17.8353 17.7698
3643 1 14.3019 15.9896 16.2212
77 2 15.9824 16.0647 17.8038
2144 1 17.8448 16.2469 16.0778
2650 2 17.7442 17.896 17.8479
3645 1 16.0412 17.7923 16.0716
520 1 0.188001 0.252099 21.2575
78 3 0.183934 2.0872 19.6056
2145 1 2.0093 1.99791 21.4604
3151 2 2.05611 0.173801 19.5217
521 3 3.64849 0.121309 21.4662
80 3 3.6843 1.95539 19.737
79 2 7.40016 1.85592 19.642
2147 1 5.64548 1.99315 21.4347
2146 2 7.2678 0.130192 21.371
2651 3 5.39472 0.171229 19.6962
81 3 10.8001 1.95204 19.8091
1648 1 10.6861 0.162182 21.5332
2652 3 9.0593 1.9031 21.4681
3152 1 9.1254 0.212456 19.7366
522 3 14.3932 1.88844 19.7523
1649 1 14.4338 0.370928 21.5764
2653 2 12.5806 1.81184 21.3989
3646 1 12.5791 0.206218 19.725
82 3 17.9203 0.132861 21.4889
2654 1 17.8354 1.71248 19.7127
3153 2 16.1535 1.91798 21.5158
3647 2 16.0804 0.0615677 19.6969
523 1 0.0516392 5.33697 19.5742
84 3 1.80521 7.15336 19.6893
83 3 0.0952651 7.18353 21.4439
1650 1 0.112914 3.94941 21.4369
3155 1 1.98341 5.58814 21.5245
3154 2 1.93498 3.84616 19.7326
524 2 3.67819 5.48462 19.7255
525 2 7.12837 5.37503 19.7531
526 2 3.73776 7.19802 21.3173
1153 3 7.10535 7.15867 21.3481
1152 1 5.5216 7.16499 19.6499
2655 3 3.76909 3.6758 21.4566
3156 3 7.31296 3.71909 21.5237
3649 2 5.47493 3.7043 19.7546
3648 2 5.56484 5.38737 21.5319
86 1 10.7235 7.14109 21.4299
85 3 9.11575 3.80883 19.7293
1155 1 10.8828 5.46336 19.6409
1154 1 8.93515 7.03954 19.7041
2656 2 10.9395 3.70084 21.4642
3650 2 9.13685 5.46818 21.4046
527 2 12.5189 7.31345 19.5143
88 1 12.6849 5.60238 21.3271
87 1 12.5706 3.74326 19.6373
1156 1 14.2788 5.71568 19.6347
2148 3 14.2545 7.39108 21.4885
2657 3 14.2182 3.60914 21.354
528 3 17.7388 3.62279 21.3704
89 3 16.0516 5.53093 21.3485
1157 1 16.1746 7.26619 19.4626
3158 1 17.7553 5.37406 19.5171
3157 2 17.9271 7.22281 21.4233
3651 1 15.8553 3.61926 19.6761
529 2 1.87771 8.91831 21.2972
530 3 1.99505 10.8311 19.4466
1158 1 0.177321 8.96288 19.7051
3652 3 0.172527 10.8094 21.3264
531 1 5.42951 9.0849 21.3139
532 2 5.42717 10.7849 19.6162
533 3 7.16466 10.7854 21.2592
1159 1 3.68236 8.97394 19.6604
1651 1 7.194 8.8953 19.7264
3653 1 3.67523 10.8918 21.3721
90 1 9.06466 10.6311 19.6701
1161 3 9.00992 8.94883 21.4389
1160 3 10.7753 10.8824 21.4913
1652 2 10.6809 9.0024 19.6233
534 3 12.387 10.7231 19.7662
1162 3 12.5453 9.07139 21.4958
1654 1 14.2626 10.7727 21.5917
1653 3 14.2859 9.12843 19.6882
1656 1 16.06 10.6019 19.4888
1655 3 16.1459 8.99371 21.3619
3159 1 17.949 10.7843 21.2083
3654 1 17.9461 8.8737 19.7271
1660 1 -0.116615 14.2006 21.309
1659 1 1.93613 14.5284 19.6308
1658 3 1.96652 12.6268 21.3175
1657 3 0.174107 12.5517 19.4415
1163 3 5.47647 14.3636 19.6843
1661 3 3.84694 14.443 21.4517
2151 2 7.26431 12.6194 19.6092
2150 2 5.3248 12.521 21.2164
2149 2 3.65231 12.7613 19.4843
3160 2 7.05344 14.455 21.4991
1662 3 8.78105 14.476 19.7277
2153 1 8.93343 12.5653 21.5136
2152 3 10.5936 12.5886 19.7767
2658 3 10.822 14.2976 21.4386
2155 2 14.392 12.5139 19.7034
2154 1 12.3928 14.3703 19.6049
2660 1 14.2686 14.3904 21.1841
2659 2 12.5213 12.8209 21.4058
535 2 17.7808 12.5161 19.5838
1164 3 17.8013 14.2216 21.4364
2156 2 16.0862 14.275 19.5785
2661 1 16.0888 12.3814 21.3465
1165 2 0.176459 18.0244 21.3203
2157 3 2.08268 18.0038 19.8474
2662 3 0.0871999 16.135 19.6607
3161 2 1.78237 16.0144 21.633
1664 3 7.20122 17.7801 21.4448
1663 1 3.89559 17.9108 21.3867
2664 3 3.68736 16.2139 19.6766
2663 2 7.19105 16.1 19.7245
3163 1 5.42139 16.108 21.3639
3162 3 5.53805 17.8776 19.5568
536 3 10.7738 17.7641 21.3453
2665 2 10.7074 15.8923 19.6513
3164 3 9.04521 17.7631 19.4848
3655 1 8.96917 16.0236 21.3551
2666 3 12.3102 17.8184 19.4731
3166 1 14.2665 16.0325 19.573
3165 2 14.3434 17.846 21.4094
3656 2 12.5589 16.1618 21.3658
92 1 16.1091 16.1505 21.4277
91 2 17.826 17.8623 21.3332
1166 2 17.9205 16.1128 19.5893
3167 1 16.0082 17.9614 19.5465
93 3 2.0508 1.96572 24.9924
1665 3 1.93548 0.168217 23.3144
2667 2 0.09296 0.298148 25.0628
3168 3 0.0191266 1.95465 23.1167
2158 2 5.37252 0.0986491 23.392
2670 2 3.72569 0.0137331 25.05
3170 3 7.21868 1.95087 23.3723
3169 1 3.74663 1.93591 23.1479
3659 2 7.232 0.0241998 25.1266
3658 3 5.66181 1.92712 25.0057
537 3 9.07436 1.97928 25.0466
2671 3 8.95059 0.212201 23.3465
3171 1 10.741 0.080858 24.9087
3660 1 10.752 1.93952 23.1874
2673 1 12.4991 0.100715 23.1786
3663 3 14.4809 1.88711 23.3266
3662 1 14.3696 0.371908 25.0844
3661 2 12.4875 1.91638 24.987
539 2 16.1588 1.88726 25.1013
1167 1 17.7769 0.253526 25.1139
1668 3 17.8416 2.01073 23.3026
2160 1 16.173 0.0754213 23.2942
99 2 1.84427 5.38239 25.0032
98 2 1.84308 7.32821 23.1909
97 2 0.407249 7.2473 24.983
96 2 0.147611 5.26475 23.2708
3173 2 1.91229 3.51373 23.1945
3172 1 0.159453 3.61026 25.1485
540 1 3.69881 7.2284 24.88
541 2 5.43999 7.23195 23.1469
542 3 7.09505 5.56022 23.198
543 2 5.44858 5.53238 24.9399
101 2 7.08326 7.32621 24.8799
100 2 3.72568 5.3537 23.2248
2675 2 7.25032 3.89481 25.0909
3175 3 3.79933 3.57919 25.09
3665 3 5.44137 3.67272 23.3092
546 2 9.08673 7.22594 23.2219
547 3 8.95507 5.56704 24.9328
102 1 10.7704 5.43113 23.1689
1170 2 10.7992 7.49015 24.9258
3177 3 10.8945 3.68892 25.0461
3666 2 9.13128 3.62813 23.1657
548 3 14.4553 5.59898 23.2858
549 1 12.7044 5.378 25.084
105 1 14.3943 3.74348 25.0808
1670 1 12.5388 7.30759 23.2853
3179 3 12.6823 3.73982 23.285
3667 2 14.3096 7.22566 25.1136
1172 2 16.1174 5.34917 25.0396
1672 3 17.92 3.68451 25.2206
1671 2 16.0614 7.3246 23.322
2678 2 17.8211 7.23813 24.8748
2677 2 17.8227 5.32726 23.4107
3668 3 15.9971 3.67906 23.2058
550 1 0.191673 9.05619 23.1746
106 2 1.93731 10.6503 23.2628
1175 1 1.93621 9.0156 25.0617
3669 3 0.217756 10.7229 24.9987
108 2 5.43824 10.5917 23.2222
1180 2 7.1306 10.745 24.962
1178 2 7.21308 9.03502 23.1798
1177 2 3.74539 8.96349 23.1231
1176 1 5.30658 8.98192 25.0451
3670 1 3.75293 10.7249 24.9256
551 3 10.8005 10.8592 24.9212
552 1 8.91935 10.8497 23.1135
1181 3 8.88746 8.90281 24.9752
1674 3 10.8259 9.07329 23.2818
1182 3 12.5099 10.8902 23.151
1676 2 12.6993 9.025 24.9219
1675 2 14.3989 9.06173 23.1446
2163 1 14.2579 10.8141 24.9777
1183 1 16.0356 8.86415 24.9182
1677 1 16.0601 10.8371 23.3703
2165 2 17.8064 10.7734 24.8648
3671 1 17.9951 9.15618 23.0811
555 2 0.163031 14.4297 24.8822
1184 1 1.96485 14.294 23.093
1678 3 1.95984 12.5487 24.8955
2166 3 0.269372 12.4564 23.2894
113 3 7.29398 14.0557 24.8796
1185 3 5.40839 12.6026 25.0341
2170 1 5.46541 14.3397 23.3563
2169 2 3.61743 12.4738 23.2367
2168 1 3.63111 14.4047 24.8476
2167 3 7.09804 12.5202 23.0527
1680 3 10.8233 14.3064 25.1269
2171 1 10.7933 12.5508 23.15
2682 2 8.94896 14.2739 23.2794
2681 2 8.99448 12.5411 25.0137
114 2 14.2077 14.2075 25.0682
1681 1 12.6627 12.5705 24.9304
2684 3 14.455 12.6864 23.1521
2683 2 12.3606 14.2082 23.3612
557 1 17.881 12.4721 23.2827
2173 1 16.1184 14.3944 23.2613
2685 3 15.9908 12.5146 25.1199
3183 3 17.8858 14.2915 24.8255
1684 1 1.86126 16.1125 24.9413
1683 2 1.84797 17.8421 23.2221
2688 2 0.0683592 16.1985 23.0951
2687 2 0.0779846 17.8125 24.9429
2175 2 7.20807 17.8055 24.8962
2174 3 5.42518 17.9119 23.3441
2689 2 3.68395 17.8128 24.7655
3187 3 5.56725 16.103 24.9505
3186 2 7.23855 16.1933 23.1497
3185 1 3.78901 16.112 23.1111
1687 3 8.97773 17.7732 23.203
1686 2 8.90614 16.0041 25.0825
2177 1 10.7623 17.7563 24.9366
3675 2 10.6776 16.0106 23.4815
2178 3 14.3135 17.8499 25.0441
2690 3 12.5213 17.8241 23.234
3188 2 12.6383 16.0446 25.0252
3676 3 14.3836 16.0268 23.1049
1187 1 17.8931 16.2164 23.0678
1186 3 17.9177 17.7894 25.1128
1689 1 16.1568 16.0524 24.8177
3189 3 16.0992 18.0158 23.1596
1188 3 0.210308 0.0495673 28.4774
2180 1 1.97844 1.84931 28.5856
2668 3 1.98077 0.197957 26.786
3657 1 0.0901204 1.95781 26.7721
559 1 7.40291 0.0250941 28.6436
94 1 7.17289 2.05217 26.7257
1189 3 3.78271 0.215632 28.5641
1666 1 5.67932 0.184365 26.659
2181 2 5.49422 2.02133 28.5395
2669 1 3.80133 1.68856 26.6336
560 2 10.8119 0.246491 28.5407
95 1 9.08346 0.153693 26.7572
2182 2 8.98149 1.86531 28.5634
2672 3 10.9412 1.94729 26.859
538 2 14.4089 2.0341 26.7764
1667 2 12.6413 0.0507908 26.6643
2184 1 12.6525 1.81242 28.5211
2183 1 14.3387 0.165313 28.5268
2159 3 17.8981 1.98282 26.7544
3193 1 16.1245 1.89265 28.5142
3679 2 17.8759 0.026829 28.8816
3664 2 16.1392 0.189656 26.8153
1168 1 1.96357 3.6901 26.8923
1669 3 1.90668 7.13921 26.7081
2186 2 0.0619409 7.25425 28.6314
2185 3 0.0996104 3.71444 28.6341
2674 3 0.10381 5.5052 26.8393
3194 1 2.03918 5.48048 28.5439
544 3 3.67577 5.43463 26.7144
563 1 7.16272 7.26682 28.6662
1691 1 7.24408 3.68375 28.6404
1690 2 3.69917 3.5221 28.4848
2676 1 7.20302 5.55991 26.7738
3196 2 3.78889 7.30832 28.5678
3195 1 5.43235 5.3684 28.4399
3176 3 5.44867 3.74398 26.7453
3174 2 5.41078 7.23018 26.8
545 2 10.7407 5.5598 26.6494
1171 1 9.00908 3.76391 26.8457
1169 1 8.80829 7.22311 26.8214
2694 2 10.8841 3.77463 28.5781
3197 2 9.02066 5.38864 28.5612
3681 1 10.5791 7.11747 28.4365
104 1 12.6129 3.72315 26.7866
103 2 14.3734 5.53912 26.8006
2695 3 14.3633 3.80809 28.5018
3178 3 12.4781 7.14183 26.7281
3684 3 14.2335 7.07747 28.4625
3683 1 12.4596 5.43182 28.5194
622 1 17.9771 3.62348 28.5632
1004 2 17.9627 7.2291 28.5072
1174 2 16.1973 7.33357 26.7056
1173 2 17.9534 5.5096 26.6906
3180 2 16.1446 3.71011 26.8146
3685 3 16.2875 5.51508 28.5808
1673 2 0.122863 9.00671 26.6808
2161 3 1.80813 10.8305 26.8676
2696 2 0.0946925 10.7668 28.6123
3687 1 1.89334 8.83209 28.3703
122 3 7.30498 10.8521 28.4682
107 1 3.58227 9.12383 26.8371