ITEM: TIMESTEP
5000
ITEM: NUMBER OF ATOMS
4000
ITEM: BOX BOUNDS pp pp pp
2.8197671752412390e-02 3.5705862328247363e+01
2.8197671752412390e-02 3.5705862328247363e+01
2.8197671752412390e-02 3.5705862328247363e+01
ITEM: ATOMS id type x y z
563 2 0.0869872 0.0937514 0.232735
1064 1 1.87018 1.83124 0.0345538
1563 1 1.84502 -0.111762 1.85972
2064 1 0.139089 2.09693 1.92635
1 1 3.66786 1.52051 1.73879
565 3 7.2547 0.168506 -0.0747731
2065 1 7.15587 1.95997 2.01499
2565 2 3.57408 -0.0858795 0.0569645
3064 3 5.3037 1.79859 -0.019467
3564 1 5.28677 0.0605489 1.84757
2 1 10.6882 1.94302 1.75924
1066 3 9.00322 1.80402 -0.24243
1564 3 9.08674 0.0888572 1.72812
2566 3 10.7824 0.195152 -0.00436475
567 2 14.288 0.124757 0.100562
2066 1 14.4201 1.78937 1.69345
3066 2 12.6909 1.75601 0.154095
3565 1 12.7576 0.182807 1.98823
751 3 17.7859 0.259105 0.114495
1068 2 16.0192 1.85915 0.0286247
1565 3 16.1713 0.0105131 2.02631
2001 3 17.941 2.06297 1.82772
3 1 -0.0818016 5.11859 1.83336
573 2 0.133577 7.20083 0.221115
1568 2 1.90691 7.36549 2.07004
2569 3 0.0386879 3.67566 -0.156705
3068 2 1.71687 5.5978 0.0696344
3566 3 1.82802 3.77231 1.93389
4 2 7.10786 5.39494 1.59516
569 2 3.54747 3.70556 0.0122409
577 2 7.19485 7.07883 0.13347
1070 2 5.48656 5.4242 -0.132708
1566 1 5.3284 3.73718 1.71403
2067 2 3.68854 5.54455 1.73535
2576 1 3.93737 7.23859 0.137313
2571 1 7.03322 3.21153 0.269939
3570 1 5.60348 7.43099 1.7442
570 2 10.8552 3.69421 -0.145355
1570 2 9.10688 7.27404 1.85062
2068 3 10.8828 5.32128 1.7472
2578 2 10.6772 7.15305 0.104553
3070 1 9.05835 5.34001 -0.0517552
3567 3 9.13399 3.59413 1.65157
5 2 14.4984 5.33951 1.70233
581 3 14.0619 7.32869 -0.114377
1072 3 12.6063 5.49978 0.251819
1567 2 12.6568 3.64571 1.81654
2573 1 14.3697 3.79056 -0.234253
3572 3 12.621 7.20774 1.98701
253 2 18.0769 5.5029 1.98361
761 2 18.0047 7.29053 0.0371412
1572 3 15.8759 7.20501 1.73359
2819 2 17.8846 3.39798 -0.130397
3072 2 16.2977 5.50721 0.0486486
3568 1 16.406 3.72438 1.58936
1074 1 1.90122 8.89605 0.153985
2069 1 -0.0989208 8.80701 1.83629
2574 1 0.11009 10.6832 0.0385029
3569 2 1.88728 10.6952 1.88084
6 1 3.43207 9.03125 1.92221
575 3 3.61635 10.9416 0.215987
1569 2 5.30146 11.0112 1.92171
2070 2 7.41083 9.29601 1.83172
2579 2 7.2063 10.7707 0.0212859
3074 2 5.46393 9.20415 0.152137
7 1 10.8352 8.82914 1.86573
578 2 10.6323 10.7335 0.0498914
1076 1 8.85687 8.9877 -0.203098
3571 2 8.85172 10.9045 1.65988
1571 3 12.3654 10.8738 1.82343
2071 3 14.0495 8.97628 1.7632
2582 3 14.3227 10.6275 -0.0321658
3076 1 12.3263 8.99797 0.0563978
1078 2 15.8978 8.90187 -0.0738387
2006 3 17.6907 9.14326 1.75059
2825 3 17.7659 10.807 0.0659239
3573 1 15.7915 10.8114 1.58049
8 3 0.140306 12.6656 1.68051
583 2 0.00130795 14.5062 -0.136611
1573 3 1.60913 14.4497 1.84259
3078 1 1.86721 12.553 -0.114464
9 1 7.19999 12.4273 1.96241
585 2 7.08175 14.6346 0.0413095
1080 3 5.26906 12.4297 -0.0451936
2072 3 3.29443 12.8284 1.76463
2585 3 3.52455 14.3319 0.026785
3574 2 5.43272 14.2296 1.75498
1574 2 8.8401 14.4421 1.91781
2073 1 10.4486 12.5377 1.68738
2586 1 10.6768 14.4655 0.0180106
3080 2 9.05673 12.7004 -0.0690478
10 3 14.1468 12.3222 1.82118
587 1 14.2414 14.2955 0.272402
1082 1 12.4985 12.534 -0.261952
3575 2 12.5473 13.9241 1.86018
258 3 17.7032 12.5895 1.74705
771 2 17.8436 14.2549 -0.054148
1575 2 15.9966 14.3207 1.7226
3082 3 16.0504 12.5272 0.0362701
626 1 -0.104143 17.915 0.00758185
1084 2 2.0202 16.203 -0.109527
1688 3 1.87982 18.0269 1.94443
2074 2 0.264229 16.2566 1.63662
11 1 3.52496 16.1899 1.82643
630 3 7.03932 17.813 0.0560757
2075 3 7.0877 16.0851 1.64338
2691 3 3.48758 17.9803 0.245655
3084 2 5.27982 15.947 -0.15345
3690 3 5.21725 17.9515 1.76352
12 1 10.9005 16.0798 1.8491
1086 2 8.89242 16.0394 -0.0840819
1690 3 9.07123 17.7017 1.8697
2693 2 10.6371 17.9274 -0.0752661
634 2 14.1567 17.8566 -0.128776
2076 1 13.9909 15.8703 1.7829
3086 3 12.6491 16.178 -0.189299
3692 3 12.6693 17.8217 1.8583
876 3 17.8207 17.7458 0.138652
1088 3 16.0824 16.1971 0.029236
1692 1 15.9793 17.6117 1.79918
2011 2 17.8159 15.8172 1.81522
13 3 -0.0494529 1.69138 5.13534
588 2 0.0807585 0.0415002 7.17087
1089 1 1.9469 1.75247 7.01709
2564 1 0.129194 0.0205018 3.51623
3063 2 1.93048 1.97227 3.44799
3576 1 1.63778 -0.143717 5.23077
14 2 7.10692 1.80784 5.21257
564 2 3.56093 -0.051657 3.70594
1065 2 5.47742 1.75328 3.51277
1577 1 3.6649 0.136967 6.99038
1576 2 5.75117 0.00736754 5.07948
2078 2 5.41608 1.81776 7.14614
2077 3 3.83446 1.70973 5.27166
2589 1 7.32342 -0.0139609 6.8186
2567 1 7.69748 -0.0411294 3.75567
566 1 10.8193 0.112092 3.54785
2079 1 10.7333 1.99221 5.42442
3065 2 9.19654 1.87348 3.60215
3088 2 8.81646 1.83259 7.20819
3578 1 10.7147 0.0515874 7.00735
3577 2 9.08081 0.31749 5.51183
15 3 12.6281 1.99 7.33873
16 1 14.4926 1.72482 5.43429
589 3 14.2368 0.0678347 7.16313
1067 1 12.6072 1.95265 3.31416
1578 2 12.4367 0.380603 5.37489
2568 2 14.438 0.252894 3.51662
263 3 17.9596 1.85486 5.24099
776 2 17.9698 -0.0646494 7.13795
1090 1 16.2007 1.94296 7.00078
2815 3 17.967 0.0225077 3.42282
3067 3 16.2793 1.9928 3.55153
3579 3 16.1394 -0.0681441 5.57938
568 1 -0.149242 3.64935 3.74938
1069 2 1.70619 5.55641 3.30379
1580 3 0.0652415 3.17297 7.17432
1579 3 1.63108 3.56281 5.49401
2081 2 1.75632 4.95491 7.39117
2080 2 0.120159 5.34043 5.28296
2591 3 0.341643 6.97373 7.20647
2575 2 -0.0969817 7.07756 3.64843
3583 3 1.7999 7.18912 5.4064
17 3 3.52826 5.28756 5.4329
571 1 7.23134 3.47982 3.53135
592 3 7.12438 7.19485 7.26348
576 2 3.56769 7.08782 3.64376
1585 1 5.35677 7.27342 5.16968
2082 3 7.08864 5.4325 5.31477
2590 3 3.88376 3.54262 6.96911
2580 2 7.17568 7.09275 3.5379
2570 3 3.66674 3.50916 3.49081
3069 3 5.48438 5.49084 3.44952
3089 3 5.18897 5.39205 7.14511
3586 2 3.35516 7.04027 7.23282
3581 2 7.05091 3.49283 7.01413
3580 1 5.48294 3.61569 5.55949
18 1 10.6889 5.26051 5.50651
19 3 8.81948 5.59711 7.18223
590 2 10.4854 3.57087 7.17949
579 3 10.611 7.26783 3.63966
1071 1 9.22678 5.43034 3.49011
1587 2 10.5891 7.05027 7.41189
1581 2 8.78256 3.53709 5.23789
2572 1 10.7875 3.4599 3.50503
3587 3 8.77025 7.13211 5.33787
572 3 14.4922 3.42523 3.63224
1091 3 12.5067 5.25236 7.32402
1589 3 12.3933 7.2359 5.22768
1583 3 14.3132 3.58543 7.27343
2083 1 14.1814 5.28669 5.36202
2593 3 14.325 7.14757 7.52448
2583 1 14.2979 7.25944 3.41787
3071 3 12.5249 5.34885 3.84765
3582 2 12.6318 3.41548 5.49155
757 1 17.9589 3.74787 3.70204
1073 3 16.0488 5.42948 3.607
1768 3 17.9758 3.7749 7.14161
1582 2 16.017 3.50015 5.375
2084 2 16.0366 5.40204 7.10626
2017 3 17.7804 5.49659 5.47766
2841 3 17.6492 7.07371 7.08742
2826 1 17.655 7.20988 3.45352
3589 3 15.9975 7.28668 5.43331
20 1 0.138977 8.69358 5.48405
574 1 0.259397 10.6777 3.52008
1584 2 1.66586 10.834 5.3094
3073 1 1.59961 8.87455 3.80436
3090 1 1.75789 9.11611 7.13619
3584 2 0.191692 10.8004 7.16225
21 1 5.42336 8.82564 7.20994
22 2 6.91884 8.79836 5.41807
591 2 3.64359 10.9928 7.20923
580 2 7.10289 10.6938 3.53298
1075 2 5.28707 9.09443 3.64387
1588 3 7.01171 10.786 7.31322
2085 2 3.75856 8.91741 5.36519
2577 2 3.504 10.5385 3.76738
3585 1 5.59757 10.7045 5.44951
1092 1 8.78714 8.99404 6.95739
1586 1 8.88756 10.7215 5.08889
2086 2 10.7565 8.95218 5.67784
2592 2 10.3928 10.8436 7.01679
2581 3 10.6081 10.6023 3.5992
3075 1 8.95664 8.85378 3.83375
23 3 14.221 8.76372 5.32948
582 1 14.2298 10.5837 3.50408
1077 2 12.409 9.07518 3.66249
2087 1 12.3888 9.08339 7.33964
3590 2 14.2372 10.808 7.15136
3588 1 12.5563 10.7555 5.49585
270 1 17.777 9.22851 5.48346
764 3 17.7707 10.5945 3.58572
1590 3 15.9284 10.7389 5.32652
3091 2 15.9283 8.86223 7.23976
3077 3 15.908 8.91757 3.62951
3835 3 17.7763 10.8301 7.32883
24 1 1.95173 12.3647 7.23151
593 3 0.148357 14.3367 7.05936
1079 1 1.94961 12.6184 3.57878
2088 3 -0.00611762 12.4486 5.43791
2584 1 0.0280757 14.3048 3.62139
3591 2 2.01175 14.3867 5.31446
25 2 3.49449 12.8138 5.34116
584 2 3.57553 14.6099 3.38501
1093 3 5.41866 12.3979 7.20921
1592 3 3.62253 14.334 7.13574
1591 3 5.22209 14.3406 5.28533
2089 2 7.08449 12.7581 5.50774
2594 1 7.16492 14.3425 7.22125
2587 3 7.17833 14.6551 3.66866
3079 1 5.18573 12.7943 3.60251
26 3 10.5798 12.3124 5.37992
586 1 10.7162 14.1816 3.66028
1081 2 8.80768 12.4329 3.5908
2090 1 8.91833 12.6013 7.08953
3593 1 10.7499 14.2889 7.42799
3592 2 8.88912 14.3458 5.56263
594 2 14.3251 14.4782 7.29504
1593 2 12.3699 14.3225 5.51814
2091 2 14.1977 12.5075 5.36027
2588 3 14.1597 14.3075 3.74485
3092 1 12.3336 12.522 7.26068
3081 3 12.4098 12.3369 3.60504
27 1 15.8364 12.7251 7.2434
781 2 17.6493 14.2786 7.16199
1083 3 16.0539 12.5035 3.59455
2025 1 17.5194 12.6332 5.36269
2835 2 17.6514 14.3861 3.82047
3594 2 15.7611 14.5722 5.41012
28 2 0.0766422 16.1669 5.21671
651 1 0.12673 17.8267 7.10499
1094 1 1.882 16.2487 6.92175
2690 1 -0.110949 17.9923 3.61303
3083 2 1.63521 16.3265 3.60221
3701 2 1.90481 18.1079 5.35966
29 2 7.17772 16.2532 5.36794
629 2 3.74678 17.9754 3.5266
1085 1 5.59909 16.2058 3.60384
1704 1 3.57937 18.0136 7.03684
1703 1 5.53259 17.9365 5.30986
2093 2 5.31307 16.0595 6.99469
2092 1 3.39663 16.1351 5.3164
2715 1 7.12498 17.8147 7.41477
2695 3 7.07501 17.8871 3.5012
632 1 10.7226 18.0467 3.6045
2094 2 10.6979 15.9843 5.36008
3093 3 8.97873 16.3638 7.26482
3085 3 8.99999 16.0178 3.66666
3704 3 10.8697 17.9988 7.22455
3703 1 9.13548 17.903 5.39954
30 3 12.5406 16.3725 7.32854
31 3 14.0762 16.1499 5.53133
653 3 14.3464 17.9778 7.04737
1087 2 12.4177 15.9044 3.7398
1706 2 12.2683 17.7099 5.13645
2698 1 14.1526 17.8073 3.60165
278 1 17.8022 15.8171 5.59072
901 2 18.0653 17.8043 7.02073
1095 2 16.0711 16.0394 7.34083
2878 1 17.6936 17.924 3.50889
3087 2 16.0885 16.0543 3.58846
3707 2 16.1198 17.8791 5.3298
1594 3 1.92371 0.0829688 8.75959
2095 1 0.0472838 1.55733 9.06035
2595 2 -0.0218529 -0.527276 10.953
3094 3 1.67736 1.64774 10.5581
33 1 7.02945 1.7108 8.72433
595 3 3.48696 0.12036 10.8377
1096 3 5.36129 1.5822 10.5091
2597 3 7.12393 -0.0544694 10.9385
2596 3 5.59369 -0.218361 8.85937
3095 1 3.58929 1.77096 8.744
596 1 10.6059 -0.184918 10.7284
1097 3 10.5536 1.69378 8.91101
3096 2 8.974 1.74713 10.8763
3596 3 8.7484 0.0897892 8.83225
597 1 12.3379 0.0585851 9.2172
1098 1 12.4798 1.76342 10.7006
2098 2 14.1683 1.71473 8.96072
2598 2 14.4055 0.0756734 10.7082
1597 1 16.061 0.234728 8.86453
2032 2 18.101 1.96306 8.82749
2845 2 17.7202 -0.0512428 10.7561
3097 1 15.9936 1.81911 10.6624
598 1 0.228517 3.5282 10.7787
1099 2 1.82646 5.14744 10.644
2603 3 0.0689338 7.05077 10.6779
2599 3 2.03598 3.28059 8.97267
3098 3 -0.0601035 5.28908 8.94648
3602 1 1.741 7.27181 9.04204
36 1 3.76277 5.27068 9.11895
605 3 3.45215 7.27782 10.7401
604 3 5.26981 7.08702 9.07533
600 2 7.07808 3.0986 10.538
1100 1 6.89095 5.19504 9.05006
2606 2 7.15961 7.09627 10.5144
2600 3 3.68332 3.37004 10.8142
3099 3 5.48279 5.10876 10.9765
3599 1 5.19308 3.52905 9.03757
606 3 10.8321 7.28849 10.8448
599 3 8.8663 3.52699 9.11952
1101 1 9.02826 5.55658 10.6316
1605 1 8.88201 7.14419 8.95755
2100 1 10.7878 5.49619 9.12095
2601 3 10.6675 3.66502 10.868
601 2 14.4543 3.6041 10.5405
1600 3 12.4034 3.4821 9.10129
2609 1 14.3544 7.25551 10.7274
2608 2 12.4914 7.14441 8.85529
3101 3 14.465 5.40928 8.97758
3100 3 12.747 5.20127 10.6896
786 3 17.6988 3.50005 10.7527
1102 2 15.9917 5.4954 10.7874
2853 1 17.9638 7.42117 10.6744
2602 2 16.1118 3.67885 8.94288
3348 2 17.7647 5.35463 9.0344
3608 1 16.0303 7.12641 8.93105
39 1 0.147344 8.88548 8.78279
603 1 0.00844915 10.7532 10.7991
602 2 1.81384 10.8523 9.06743
3102 3 1.87467 9.07644 10.9326
607 1 7.1541 10.8711 10.5791
1104 2 5.58218 8.96672 10.5122
1103 2 3.52953 9.05892 8.89809
1603 3 5.22918 10.7957 8.92961
2104 3 7.22716 9.08224 8.85581
2604 1 3.59748 10.7388 10.7314
2607 3 10.6734 10.8393 10.8027
2605 2 8.8547 10.9025 8.99097
3104 3 8.86912 8.97833 10.7177
3103 1 10.5402 9.1107 8.98249
42 2 14.2825 9.0053 8.87514
609 2 14.1908 10.7233 10.8515
1105 2 12.5288 8.95434 10.4977
3606 1 12.5313 10.7129 8.94155
289 1 17.846 9.004 8.67513
792 2 17.7448 10.8517 10.7082
608 3 15.9969 10.7558 8.97044
3105 2 16.1354 8.94775 10.8651
1107 3 1.71103 12.4826 11.0071
1106 3 0.115545 12.5105 8.88495
1609 1 1.638 14.4199 9.12871
2610 1 -0.0579484 14.3367 10.6835
610 2 3.49289 14.2972 10.9709
2107 1 3.49328 12.7998 9.14708
2612 2 6.95731 14.2176 10.7432
2611 3 5.23428 14.3828 8.799
3107 2 7.10956 12.6196 8.95482
3106 3 5.19635 12.604 10.7313
45 3 10.7944 12.3273 9.22523
611 1 10.723 14.3106 10.8451
1108 3 8.83965 12.6146 10.7893
3611 2 8.8371 14.519 8.67397
612 1 12.4448 14.3752 9.0324
1109 3 14.2779 12.5372 9.35802
2613 1 14.1055 14.4307 10.7069
3108 2 12.4608 12.6561 10.8164
1293 2 17.6468 12.6787 9.00364
1110 3 16.1862 12.663 10.996
1612 3 15.9849 14.5537 9.06121
2860 1 17.9965 14.2487 10.9404
1719 3 2.11216 17.9787 8.76131
2110 2 -0.107043 16.236 9.00668
2721 1 0.0912641 17.9791 10.7575
3109 2 1.82319 15.9532 10.9126
48 3 6.99187 16.0406 8.9933
659 2 3.5283 17.8439 10.8756
1111 1 5.28092 15.7953 10.8326
2724 1 6.88878 17.8641 10.5794
2722 3 5.29032 17.9342 8.9374
3110 1 3.51747 15.892 8.9629
661 1 10.6886 17.9171 10.91
1112 2 10.9234 16.2023 8.9771
3111 3 8.92208 15.9732 10.6772
3723 2 8.86861 17.9573 8.90851
663 3 12.7239 18.0633 9.03809
1113 2 12.3379 16.1523 10.8002
2113 3 14.0654 16.1649 9.16843
2727 1 14.3195 17.911 10.8425
1725 3 16.1532 17.91 8.80346
2047 1 17.861 15.9734 9.14536
2908 2 17.5901 17.7446 10.7314
3112 2 15.7451 16.1394 10.8023
32 2 0.0941957 1.8701 12.429
613 3 0.0578783 0.110711 14.3145
1114 3 1.74703 1.88241 14.4684
3595 2 1.87378 0.131605 12.4929
34 2 7.1029 1.91021 12.4496
614 3 7.20707 0.270454 14.1938
1595 3 5.19584 0.277489 12.5221
2096 2 3.54167 1.9721 12.7671
2614 2 3.54821 -0.0915168 14.3835
3113 1 5.29463 1.72543 14.6137
1115 3 9.08188 1.78569 14.2458
2097 3 10.7582 1.722 12.6401
2615 2 10.9047 -0.0196952 14.2431
3597 2 8.99779 0.0242903 12.6343
35 3 14.4454 1.85749 12.5501
615 1 14.2468 0.192005 14.4131
1596 1 12.7538 -0.110635 12.643
3114 3 12.4212 1.90397 14.321
282 3 17.7931 1.86124 12.5664
801 1 17.8991 0.18753 14.2739
1116 2 16.0827 1.61224 14.1876
3598 2 15.9983 -0.142167 12.4946
618 1 0.148873 6.90882 14.2645
1598 3 1.7049 3.43331 12.6582
2099 2 0.0495691 5.16157 12.5267
2616 1 0.0710465 3.57856 14.3354
3115 2 1.81606 5.48876 14.2344
3603 2 1.84452 7.09572 12.4964
37 1 3.55211 5.40924 12.4299
620 3 7.24576 7.14216 14.3106
616 1 3.70187 3.61452 14.3409
1117 1 5.42171 5.46589 14.2958
1604 3 5.30042 7.17822 12.3614
2101 2 7.28063 5.5305 12.6033
2620 3 3.74935 7.3781 14.3234
2617 3 7.24654 3.44138 14.2926
3600 1 5.37509 3.43346 12.4885
38 1 10.838 5.35592 12.5938
617 1 10.8187 3.67429 14.202
1599 1 8.7345 3.65711 12.3363
2621 3 10.9054 7.04222 14.2862
3116 3 9.11113 5.35154 14.1357
3605 3 9.10871 7.37808 12.6013
622 2 14.1486 7.05562 14.3026
1118 3 12.5714 5.35345 14.3648
1607 2 12.7181 7.21623 12.654
2102 2 14.2918 5.38137 12.689
2618 1 14.2174 3.63754 14.354
3601 2 12.5987 3.54403 12.4916
806 1 17.7119 7.49706 14.126
1601 3 15.9393 3.72982 12.4719
2036 3 17.7149 5.47321 12.313
2866 1 17.8198 3.90443 14.2322
3117 2 16.0432 5.58189 14.0825
3609 2 16.2419 7.35086 12.4185
40 1 -0.156715 9.00044 12.5444
1119 2 1.72848 8.84857 14.4742
1602 3 1.77899 10.7095 12.8365
2619 1 -0.000354692 10.681 14.4493
41 3 7.24087 8.93206 12.4476
619 1 3.56779 10.7469 14.6524
2103 3 3.61392 9.10771 12.433
2622 2 6.80115 10.4842 14.2732
3118 1 5.23548 8.9669 14.2803
3604 3 5.29983 10.556 12.452
621 3 10.5414 10.6129 14.2776
1120 2 8.73769 8.98718 14.3983
1606 2 8.85369 10.6908 12.596
2105 1 10.7322 8.96577 12.5888
43 2 14.2489 9.12988 12.6956
2623 2 14.3918 11.1183 14.2393
3119 2 12.4034 9.06914 14.0938
3607 2 12.4852 10.8978 12.5674
290 2 18.1752 9.11329 12.3591
1121 1 16.0181 9.10135 14.1178
1608 1 16.38 10.7944 12.3928
2870 1 18.0437 10.6438 14.34
623 3 -0.0452459 14.5383 14.4405
2106 2 -0.165903 12.4947 12.5511
3120 3 1.58623 12.4543 14.4634
3610 1 1.79353 14.371 12.7756
44 3 3.53097 12.5707 12.8297
624 2 7.29809 14.0134 14.4144
1122 3 5.30487 12.4406 14.343
1610 1 5.55648 14.1808 12.5524
2108 2 7.17551 12.3655 12.485
2624 2 3.5075 14.3747 14.4271
46 2 10.7049 12.6457 12.5806
2625 2 10.6253 14.2295 14.3542
3121 1 8.86504 12.5138 14.067
3612 3 8.75671 14.2982 12.639
625 3 14.3142 14.2647 14.3928
1123 1 12.2632 12.5856 14.2888
1611 2 12.4582 14.3705 12.5718
2109 1 14.4696 12.6554 12.4329
811 1 17.962 14.2241 14.3348
2044 2 17.8413 12.599 12.6335
3122 3 16.3402 12.481 14.3174
3613 2 15.9629 14.4372 12.5374
47 3 -0.0654006 16.2 12.6168
676 1 0.308085 17.9655 14.4954
1124 1 1.67666 16.3755 14.481
3720 1 1.90549 18.0402 12.5278
49 1 7.0182 16.0962 12.5038
678 2 7.09793 17.9161 14.4053
1721 2 5.36098 17.8685 12.401
2111 3 3.61888 16.1943 12.5252
2740 1 3.41073 18.0019 14.3018
3123 3 5.41362 16.081 14.1647
1125 1 8.79456 16.0236 14.5011
2112 1 10.4444 15.9228 12.6803
2741 3 10.4065 17.8715 14.4382
3724 2 8.81074 17.9031 12.6078
50 3 14.1686 15.9924 12.6251
680 2 14.0207 17.7331 14.311
1724 2 12.4179 17.7294 12.6888
3124 3 12.3035 16.0325 14.4455
297 1 17.9649 15.9977 12.3682
926 2 18.0253 17.8998 14.3081
1126 3 16.1533 16.0312 14.4558
3726 3 15.9563 17.7216 12.6935
1613 2 1.93835 -0.132877 16.2385
2114 3 -0.0803067 1.94453 16.1521
2626 2 0.16534 0.108801 17.8269
3125 1 2.1665 1.69688 18.0237
51 1 3.63695 1.77234 16.1169
502 3 3.69401 -0.0660324 17.9033
1128 1 5.29802 1.83258 17.8377
2115 3 6.98555 1.75059 16.2122
2628 3 7.11897 0.0277012 17.9413
3614 2 5.29056 -0.391783 15.9556
52 1 10.7287 1.73358 16.0545
503 3 10.6481 0.168551 18.005
1614 1 9.05305 0.0670614 16.0873
3127 2 8.94153 1.81103 17.9628
1130 3 12.6229 1.86865 17.8217
2116 1 14.3726 2.24073 16.015
2630 3 14.4494 0.299672 17.9661
3615 1 12.6021 0.141429 16.0856
1615 3 16.075 0.114219 16.1421
2051 3 17.7806 2.03724 15.9038
2501 3 17.9928 -0.186117 18.0697
3129 2 16.1864 1.80852 17.8813
53 3 0.0969718 5.4051 16.1265
506 1 -0.00721558 3.41475 18.094
1132 1 1.89708 5.35171 17.868
1618 2 1.72667 7.04141 16.0706
2636 1 0.356525 7.01041 17.8265
3616 3 1.86468 3.64514 16.1696
54 2 7.18603 5.4488 16.2168
508 3 7.23329 3.6311 18.0394
513 3 3.67502 7.14829 17.7505
1616 1 5.39228 3.78459 15.9996
2117 2 3.54032 5.41193 15.958
2640 3 7.10845 7.07282 18.1136
2632 1 3.81117 3.47506 17.7597
3131 2 5.45276 5.37932 17.6646
3620 1 5.43254 6.99439 16.2191
515 1 10.7839 7.39139 18.2041
1134 2 8.91972 5.35913 17.9647
1620 1 8.85944 7.28603 15.9537
2118 1 10.8115 5.53077 16.0841
2633 1 10.7479 3.50815 17.6276
3617 3 9.02683 3.59381 16.0655
55 2 14.2098 5.45004 16.1656
510 2 14.6088 3.67287 17.813
1617 2 12.3384 3.61245 16.0096
2644 1 14.3511 7.28886 17.777
3133 2 12.5012 5.4013 17.6807
3622 1 12.5493 7.19953 16.1806
303 3 17.71 5.69167 16.0003
819 3 17.7639 3.61893 17.941
1136 1 16.1651 5.71273 17.8329
1622 3 15.7312 7.32328 15.9212
2511 3 17.9593 7.24625 17.7995
3618 3 16.3249 3.83767 16.0091
511 1 0.007495 10.5129 17.8957
2119 2 0.0310336 8.93437 15.9036
3135 3 1.79851 8.90989 17.957
3619 2 1.62654 10.4918 16.0177
56 1 3.45763 8.95979 16.0652
516 3 7.24584 10.7872 17.9813
1138 1 5.39916 9.00727 17.985
1619 2 5.31086 10.7114 16.2757
2120 3 7.10885 8.8172 16.3701
2638 3 3.49255 10.9076 17.5546
57 3 10.7751 8.83533 16.1102
2641 1 10.8243 10.8676 18.0525
3137 3 8.91656 9.14992 17.7906
3621 1 8.78505 10.7181 15.9326
519 1 14.3599 10.716 17.7975
1140 2 12.4348 9.00786 17.754
1621 2 12.4542 10.7014 15.9447
2121 3 14.1342 8.98733 15.9886
825 3 17.9653 10.611 17.9412
2056 1 17.7862 8.99985 16.1969
3139 2 16.0411 8.79355 17.9534
3623 3 16.1706 10.6842 16.1335
58 3 -0.117174 12.5595 16.1456
1142 3 1.75488 12.657 17.8802
1623 3 1.56196 14.4804 16.0587
2646 2 0.0923911 14.4373 17.9893
59 2 7.26654 12.3911 16.1718
522 3 3.66001 14.4279 17.9892
2122 1 3.4749 12.8875 16.1288
2648 3 7.10313 14.3854 17.741
3141 2 5.30605 12.5774 17.886
3624 1 5.46915 14.1436 16.0674
523 1 10.6629 14.006 17.839
1144 2 8.89627 12.4518 17.8305
1624 2 9.00855 14.1946 16.1583
2123 2 10.6343 12.4261 16.1148
60 1 14.2481 12.5283 16.1787
2650 3 14.164 14.3063 17.899
3143 2 12.2887 12.4845 17.7594
3625 3 12.4462 14.3368 16.0232
308 3 18.1052 12.5841 16.043
1146 3 16.1546 12.6227 17.7994
1625 3 16.0633 14.259 15.9525
2521 2 18.0243 14.2236 17.8927
1738 3 1.7048 18.0488 16.2575
2124 2 0.123196 16.3156 16.4766
2751 1 -0.121618 18.2172 17.9489
3145 1 1.75746 16.2454 17.9573
61 3 3.46456 16.2651 16.091
691 2 3.29816 17.8676 18.0445
1148 1 5.32596 16.2738 17.9995
2125 3 6.87908 15.9246 16.0057
2755 2 7.09691 18.0891 17.5909
3740 3 5.14351 17.9514 16.2439
62 3 10.4949 16.0946 16.3598
693 3 10.6938 17.8902 17.8737
1740 2 8.80574 17.9112 15.9853
3147 2 8.71352 16.0914 18.0355
1150 3 12.368 16.0638 17.9439
2126 1 14.331 16.2409 16.0866
2759 2 14.3002 17.7311 17.9975
3742 1 12.323 17.8483 16.0052
1742 3 16.1291 17.6233 16.3447
2061 1 18.0195 16.0678 16.1001
2938 3 18.1291 17.9432 17.9251
3149 2 16.09 15.8914 17.8564
501 3 0.354713 -0.0908242 21.3664
63 1 0.428612 1.79497 19.5524
1127 2 1.90361 1.98252 21.5794
3626 2 1.97904 0.092846 19.5666
504 2 7.29066 -0.0378629 21.4192
64 1 7.04763 1.73607 19.8327
1626 1 5.45231 -0.230831 19.7149
2127 1 3.7929 1.96005 19.888
2627 1 3.61273 -0.0812335 21.6597
3126 2 5.49703 1.68666 21.692
1129 1 9.02226 1.68451 21.2532
2128 3 10.8752 1.6681 19.6621
2629 2 10.7153 -0.00490822 21.1849
3627 1 8.987 -0.0216405 19.7187
505 2 14.4902 0.0818101 21.3837
65 1 14.2984 2.12765 19.5232
1627 1 12.8038 0.246552 19.9282
3128 3 12.3573 1.81034 21.7458
815 1 17.9056 -0.0524184 21.496
313 3 17.8478 1.79073 19.8771
1131 2 16.0532 1.75479 21.5949
3628 3 16.0079 0.0587485 19.6928
512 1 0.0405474 7.32024 21.4575
1628 3 2.01179 3.65329 19.5444
2129 3 0.274128 5.39592 19.9601
2631 2 0.0280418 3.32356 21.5189
3130 3 1.97607 5.35772 21.4499
3631 3 1.73338 7.46525 19.7477
507 1 3.61595 3.60695 21.6004
517 2 7.18658 7.27689 21.4095
66 3 3.69061 5.39361 19.6813
1133 3 5.37469 5.2522 21.4911
1632 1 5.37483 7.14513 19.5086
2130 3 7.12211 5.45148 19.6884
2639 1 3.4391 7.18261 21.5803
2634 2 7.06476 3.50679 21.4507
3629 1 5.25382 3.62377 19.7895
509 1 10.6839 3.4202 21.6507
67 3 10.7741 5.14729 19.6353
1629 3 9.03507 3.45301 19.8641
2642 2 10.926 7.23097 21.37
3132 1 9.10225 5.44652 21.5043
3633 2 8.83964 7.21915 19.6575
520 1 14.3168 7.11262 21.4255
1135 1 12.4609 5.08097 21.446
1634 1 12.7124 7.25554 19.6106
2131 2 14.3339 5.41543 19.6726
2635 3 14.4278 3.42713 21.4662
3630 2 12.4538 3.46989 19.6874
826 3 17.9182 7.02205 21.3487
1630 1 16.2478 3.43327 19.8442
2316 2 17.9438 5.47354 19.4354
2507 3 18.0795 3.57906 21.5042
3134 3 16.1413 5.18615 21.4009
3635 2 16.113 6.96163 19.7044
68 2 0.0125965 8.85241 19.7903
1137 3 1.83084 9.02949 21.3635
1631 2 1.59981 10.7713 19.5808
2637 3 -0.0103371 10.5224 21.492
514 3 3.72062 10.6622 21.3017
69 1 7.11688 8.97424 19.7658
2132 2 3.60468 9.0735 19.6631
2643 3 7.22273 10.923 21.3231
3136 1 5.40719 8.99762 21.3596
3632 2 5.33954 10.668 19.6019
518 1 10.739 10.5967 21.6221
1139 2 9.08826 8.8054 21.5504
1633 3 8.92606 10.8881 19.7561
2133 3 10.6777 8.97112 19.8403
70 1 14.4852 8.75136 19.7376
2645 3 14.4081 10.6666 21.2663
3138 2 12.6921 8.96542 21.2441
3634 2 12.3764 10.6751 19.5839
318 3 17.7014 8.74588 19.6794
1141 3 16.1598 8.93952 21.3914
1635 1 16.1264 11.0144 19.4402
2514 2 17.8874 10.5406 21.2703
521 2 -0.0939501 14.5162 21.3264
2134 1 -0.166992 12.6017 19.4963
3140 1 1.86804 12.448 21.1658
3636 3 1.9081 14.4749 19.9212
524 2 7.03913 14.046 21.6986
71 1 3.51795 12.4115 19.4864
1143 3 4.94792 12.5394 21.3116
1636 3 5.42539 14.3096 19.6902
2135 1 7.07873 12.6788 19.5661
2647 3 3.48704 14.4013 21.5512
72 2 10.6804 12.7844 19.6114
2649 1 10.7381 14.4459 21.4966
3142 3 8.9007 12.5481 21.4783
3637 3 8.79788 14.2803 19.8195
525 3 14.2851 14.4381 21.4588
1145 3 12.4781 12.6939 21.3262
1637 2 12.2857 14.447 19.5704
2136 1 14.1717 12.5526 19.6162
835 2 17.8325 14.2254 21.4279
2321 2 18.0275 12.6439 19.6129
3144 2 16.1694 12.6901 21.565
3638 1 16.0359 14.1855 19.5663
690 2 -0.121098 17.9218 21.4397
73 2 0.00155836 16.032 19.6455
1147 1 1.69341 16.1443 21.6588
3751 2 1.77505 17.9735 19.795
695 3 7.05865 17.7669 21.2915
74 2 7.0765 15.9224 20.0452
1502 1 5.21925 17.7593 19.6217
2137 2 3.46832 16.2077 19.6213
2754 3 3.55002 17.9549 21.5073
3146 1 5.5315 16.1179 21.5004
1149 2 8.87653 16.0667 21.7131
2138 3 10.6145 16.0097 19.7928
2757 1 10.678 17.7229 21.5096
3753 3 8.84983 17.6772 19.6502
698 2 14.301 17.7877 21.4103
75 3 14.4057 15.9003 19.8178
1504 1 12.5001 17.8444 19.5281
3148 3 12.5309 16.0427 21.3139
941 2 17.7022 17.9337 21.262
323 2 17.8407 16.0485 19.5449
1151 2 16.3955 16.1459 21.4064
3755 1 15.9168 17.7725 19.4548
1638 1 1.81911 -0.0804818 23.2081
2139 3 0.0737395 1.68205 23.2167
2651 1 -0.0394309 -0.0973562 24.8686
3150 2 1.99651 1.79856 25.2035
526 2 7.38909 0.00322207 25.0789
77 1 5.6549 1.74149 24.8684
76 3 3.49407 1.87825 23.3739
2140 3 7.41866 1.74124 23.1687
3640 3 3.82682 0.104402 24.9313
3639 2 5.37706 -0.00778329 23.3256
78 3 10.5858 1.5082 23.3166
1152 3 8.93139 1.84236 24.9397
1640 3 10.4779 -0.0764492 24.8946
1639 1 8.81715 -0.20695 23.1883
2142 3 14.303 1.85547 23.2683
2141 1 12.5087 1.69443 24.9874
2652 1 14.139 0.0911485 24.9395
3641 1 12.3538 0.00803965 23.3063
1641 2 16.198 0.0242156 23.3
2326 3 17.7774 1.82223 23.2377
2526 3 17.8683 -0.0299268 24.876
3151 3 15.9493 1.86968 25.0652
528 1 0.151232 7.28162 25.1802
80 2 1.63809 5.39412 25.0319
79 2 0.231738 5.45707 23.2274
1645 1 1.82148 7.17227 23.2858
3643 3 0.233949 3.64472 25.0531
3642 1 1.92491 3.63615 23.32
527 2 3.53293 3.66345 25.2176
81 3 6.91609 5.62267 23.1391
1153 2 5.56431 5.48899 25.1798
1648 2 3.6954 7.2651 25.2922
1643 2 7.17182 3.73821 24.9057
1642 1 5.43011 3.67397 23.6233
2143 3 3.69068 5.33196 23.4476
2655 3 7.2821 7.36213 24.9535
3648 2 5.19054 7.25676 23.1538
1649 1 8.92968 7.12337 23.1801
2145 2 8.87899 5.40584 24.9961
2144 3 10.7281 5.44817 23.0848
2653 3 10.4828 3.61893 24.7541
3650 1 10.4214 7.35814 25.0345
3644 1 8.83818 3.82465 23.0708
530 1 14.3533 7.25255 24.9245
82 3 14.2566 5.36335 23.4586
1644 2 12.4999 3.80254 23.3855
3152 1 12.3642 5.35165 25.0907
3652 1 12.6146 7.16985 23.3714
3646 2 14.1894 3.66788 25.0926
841 1 17.7131 7.33768 25.0957
329 1 17.9786 5.42971 23.2009
83 2 16.1452 5.39801 25.0663
1651 1 16.1413 7.10272 23.2026
3893 2 17.954 3.73049 25.0308
3645 1 15.8809 3.53083 23.4064
1154 2 1.92587 9.00307 25.1355
1646 3 -0.0833401 10.5625 25.1001
2146 2 0.105724 8.78751 23.1642
3647 1 1.78964 10.7499 23.3088
84 1 3.61935 8.94853 23.3493
1647 2 5.40873 10.9057 23.2004
2148 2 7.17197 8.93815 23.1841
2147 1 5.44614 8.9396 24.9499
2654 3 3.51061 10.7155 25.0617
3651 2 7.29482 10.8509 24.9747
529 2 10.7413 10.8734 24.8222
85 3 10.763 8.8919 23.1932
3153 1 9.11639 9.05386 24.9381
3649 3 8.92246 10.8036 23.227
86 3 12.3953 9.04969 25.0443
1652 1 14.2386 10.9385 24.9975
1650 3 12.552 10.6704 23.198
2149 3 14.3575 8.83433 23.2422
1155 3 16.0353 8.99687 25.0383
1835 3 18.0176 10.7188 24.9777
2333 3 18.0569 8.81763 23.2978
3653 3 16.2809 10.6674 23.2967
87 3 0.169208 12.5034 23.1501
1653 2 1.54367 14.4554 23.3523
2150 2 1.89472 12.4452 25.1656
2656 1 0.087353 14.4334 25.0248
531 3 7.12517 14.1546 24.9053
88 2 7.15141 12.5165 23.3188
2151 3 3.40451 12.462 23.252
3154 1 5.24363 12.3333 24.9541
3655 1 3.2716 14.0654 24.9788
3654 1 5.37822 14.3385 23.3578
89 1 8.90193 12.6821 24.8958
1655 2 10.7142 14.2286 24.808
1654 3 9.07992 14.1152 23.1881
2152 2 10.8585 12.5435 23.0951
90 2 14.2245 12.3011 23.0232
1156 1 12.3205 12.4727 24.7786
2657 2 14.3743 14.3693 25.1117
3656 1 12.6307 14.2244 23.2984
337 1 17.7657 12.5318 23.2596
1656 1 15.8464 14.2203 23.2323
2153 2 16.0441 12.5985 24.92
2531 3 17.8257 14.2328 24.6544
1513 1 1.74856 18.0166 23.4579
2154 3 -0.203059 16.2963 23.1251
2776 3 0.121506 17.6206 25.0794
3155 2 2.00177 16.3449 25.0903
715 2 7.16096 17.9034 25.2534
92 2 5.42591 15.9206 25.053
91 3 3.44919 16.1586 23.358
2155 1 7.06358 16.2544 23.1573
3767 2 3.72814 17.8711 24.9819
3766 1 5.37523 17.9239 23.3739
93 2 10.7611 16.0161 23.3962
1157 1 8.98552 15.949 25.093
1515 3 8.88974 17.861 23.3215
1516 2 10.5304 17.745 25.0179
2157 1 14.2399 16.402 23.2578
2156 1 12.3886 16.0032 24.9377
2778 3 14.1982 17.761 25.0423
3769 1 12.2101 17.8341 23.0353
1519 2 16.0484 17.8235 23.0443
2341 2 17.7908 16.1109 23.0337
2963 1 17.8524 17.841 24.9104
3156 2 16.1202 16.0008 24.9291
532 1 0.256277 -0.181896 28.5381
94 1 0.206875 1.69607 26.589
1158 2 1.86885 1.73447 28.5213
3657 2 1.92462 -0.12847 26.6199
533 2 5.59482 0.153909 26.6214
534 2 7.15991 0.302465 28.7004
1159 1 3.58691 1.69879 26.7758
2159 1 7.15843 1.87303 26.8957
2658 2 3.77664 0.127795 28.3717
3157 2 5.35254 1.82079 28.437
1160 2 8.965 1.66866 28.4768
1658 1 8.94845 -0.0328113 26.6825
2659 2 10.9028 0.047779 28.5776
3158 2 10.7432 1.67924 26.6744
535 3 14.4132 0.0578387 28.5017
97 1 14.2519 1.95008 26.7049
2660 1 12.3958 0.0652591 26.7353
3159 2 12.4425 1.85288 28.4751
845 2 17.6295 -0.012453 28.6201
344 1 17.9649 1.76251 26.9364
1161 1 16.131 1.66798 28.5318
3660 2 15.999 -0.185425 26.5004
536 1 1.92755 3.62074 26.9621
540 1 -0.116634 7.16297 28.5793
1162 2 -0.0139815 5.49933 26.865
1664 2 1.93873 7.25698 26.6333
2661 3 0.159302 3.58579 28.6308
3160 3 1.8549 5.44361 28.599
537 2 3.53067 3.69324 28.3378
543 2 7.03151 7.09175 28.6059
1163 1 5.38496 5.43582 28.3878
1661 1 5.49873 3.53894 26.5325
2162 1 3.77704 5.44767 26.7311
2668 3 3.54559 7.34861 28.6531
2667 2 5.48679 7.43646 26.7792
2663 1 7.29106 3.44627 28.4771
3161 1 7.08485 5.54362 26.5842
538 1 10.7812 3.52624 28.5479
99 1 10.7467 5.54533 26.8291
2669 3 10.7195 7.32743 28.439
2662 3 8.89857 3.65634 26.6322
3162 2 8.64337 5.36546 28.6452
3668 2 8.724 7.17741 26.9617
545 3 12.3981 7.13932 26.6583
546 2 14.1972 7.11365 28.3055
1165 1 14.063 5.40657 26.787
1164 2 12.5081 5.45787 28.5603
2664 2 14.1334 3.48604 28.3722
3663 2 12.376 3.62486 26.7194
853 3 17.8389 7.32 28.5228
539 3 16.1312 3.54979 26.7312
1349 1 17.8805 5.45483 26.8239
1670 1 15.9366 7.18616 26.8308
2536 2 17.8039 3.56357 28.4468
3163 2 15.9892 5.30648 28.4093
1166 1 1.79203 9.02369 28.5405
2165 2 0.0323002 8.84781 26.9531
2666 2 0.0368772 10.6387 28.5778
2665 1 1.56163 10.6478 26.799