ITEM: TIMESTEP
5000
ITEM: NUMBER OF ATOMS
4000
ITEM: BOX BOUNDS pp pp pp
4.8098833486662329e-02 3.5685961166513110e+01
4.8098833486662329e-02 3.5685961166513110e+01
4.8098833486662329e-02 3.5685961166513110e+01
ITEM: ATOMS id type x y z
563 1 -0.0855086 -0.0238721 0.135222
1064 3 1.85467 1.77654 0.127628
1563 2 1.78798 -0.0537388 1.82905
2064 2 -0.0241117 1.65478 1.66042
1 2 3.73359 1.95311 1.73553
565 1 7.11942 -0.0344586 0.0148896
2065 3 7.2795 1.72141 1.88767
2565 1 3.53744 0.141489 0.102286
3064 2 5.36277 1.93308 -0.0761617
3564 2 5.22119 -0.0191413 1.92126
2 2 10.7064 1.57092 1.85965
1066 3 9.10106 1.67968 -0.0589186
1564 3 9.06189 0.0593853 1.69639
2566 1 10.6037 -0.0672104 -0.187598
567 1 14.4198 -0.147904 -0.0815289
2066 3 14.2815 1.54962 1.75113
3066 1 12.6229 1.77278 -0.0115011
3565 1 12.4983 -0.137745 1.61802
751 2 17.8522 -0.100681 -0.12796
1068 3 16.1335 1.71665 0.0415085
1565 2 16.0583 -0.0225427 1.90244
2001 3 17.856 1.83135 1.8066
3 1 -0.12733 5.50057 1.75235
573 3 -0.332622 7.42095 -0.0528965
1568 3 1.83539 7.16604 1.82062
2569 2 0.170628 3.69936 0.178946
3068 1 1.69189 5.5111 0.115389
3566 1 1.78018 3.67564 1.82648
4 1 7.24736 5.2946 1.84133
569 3 3.46018 3.54609 0.133805
577 3 7.29698 6.8427 0.0723756
1070 1 5.26917 5.19304 0.022945
1566 2 5.52509 3.52945 1.97128
2067 2 3.46943 5.45136 1.9945
2576 2 3.58535 7.11089 0.016337
2571 3 7.42236 3.47176 0.0806887
3570 2 5.37437 6.73207 1.71643
570 3 10.8026 3.35418 -0.0145202
1570 1 9.00308 7.05064 1.88109
2068 2 10.8264 5.27056 1.7769
2578 3 10.6492 6.96511 0.0620629
3070 3 9.0438 5.16322 0.140124
3567 1 9.07223 3.41868 1.76791
5 2 14.3651 5.43177 1.97019
581 2 14.1173 7.01731 0.101074
1072 3 12.3985 5.36828 0.229166
1567 3 12.7054 3.39492 1.64771
2573 1 14.5594 3.48958 0.079326
3572 3 12.5617 7.26067 1.84972
253 2 17.797 5.2266 1.78858
761 2 17.713 7.3144 0.207405
1572 1 15.869 7.10604 1.93809
2819 1 17.7902 3.54183 -0.0652873
3072 3 16.2534 5.26387 0.0184258
3568 2 16.0731 3.66338 1.89495
1074 1 1.86608 9.0122 0.334253
2069 2 0.157582 8.99032 1.8559
2574 3 -0.157429 10.7863 -0.0332996
3569 1 1.70531 10.7714 1.92429
6 1 3.84525 8.78554 1.77115
575 2 3.71916 10.6128 0.232972
1569 1 5.48629 10.7826 1.77212
2070 1 7.0655 8.85071 1.39016
2579 2 7.33669 10.6762 -0.110792
3074 3 5.27652 8.63892 -0.125474
7 3 10.6812 8.86888 1.79387
578 1 10.914 10.3702 0.106819
1076 3 8.97083 8.733 -0.14037
3571 1 8.93487 10.5646 1.62736
1571 3 12.3709 10.7687 2.05666
2071 2 14.3663 8.94466 1.83242
2582 1 14.2513 10.6038 0.216917
3076 2 12.7122 8.74007 0.170465
1078 2 16.0017 8.92554 0.098769
2006 2 17.7742 9.14424 1.90366
2825 3 17.8042 10.6853 -0.114671
3573 2 15.7893 10.9512 1.72183
8 2 0.0664268 12.5425 1.88911
583 1 0.316502 14.2888 0.0396364
1573 1 1.97415 14.2205 1.74188
3078 1 1.8974 12.3278 0.0913738
9 1 7.50129 12.391 1.95411
585 3 7.13624 14.2697 0.103623
1080 2 5.45808 12.3452 -0.0300532
2072 2 3.74898 12.4532 1.7719
2585 3 3.70395 14.0683 -0.056568
3574 1 5.38873 14.2725 1.79434
1574 1 8.92784 14.2952 2.065
2073 3 10.6566 12.386 1.78075
2586 1 10.4471 14.3411 0.0606648
3080 2 8.93862 12.3311 -0.346301
10 2 14.1729 12.6135 1.68158
587 3 14.5007 14.3395 -0.171793
1082 3 12.403 12.4996 0.0592561
3575 2 12.3185 14.1808 1.81065
258 3 17.6818 12.7175 1.72021
771 3 18.0218 14.3069 0.0414399
1575 2 15.9568 14.0642 2.02337
3082 2 16.1902 12.4677 0.0633227
626 1 0.114335 17.9875 -0.0296198
1084 1 1.80501 16.0672 0.0613883
1688 3 2.02673 17.8177 1.73841
2074 2 0.138468 15.9772 1.79296
11 2 3.65601 15.8349 1.7756
630 2 6.86211 17.8768 0.0746279
2075 3 7.20175 15.9484 1.70665
2691 2 3.77915 17.781 0.0923376
3084 2 5.31545 15.9787 -0.0441178
3690 1 5.44719 17.8199 1.78129
12 2 10.6353 15.9616 1.95616
1086 2 8.88261 15.9896 0.104763
1690 2 9.01933 17.898 1.8367
2693 2 10.6283 17.7818 0.173085
634 1 14.256 17.8737 0.0820912
2076 2 14.032 15.9697 1.66211
3086 3 12.3733 16.0663 -0.00884962
3692 2 12.4077 17.8856 2.03733
876 3 17.9628 17.7244 0.023119
1088 3 16.3662 15.9722 0.237315
1692 2 15.9145 17.834 1.60282
2011 1 17.8653 16.1039 2.12576
13 1 0.148821 1.83209 5.35638
588 3 0.131045 0.156893 7.26371
1089 1 1.97792 1.82138 7.31428
2564 2 0.00583025 0.115328 3.74872
3063 1 1.80606 1.81317 3.46454
3576 3 1.85146 0.135671 5.35361
14 3 7.1234 1.72818 5.24394
564 2 3.58499 0.0501607 3.57057
1065 2 5.34185 1.91609 3.75122
1577 1 3.71391 0.273453 7.10722
1576 2 5.18387 0.213309 5.28665
2078 2 5.24265 1.72292 7.26192
2077 2 3.42977 1.99612 5.31964
2589 1 6.98813 0.0060642 7.26977
2567 1 6.98797 0.143152 3.52938
566 1 10.9011 0.0403634 3.76549
2079 3 10.8609 1.82413 5.41105
3065 2 8.98912 1.75571 3.67325
3088 3 9.04896 1.57689 7.30068
3578 1 10.9624 0.0372144 7.09155
3577 3 9.0242 0.206724 5.28628
15 2 12.6028 1.95647 7.31492
16 1 14.5447 1.6857 5.41329
589 3 14.2977 0.177247 7.35684
1067 2 12.4733 1.56149 3.4515
1578 3 12.7452 0.156482 5.25891
2568 3 14.3996 -0.173067 3.73296
263 3 17.7931 2.0512 5.32374
776 1 17.8348 -0.0685385 7.24834
1090 3 16.0709 1.74576 7.39018
2815 2 17.7117 -0.0529705 3.81276
3067 3 16.0885 1.83056 3.55374
3579 2 16.4022 0.060706 5.6037
568 3 0.0394258 3.57484 3.59548
1069 1 1.77203 5.52439 3.62165
1580 3 -0.136836 3.6234 7.11353
1579 1 1.7622 3.56798 5.36957
2081 1 1.80943 5.29194 7.05907
2080 2 0.0841579 5.30961 5.27891
2591 3 -0.0176014 7.09966 7.02143
2575 3 0.119689 7.18864 3.63448
3583 1 1.8115 7.38248 5.32418
17 3 3.60097 5.56347 5.30848
571 3 7.29218 3.5967 3.57168
592 1 7.41028 7.16561 7.05513
576 3 3.38683 7.32697 3.70783
1585 2 5.41583 7.17793 5.23875
2082 3 7.22068 5.49027 5.42561
2590 1 3.50752 3.78696 7.20528
2580 1 7.289 7.07329 3.50841
2570 3 3.4033 3.84224 3.55181
3069 1 5.44515 5.25187 3.65695
3089 2 5.40797 5.52117 7.01068
3586 3 3.74691 7.11522 7.1682
3581 3 7.42134 3.45896 7.0053
3580 3 5.42957 3.72428 5.46046
18 1 10.8901 5.37238 5.37478
19 1 9.10075 5.29624 7.03869
590 1 10.6381 3.81984 7.17778
579 1 10.9356 7.10287 3.68314
1071 3 9.06561 5.22986 3.55419
1587 1 10.6557 7.19451 7.14511
1581 2 9.03453 3.33964 5.33332
2572 3 10.6792 3.55033 3.3978
3587 3 9.01539 6.9931 5.35869
572 3 14.2757 3.44826 3.67646
1091 1 12.6756 5.42659 7.22614
1589 2 12.5604 7.09616 5.31169
1583 2 14.4834 3.73129 7.02234
2083 1 14.1565 5.54686 5.33912
2593 1 14.4136 7.1182 7.01867
2583 3 14.2159 7.13267 3.61637
3071 3 12.5039 5.18514 3.58232
3582 3 12.619 3.54588 5.41019
757 2 17.9167 3.68431 3.54249
1073 3 16.0715 5.42283 3.70728
1768 3 18.0607 3.63453 7.45082
1582 1 16.1272 3.56622 5.5303
2084 3 16.2044 5.43644 6.94146
2017 2 17.8898 5.50223 5.33535
2841 3 17.8154 7.24729 7.19851
2826 3 17.7515 7.19028 3.4602
3589 2 16.2076 7.19964 5.38445
20 2 -0.0696115 8.86209 5.51422
574 2 0.176729 10.5658 3.51404
1584 1 1.8182 10.6626 5.2403
3073 3 1.96742 9.06678 3.5901
3090 1 1.69656 8.7703 7.00955
3584 2 -0.0183315 10.7064 7.01278
21 2 5.52242 9.00782 6.97415
22 3 7.307 8.87129 5.38144
591 2 3.61253 10.714 7.12659
580 1 7.30906 10.6049 3.4016
1075 3 5.42368 8.79944 3.48262
1588 1 7.09179 10.6624 7.05337
2085 1 3.73158 8.96456 5.41162
2577 3 3.87005 10.7725 3.54777
3585 3 5.45553 10.5694 5.26162
1092 2 9.00916 8.81188 7.35461
1586 3 8.80094 10.6096 5.5309
2086 1 10.5981 8.9816 5.37349
2592 2 10.7705 10.6893 7.26568
2581 3 10.5037 10.5905 3.77062
3075 3 8.99105 8.81085 3.55043
23 2 14.2746 8.94314 5.42712
582 3 14.3581 10.7686 3.74164
1077 1 12.4314 8.90553 3.7191
2087 1 12.3487 9.10666 6.75728
3590 1 14.1999 10.9198 7.11214
3588 1 12.4921 10.7658 5.15769
270 2 17.847 8.88505 5.41503
764 2 17.8209 10.989 3.5935
1590 3 15.8745 10.8905 5.44287
3091 2 15.9471 9.0408 7.11706
3077 3 16.0887 8.91259 3.60548
3835 2 17.8907 10.5455 7.18555
24 1 1.81888 12.4696 7.14968
593 2 -0.1055 14.3162 7.37997
1079 3 1.94689 12.5248 3.54712
2088 2 0.0611871 12.5887 5.33337
2584 2 0.0654967 14.3177 3.59843
3591 1 1.91913 14.0674 5.47621
25 1 3.7644 12.4188 5.45249
584 3 3.8081 14.4739 3.64511
1093 1 5.35344 12.4326 7.20097
1592 3 3.61636 14.164 7.15337
1591 3 5.50274 14.1589 5.36423
2089 2 7.04511 12.4014 5.38435
2594 1 6.94949 14.2853 7.10831
2587 1 7.08883 14.0936 3.6564
3079 2 5.62938 12.3173 3.44584
26 2 10.641 12.5791 5.55173
586 2 10.6301 14.1396 3.72334
1081 2 9.02868 12.4742 3.65876
2090 1 8.66693 12.4649 7.17933
3593 2 10.6338 14.3174 7.15949
3592 1 8.81859 14.1296 5.38947
594 1 14.3502 14.1456 6.93615
1593 1 12.444 14.1318 5.36924
2091 2 14.3159 12.6506 5.3545
2588 3 14.1309 14.2568 3.68423
3092 2 12.3817 12.4304 7.1136
3081 3 12.3844 12.5351 3.62274
27 2 16.065 12.6151 7.07976
781 1 17.9523 14.2823 7.36168
1083 2 16.112 12.4891 3.61926
2025 2 17.9805 12.7132 5.49329
2835 2 18.0296 14.3119 3.65508
3594 2 16.1716 14.167 5.38025
28 1 -0.222327 15.9176 5.48403
651 2 0.240502 17.6686 7.04937
1094 2 1.95148 16.0158 6.99899
2690 3 0.233655 17.8503 3.56284
3083 1 1.78716 16.0419 3.63921
3701 2 1.92129 17.9933 5.38137
29 2 7.12087 16.105 5.35952
629 3 3.37938 17.7494 3.59399
1085 3 5.5292 15.9308 3.4457
1704 1 3.6513 17.7647 7.05834
1703 3 5.45701 17.8672 5.31825
2093 3 5.1735 15.9005 7.26107
2092 2 3.60755 16.0202 5.42634
2715 1 7.04861 17.6338 7.16326
2695 3 7.30229 17.811 3.4955
632 2 10.7043 17.9383 3.53773
2094 1 10.5586 15.9391 5.24048
3093 2 8.96921 16.2547 7.00426
3085 1 9.03652 15.9847 3.62109
3704 3 10.9029 17.7877 7.18112
3703 3 8.82751 17.9532 5.36954
30 2 12.576 16.1511 6.95559
31 3 14.4408 16.0509 5.44653
653 3 14.3856 17.9343 7.14144
1087 1 12.3816 16.0972 3.49042
1706 2 12.4134 17.7798 5.34186
2698 1 14.3931 18.0297 3.54699
278 2 17.7325 15.8625 5.49028
901 1 17.8795 17.9231 7.15522
1095 3 15.957 16.0998 7.37942
2878 2 17.7156 18.0007 3.54089
3087 2 15.9711 16.0794 3.41475
3707 3 16.2379 17.7961 5.40312
1594 2 1.99383 -0.00602355 9.05456
2095 1 0.112021 1.77028 8.99625
2595 2 0.242971 -0.0154238 10.9304
3094 1 1.75783 1.80263 10.6055
33 1 7.16045 1.73883 9.0095
595 1 3.59579 0.0638281 10.7818
1096 2 5.25942 2.08892 10.7086
2597 1 7.08518 0.0120029 10.5162
2596 2 5.14335 0.184472 9.10019
3095 2 3.68673 1.93373 8.88181
596 2 10.8778 -0.0771622 10.6579
1097 2 10.8163 2.01255 9.00685
3096 2 9.08145 1.76464 10.7059
3596 3 9.09518 0.0743078 8.97754
597 3 12.5272 0.0517562 8.97744
1098 3 12.4892 1.72267 10.7604
2098 1 14.2823 1.92859 9.03638
2598 3 14.1467 0.0447686 10.7568
1597 3 15.9228 -0.0102933 9.15259
2032 3 17.8189 1.84982 9.07616
2845 2 17.9203 -0.0320422 10.8016
3097 2 16.1379 1.81094 11.0024
598 3 0.272603 3.62916 10.6541
1099 1 1.81806 5.45763 10.738
2603 1 -0.0239685 6.99471 10.5159
2599 3 1.95473 3.84684 8.96206
3098 3 -0.0605818 5.33988 8.88213
3602 1 1.71182 7.3183 9.02186
36 3 3.69416 5.463 8.95494
605 3 3.66763 7.40815 10.8799
604 1 5.47037 7.29886 8.92357
600 1 7.11951 3.5089 10.4763
1100 3 7.18122 5.34158 8.803
2606 3 7.27389 7.1595 10.5451
2600 1 3.62116 3.58679 10.6912
3099 3 5.61366 5.47386 10.655
3599 1 5.48017 3.55022 8.55706
606 1 10.7536 7.18963 10.4748
599 2 8.99342 3.61543 8.99189
1101 1 8.97349 5.43377 10.4124
1605 2 9.15051 7.07135 8.8645
2100 2 10.8321 5.35971 8.80674
2601 1 10.6785 3.62948 10.8227
601 3 14.3915 3.761 10.6914
1600 3 12.5702 3.66239 9.00347
2609 1 14.288 7.204 10.8656
2608 2 12.5674 7.36736 9.05704
3101 3 14.2961 5.60206 8.90167
3100 2 12.6026 5.61285 10.6365
786 3 17.7515 3.56968 10.6436
1102 3 15.9394 5.34865 10.7792
2853 1 18.0282 7.14151 10.8097
2602 1 16.0507 3.7905 8.73738
3348 3 18.0609 5.52427 8.9912
3608 1 16.2455 7.12392 9.0003
39 2 0.124013 8.97101 8.82306
603 1 0.180553 10.6308 10.6354
602 2 1.94645 10.8781 8.86364
3102 2 1.84151 9.15051 10.8707
607 1 7.5319 10.7248 11.0342
1104 2 5.61147 8.9767 10.8933
1103 2 3.34919 8.95364 8.70292
1603 3 5.38064 10.5354 8.89599
2104 3 7.28432 8.84147 9.05628
2604 2 3.60756 10.7032 10.8964
2607 3 10.6376 10.7851 10.7976
2605 3 8.75874 10.5824 8.94393
3104 1 9.24273 8.74227 10.7577
3103 1 10.6827 9.23036 8.88348
42 1 14.429 8.86673 9.0795
609 2 14.5599 10.6929 10.9219
1105 3 12.5809 9.08978 10.8695
3606 2 12.8085 10.5411 8.76571
289 2 17.7199 9.15079 9.14477
792 1 17.9969 10.7664 10.658
608 3 16.2189 11.002 8.98431
3105 2 16.1927 9.08412 10.7708
1107 3 1.90714 12.5854 10.7287
1106 3 -0.156045 12.5477 8.98322
1609 1 1.7823 14.4122 8.8643
2610 2 0.124125 14.4648 10.7423
610 3 3.54339 14.2359 10.8851
2107 1 3.54988 12.4147 8.99339
2612 1 7.02538 14.2948 10.7807
2611 3 5.36128 14.2287 8.96332
3107 2 7.08227 12.4625 8.94869
3106 3 5.20256 12.5491 10.7958
45 3 10.5184 12.5753 8.96412
611 3 10.9212 14.2393 10.6994
1108 3 9.03511 12.7627 10.8591
3611 1 8.89522 14.2507 8.73194
612 2 12.4259 14.3959 8.75458
1109 3 14.2414 12.5538 8.84569
2613 1 14.0061 14.3411 10.6347
3108 1 12.2881 12.3182 10.5218
1293 2 18.1041 12.2502 8.8637
1110 3 16.0541 12.5453 10.4261
1612 3 16.0956 14.3224 8.91928
2860 1 17.8081 14.143 10.5358
1719 1 1.73732 17.775 8.81676
2110 2 -0.0690243 16.2 8.74685
2721 2 0.0402509 17.9311 10.6698
3109 2 1.72642 16.4206 10.721
48 3 7.2447 16.0789 8.9358
659 1 3.54801 17.9669 10.8856
1111 2 5.34723 16.3276 10.749
2724 2 7.22263 17.9771 10.6785
2722 1 5.30358 17.8054 8.92791
3110 1 3.55491 15.8396 8.92372
661 2 10.561 17.7079 10.8529
1112 3 10.8858 16.0647 8.95886
3111 3 8.71075 15.7683 10.6944
3723 2 9.10148 17.9446 8.91545
663 3 12.5034 17.6841 9.01226
1113 2 12.6582 16.3018 10.8882
2113 1 14.0318 15.9625 9.04849
2727 1 14.3406 17.8356 11.0185
1725 1 16.1337 17.967 8.90924
2047 3 17.7763 16.2532 9.06885
2908 1 17.8991 17.9751 10.8541
3112 1 16.0056 15.8375 10.9201
32 2 0.0895412 1.66793 12.6898
613 2 -0.120926 -0.210225 14.3324
1114 3 1.98825 1.91745 14.3059
3595 2 1.91238 -0.0714898 12.5933
34 1 7.17435 1.78312 12.5427
614 1 7.12038 0.135139 14.1183
1595 2 5.26315 0.202986 12.4336
2096 1 3.46586 1.80132 12.5425
2614 3 3.43369 0.026327 14.319
3113 2 5.34523 1.98012 14.3374
1115 2 8.94794 1.99794 14.3001
2097 3 10.6841 1.83783 12.3381
2615 1 10.9586 0.168125 14.3299
3597 2 8.87815 -0.0411091 12.2975
35 1 14.3547 1.85072 12.3065
615 3 14.4516 0.284389 14.3242
1596 3 12.4214 0.0966119 12.6305
3114 2 12.5824 1.84999 14.0977
282 1 18.2537 1.96431 12.5173
801 3 17.9697 0.012446 14.0771
1116 2 16.0482 1.94119 14.5498
3598 1 16.2214 0.235697 12.5608
618 3 0.118688 7.12985 14.5937
1598 3 1.77215 3.56087 12.505
2099 2 -0.00721586 5.33469 12.4794
2616 1 -0.0836294 3.56042 14.2742
3115 3 1.91585 5.5062 14.1738
3603 3 1.80391 7.16429 12.528
37 2 3.69251 5.4111 12.4662
620 2 7.29377 7.21383 14.2721
616 1 3.82601 3.70271 14.175
1117 3 5.32578 5.23869 14.1555
1604 1 5.54907 7.13739 12.4993
2101 3 7.161 5.35114 12.3024
2620 2 3.9095 7.26579 14.3275
2617 1 7.20538 3.62556 14.4436
3600 3 5.37091 3.53697 12.5155
38 2 10.8149 5.44653 12.3129
617 1 10.9042 3.65744 14.2206
1599 1 8.91122 3.76022 12.2494
2621 3 10.6979 7.06582 14.4199
3116 3 9.02685 5.24596 14.1163
3605 1 8.81235 7.06256 12.5122
622 3 14.2402 7.27778 14.3901
1118 3 12.6473 5.39564 14.3913
1607 1 12.4472 7.11025 12.723
2102 3 14.3995 5.62601 12.6527
2618 3 14.3192 3.60826 14.2951
3601 2 12.7929 3.79773 12.5382
806 2 18.063 7.31675 14.4097
1601 2 16.1184 3.59424 12.4973
2036 2 17.8235 5.307 12.6104
2866 3 17.829 3.66898 14.2413
3117 3 16.2935 5.49445 14.325
3609 3 16.2254 7.24427 12.4171
40 2 0.0212961 9.04448 12.4871
1119 1 1.85619 8.8112 14.3896
1602 2 1.91352 10.6095 12.6571
2619 3 -0.186983 10.8943 14.1268
41 3 7.14481 8.88939 12.4044
619 2 3.48514 10.8221 14.3913
2103 3 3.69046 9.08613 12.4467
2622 3 7.37624 10.6191 14.3391
3118 3 5.31262 9.30668 14.4867
3604 3 5.5122 10.8535 12.4791
621 3 10.9048 10.7593 14.4047
1120 3 9.0089 8.87344 14.2618
1606 1 9.14188 10.7363 12.5377
2105 3 10.9721 8.86886 12.6969
43 3 14.2111 8.74872 12.6275
2623 3 14.415 10.8635 14.2954
3119 1 12.4646 8.92902 14.4087
3607 1 12.698 10.7003 12.6169
290 3 17.966 8.93303 12.6189
1121 1 16.1112 8.88873 14.1529
1608 1 16.0756 10.8116 12.6131
2870 3 18.1108 10.5967 14.2651
623 1 0.0894959 14.3272 14.1116
2106 1 -0.0704947 12.6742 12.2957
3120 3 1.74706 12.5152 14.2893
3610 2 1.87181 14.3694 12.541
44 1 3.62668 12.4492 12.3802
624 1 7.14326 14.1607 14.3705
1122 3 5.41554 12.4023 14.3911
1610 3 5.32628 14.0369 12.7147
2108 3 7.17158 12.5455 12.6919
2624 3 3.65588 14.2811 14.2453
46 3 10.9334 12.3223 12.8332
2625 1 10.7474 14.244 14.5135
3121 3 9.16182 12.3354 14.3682
3612 3 9.06971 14.1725 12.637
625 2 14.54 14.0498 14.3189
1123 2 12.5221 12.5401 14.5052
1611 2 12.5081 14.2957 12.4632
2109 3 14.4989 12.5269 12.6446
811 2 17.8052 14.3087 14.3729
2044 2 17.9689 12.3779 12.349
3122 2 16.3497 12.3476 14.4731
3613 1 16.0401 14.4227 12.4488
47 2 0.159886 16.2482 12.416
676 3 0.0392993 17.8907 14.3337
1124 3 1.97364 16.069 14.2112
3720 2 1.64227 18.144 12.6665
49 2 7.00677 16.0943 12.4853
678 1 7.11738 17.771 14.1996
1721 2 5.48076 17.8672 12.4238
2111 2 3.48963 16.2549 12.397
2740 1 3.38164 17.8108 14.1468
3123 2 5.07733 16.2013 14.257
1125 3 8.79914 16.0034 14.4546
2112 1 10.5739 15.9911 12.4346
2741 1 10.6073 17.9391 14.1912
3724 2 8.86938 17.856 12.5305
50 1 14.3733 15.8581 12.5803
680 1 14.1226 17.9088 14.5853
1724 2 12.5733 17.6683 12.5573
3124 2 12.6229 15.8969 14.2012
297 2 17.9373 16.0529 12.3278
926 1 17.8329 17.8653 14.3835
1126 3 15.9872 16.1613 14.2759
3726 1 16.08 17.8671 12.7801
1613 2 1.85252 -0.179642 16.1101
2114 3 -0.0418488 1.77842 16.143
2626 2 -0.0500759 0.0356697 17.858
3125 2 1.77572 1.73814 17.666
51 1 3.70209 1.8132 16.0311
502 3 3.74062 0.0454288 17.7905
1128 1 5.38448 1.8071 17.8985
2115 1 7.27696 1.95571 15.8771
2628 3 6.8895 -0.00842584 17.7524
3614 2 5.43927 -0.148781 15.9559
52 2 10.779 1.95471 15.885
503 1 10.7145 0.39423 17.923
1614 3 8.86233 0.175334 16.1266
3127 3 8.82863 2.02335 18.0118
1130 1 12.5325 2.02927 17.9647
2116 2 14.2406 1.95221 15.9877
2630 1 14.2613 0.180758 17.8872
3615 1 12.7065 0.378834 15.9092
1615 2 16.3398 0.205392 16.1302
2051 1 17.9724 1.84079 15.8717
2501 2 17.9069 0.0116415 17.97
3129 1 15.8536 1.95188 17.8299
53 1 -0.0155313 5.52011 16.2024
506 1 0.12511 3.52919 17.9909
1132 2 1.92226 5.38642 17.7273
1618 3 1.8856 7.2093 16.0351
2636 2 0.192608 7.26462 18.038
3616 2 1.70104 3.55254 15.8634
54 1 7.13753 5.39875 16.0538
508 1 7.24457 3.66584 18.0374
513 1 3.70264 6.95489 17.9882
1616 2 5.3383 3.70426 16.1355
2117 3 3.56853 5.38075 15.9181
2640 2 6.98405 7.02427 17.8697
2632 1 3.65407 3.72373 17.7991
3131 2 5.23795 5.27758 17.9046
3620 1 5.384 6.96924 16.2259
515 1 10.701 7.09938 17.9434
1134 2 8.74802 5.3014 17.7818
1620 3 9.00584 7.1967 16.1433
2118 1 10.784 5.17966 16.0455
2633 3 10.7478 3.81396 17.8708
3617 2 8.88259 3.72444 16.1638
55 1 14.4223 5.43239 16.3077
510 3 14.3361 3.71075 17.7051
1617 1 12.4895 3.54491 16.0723
2644 3 14.4283 7.38058 17.7717
3133 2 12.5861 5.45894 17.9132
3622 1 12.6063 7.05264 16.315
303 2 18.0319 5.31343 16.2639
819 2 17.9378 3.3274 17.9419
1136 2 16.2899 5.4157 18.0755
1622 3 16.2608 7.1614 15.9683
2511 2 18.0502 7.1041 17.8605
3618 2 16.3573 3.60401 16.1954
511 3 0.16924 10.7291 17.9026
2119 2 -0.235638 8.8628 16.168
3135 3 1.72215 9.0902 18.016
3619 1 1.50207 10.8325 15.9096
56 3 3.52972 9.02408 16.1262
516 2 7.09279 10.7394 17.9502
1138 2 5.31277 8.87889 17.8608
1619 1 5.2985 10.7578 16.1539
2120 3 7.1677 8.86581 16.1183
2638 3 3.43838 10.7157 17.7856
57 3 10.8871 8.76218 16.2703
2641 2 10.5646 10.6433 17.9131
3137 1 8.78339 9.01368 17.9818
3621 2 8.96795 10.6319 16.2425
519 1 14.1873 10.6204 17.7589
1140 1 12.4114 8.60639 17.9241
1621 1 12.5009 10.7339 16.1655
2121 3 14.3759 9.05817 15.9159
825 3 18.1387 10.9282 18.0008
2056 2 17.9723 9.16767 16.3069
3139 3 16.2369 8.83846 18.0323
3623 3 16.1627 10.7674 16.2725
58 2 -0.0799273 12.6419 16.1831
1142 1 1.65822 12.6974 17.9695
1623 3 1.80159 14.3924 15.9233
2646 2 0.0473691 14.3351 17.8777
59 3 7.22149 12.396 16.1044
522 3 3.61687 14.4298 17.8402
2122 3 3.35749 12.6253 16.1444
2648 2 7.25571 14.4613 17.7242
3141 2 5.34016 12.6472 17.6397
3624 1 5.4253 14.2936 16.0764
523 3 10.5475 14.3266 17.8036
1144 1 8.76908 12.5732 17.9375
1624 2 8.92491 14.1538 16.1887
2123 2 10.7019 12.4885 16.3647
60 1 14.503 12.5672 16.2821
2650 2 14.2361 14.4367 17.9693
3143 1 12.508 12.2371 17.8275
3625 2 12.5307 14.2417 16.14
308 1 17.8952 12.6284 16.0846
1146 1 15.9039 12.3871 17.9705
1625 3 16.0876 14.0938 16.2092
2521 2 18.0032 14.2697 17.9289
1738 3 1.80903 18.0933 16.0275
2124 1 0.13464 16.1229 16.024
2751 1 0.0638174 18.0814 17.8332
3145 3 1.77708 15.9779 17.7455
61 3 3.63282 16.0588 16.0816
691 1 3.68595 18.0092 17.8115
1148 2 5.25507 16.2471 17.7994
2125 2 7.18657 16.1963 16.1082
2755 2 7.07003 17.8916 17.8893
3740 3 5.3476 17.8684 16.1785
62 2 10.7895 16.1073 15.8785
693 2 10.5666 17.7037 17.9746
1740 2 9.18294 17.8262 16.304
3147 1 8.97598 16.1233 17.8373
1150 2 12.0981 16.0356 17.7429
2126 1 14.3811 16.0385 16.0995
2759 2 14.1253 17.8641 17.9365
3742 2 12.5401 17.7006 16.2409
1742 1 15.9949 18.0975 16.3735
2061 1 17.8272 16.1282 16.0607
2938 2 17.8957 17.9329 17.8488
3149 1 15.9982 16.067 17.7766
501 1 0.0755532 0.0743857 21.497
63 2 -0.00561355 1.80236 19.5025
1127 3 1.8459 1.84087 21.3647
3626 1 1.82639 0.0905969 19.519
504 3 7.07733 -0.0843818 21.5785
64 2 6.88105 1.62745 19.8176
1626 3 5.088 0.104029 19.8941
2127 3 3.5047 1.98224 19.3654
2627 2 3.30116 0.00758787 21.3956
3126 1 5.13259 1.89387 21.2814
1129 3 9.15949 1.743 21.3728
2128 3 10.8794 1.91939 19.7422
2629 3 10.8587 0.0396205 21.2741
3627 2 8.72978 0.125968 19.8155
505 3 14.2278 0.160365 21.3845
65 2 14.3302 1.99136 19.6103
1627 3 12.5472 0.29755 19.6012
3128 3 12.5526 2.2202 21.38
815 3 17.824 0.0629302 21.5074
313 2 18.065 1.76393 19.5781
1131 2 16.0544 1.65157 21.5899
3628 1 16.1568 0.287456 19.4534
512 1 0.153936 7.40282 21.6432
1628 1 1.73982 3.74889 19.6168
2129 1 0.0498459 5.39986 19.3355
2631 1 -0.0660251 3.69042 21.3583
3130 3 1.63736 5.33065 21.4402
3631 3 1.8783 7.06619 19.4836
507 2 3.45577 3.52427 21.3633
517 2 7.19661 7.22921 21.3319
66 1 3.74452 5.37186 19.7142
1133 2 5.44897 5.36721 21.5016
1632 1 5.40836 7.18937 19.6642
2130 1 7.00418 5.32422 19.5311
2639 1 3.71494 7.01536 21.515
2634 3 7.10273 3.50686 21.6818
3629 2 5.47942 3.3929 19.7003
509 3 10.7244 3.92462 21.504
67 3 10.6512 5.47078 19.565
1629 3 9.10124 3.69815 19.7809
2642 3 10.6859 7.16051 21.3873
3132 2 8.77388 5.45478 21.5556
3633 1 8.82235 7.27527 19.4067
520 3 14.4129 6.94971 21.3192
1135 1 12.5834 5.42336 21.4991
1634 3 12.5878 7.25344 19.6933
2131 3 14.5907 5.24683 19.7409
2635 1 14.5133 3.5043 21.672
3630 3 12.6225 3.7535 19.6318
826 3 17.9991 7.01113 21.3703
1630 1 16.1514 3.35293 19.5673
2316 3 18.2438 5.31248 19.6032
2507 3 17.8486 3.39815 21.5094
3134 3 16.2966 5.25233 21.4996
3635 1 16.2372 6.9799 19.6356
68 1 0.0488198 9.10986 19.6799
1137 3 1.96785 9.06192 21.3454
1631 1 1.85869 10.9718 19.6524
2637 2 0.18192 10.9806 21.611
514 2 3.52801 11.0014 21.2712
69 1 7.1641 9.14035 19.6892
2132 3 3.56626 8.865 19.5956
2643 2 7.14917 10.8437 21.5202
3136 3 5.39765 9.05095 21.328
3632 2 5.36278 10.7726 19.526
518 2 10.6454 10.7232 21.6688
1139 2 8.93196 9.10623 21.5354
1633 2 9.013 10.8224 19.7587
2133 3 10.5876 9.0222 19.7163
70 2 14.4787 8.83017 19.842
2645 1 14.4429 10.7443 21.393
3138 3 12.6156 8.91161 21.286
3634 1 12.3579 10.6598 19.816
318 1 18.1246 8.85583 19.7204
1141 3 16.2552 8.804 21.3334
1635 3 16.1961 10.7513 19.7229
2514 3 18.2658 10.5644 21.3836
521 2 -0.0387937 14.3002 21.5739
2134 3 0.0852051 12.4818 19.671
3140 1 1.85952 12.8715 21.69
3636 3 1.75211 14.3957 19.6007
524 1 7.18135 14.2144 21.4483
71 3 3.65628 12.6214 19.4865
1143 2 5.48799 12.6343 21.5825
1636 1 5.42898 14.3759 19.5639
2135 3 7.07734 12.5802 19.5417
2647 3 3.75328 14.2189 21.4321
72 1 10.6314 12.6368 19.6413
2649 2 10.736 14.2115 21.5507
3142 3 8.88711 12.4603 21.4669
3637 3 8.89163 14.3388 19.7031
525 1 14.0919 14.0431 21.2604
1145 2 12.2726 12.552 21.5737
1637 1 12.5807 14.3215 19.6981
2136 2 14.2847 12.3622 19.6126
835 2 17.9366 14.1709 21.5544
2321 1 18.0853 12.5514 19.7147
3144 1 16.2152 12.5258 21.5633
3638 3 16.251 14.216 19.7297
690 3 0.0598385 17.8444 21.3633
73 1 0.385984 16.0403 19.6897
1147 3 1.92614 15.9991 21.5915
3751 3 1.83495 17.8736 19.5089
695 3 7.05722 17.9689 21.513
74 1 7.06934 16.125 19.6001
1502 1 5.2659 17.9276 19.7366
2137 3 3.69395 15.8939 19.5796
2754 1 3.80277 17.9454 21.556
3146 2 5.42601 16.0554 21.5344
1149 2 8.93149 16.1316 21.4177
2138 1 10.7487 15.9748 19.7885
2757 3 10.589 17.7096 21.5243
3753 1 8.78189 17.773 19.7506
698 3 14.2148 17.8799 21.5586
75 1 14.0852 16.1651 19.564
1504 2 12.4095 17.6825 19.7351
3148 3 12.6091 16.0024 21.52
941 1 17.7974 17.592 21.291
323 2 17.7336 16.0358 19.6441
1151 2 16.0612 16.0501 21.5326
3755 1 16.0747 17.8005 19.6284
1638 2 1.85324 0.117925 23.2176
2139 3 0.0589303 1.68817 23.2621
2651 3 -0.247841 0.0629778 25.1883
3150 1 1.79931 1.72657 25.3181
526 3 7.17076 0.107238 24.9483
77 1 5.42684 1.78487 25.2703
76 2 3.57073 1.74689 23.0922
2140 3 7.20405 1.74078 23.191
3640 3 3.54768 0.0597352 25.0799
3639 3 5.34924 0.195188 23.1188
78 2 10.9998 1.69835 23.2294
1152 1 8.99944 1.67974 24.9566
1640 2 10.9523 -0.116955 24.8929
1639 1 8.88486 0.19331 23.3173
2142 1 14.2027 1.78828 23.1331
2141 2 12.533 1.7421 25.1343
2652 1 14.2283 0.00137259 25.1868
3641 3 12.5856 0.079978 23.2974
1641 3 16.1935 0.0274991 23.3236
2326 3 18.0345 1.76509 23.4548
2526 2 17.9618 -0.1288 25.0493
3151 2 15.9172 2.00162 25.1789
528 1 0.374067 7.07156 25.1094
80 2 1.7307 5.25437 25.1023
79 3 0.161734 5.21905 23.454
1645 1 1.85899 7.16351 23.2808
3643 1 -0.175902 3.46745 25.0743
3642 2 1.75428 3.59141 23.0873
527 3 3.4279 3.62955 25.1082
81 1 7.04735 5.27708 23.208
1153 2 5.29374 5.43967 24.8938
1648 1 3.67127 7.26817 24.9794
1643 3 7.11538 3.47043 24.9031
1642 2 5.24727 3.50723 23.388
2143 3 3.62235 5.34687 23.0172
2655 2 7.05718 7.03975 24.8765
3648 2 5.38428 7.28668 23.0774
1649 2 8.88772 7.34233 23.1441
2145 2 9.02881 5.25904 25.1606
2144 1 10.5518 5.57728 23.3409
2653 2 10.7328 3.65106 25.0877
3650 1 10.6461 7.24069 25.0696
3644 2 9.18817 3.62033 23.2578
530 1 14.242 7.35377 25.0355
82 2 14.4338 5.17827 23.337
1644 2 12.4367 3.65145 23.3995
3152 2 12.5639 5.25403 24.9898
3652 2 12.2736 7.11287 23.3637
3646 3 14.2125 3.5155 25.1841
841 3 17.6694 7.12575 25.0574
329 3 17.9102 5.25529 23.4167
83 2 15.9878 5.24084 25.0064
1651 1 16.1751 7.09459 23.113
3893 1 17.6147 3.583 25.1836
3645 1 16.0734 3.64169 23.3304
1154 1 2.11055 8.99799 25.0288
1646 3 0.199268 10.78 25.131
2146 1 0.203889 9.07593 23.0804
3647 2 1.76529 10.7466 23.2144
84 1 3.85839 9.06946 23.1278
1647 2 5.43159 10.9189 23.1312
2148 1 7.22131 9.18682 23.3101
2147 1 5.50741 9.06726 25.0516
2654 2 3.88345 10.8132 25.0827
3651 2 7.04392 10.916 24.8995
529 1 11.0153 10.5607 25.0718
85 1 10.9003 8.94399 23.1707
3153 1 8.7098 8.8796 25.1044
3649 3 8.87395 10.7301 23.3407
86 2 12.4537 8.85639 24.9932
1652 1 14.4716 10.5786 25.1037
1650 1 12.6632 10.7951 23.3894
2149 3 14.2291 9.13873 23.3373
1155 1 16.1328 8.68848 24.913
1835 1 18.1351 10.6542 25.0946
2333 3 17.8929 8.95742 23.2321
3653 1 16.1062 10.9805 23.3314
87 3 0.0635547 12.7026 23.2083
1653 2 1.93107 14.2607 23.3764
2150 1 2.00554 12.3302 25.123
2656 3 0.258135 14.4086 25.2204
531 1 7.18659 14.3437 24.9776
88 2 7.25649 12.7016 23.3616
2151 2 3.75674 12.6969 23.2861
3154 2 5.39028 12.6721 25.0523
3655 1 3.55469 14.2376 24.9394
3654 2 5.32596 14.4361 23.3023
89 2 9.12269 12.5388 24.828
1655 1 10.6218 14.3621 24.8877
1654 2 9.05493 14.3203 23.1717
2152 1 10.6916 12.5709 23.2492
90 2 14.4859 12.6046 23.2197
1156 3 12.5712 12.3798 25.0057
2657 2 14.3611 14.0683 25.0549
3656 1 12.6049 14.1519 23.3534
337 2 17.9634 12.5144 23.3988
1656 1 16.2419 14.1776 23.2849
2153 1 16.1646 12.4138 25.122
2531 1 18.1466 14.2944 25.0417
1513 1 1.90306 17.8615 23.3194
2154 1 0.117525 16.0955 23.2637
2776 3 0.119281 17.7951 25.0296
3155 2 1.81967 16.0722 25.1351
715 2 7.06534 17.8704 24.8663
92 1 5.3136 15.9266 25.1411
91 2 3.52734 16.0451 23.3153
2155 1 7.14541 15.9491 23.252
3767 1 3.657 17.8636 25.0181
3766 2 5.40357 17.8796 23.34
93 2 10.6357 16.0911 23.0429
1157 3 8.88362 15.9219 24.9692
1515 2 8.95103 17.7588 23.2823
1516 1 10.7858 17.7367 25.0276
2157 3 14.3503 15.9021 23.2623
2156 2 12.5994 15.8696 25.0259
2778 2 14.1903 17.6915 24.8998
3769 1 12.376 17.8515 23.0169
1519 1 16.2907 17.7094 23.1042
2341 2 17.9788 15.8884 23.1123
2963 1 17.7178 17.7197 24.9939
3156 2 15.9573 15.9463 24.9986
532 3 0.0822512 0.0887016 28.4902
94 2 0.127473 1.83942 26.7216
1158 3 1.70249 1.85902 28.5579
3657 3 1.755 -0.14326 26.6697
533 3 5.48555 0.127334 26.7857
534 2 7.16786 0.0691767 28.4439
1159 1 3.50358 1.73181 27.0946
2159 2 7.33726 1.88804 26.7785
2658 2 3.49189 0.189134 28.5226
3157 3 5.45289 1.91393 28.3581
1160 3 9.08902 1.83561 28.5695
1658 1 8.99127 0.0994528 26.5813
2659 2 10.8019 -0.0481385 28.4479
3158 3 10.6533 1.96272 26.7303
535 1 14.2907 0.0415283 28.6428
97 3 14.2175 1.75565 26.8617
2660 2 12.4236 -0.042281 26.9492
3159 2 12.5485 1.7835 28.52
845 1 17.8383 0.0270879 28.5147
344 2 17.995 1.68037 26.7296
1161 3 16.1211 1.75898 28.5521
3660 3 16.0977 0.0231153 26.6493
536 2 1.89912 3.70229 26.9636
540 1 0.204539 7.32407 28.4684
1162 2 0.241367 5.50191 26.8656
1664 2 2.09223 7.26393 26.9245
2661 2 0.0723769 3.57382 28.4047
3160 2 1.83104 5.29628 28.6
537 1 3.60078 3.72483 28.5835
543 1 7.22364 7.105 28.3289
1163 2 5.40186 5.37764 28.4542
1661 2 5.43259 3.60371 26.4854
2162 1 3.72469 5.24038 26.7713
2668 1 3.6106 6.87937 28.7383
2667 1 5.37964 7.20127 26.8375
2663 1 7.10982 3.5267 28.5013
3161 1 7.13573 5.38061 26.53
538 1 10.6493 3.52396 28.5161
99 1 10.8638 5.52329 26.7705
2669 2 10.6616 7.04688 28.5188
2662 2 8.87638 3.61804 26.769
3162 3 8.8813 5.37449 28.4849
3668 2 8.93947 7.13198 26.7304
545 2 12.349 7.06271 26.7563
546 1 14.2594 7.0983 28.7095
1165 2 14.2786 5.27527 26.669
1164 3 12.5773 5.44502 28.4979
2664 1 14.1572 3.58113 28.5977
3663 2 12.4287 3.57959 26.9895
853 2 18.0902 7.17032 28.6073
539 2 16.2128 3.62297 26.9775
1349 2 17.9118 5.37894 26.9919
1670 2 16.0058 7.01565 26.9588
2536 1 18.0389 3.50401 28.6262
3163 2 16.054 5.29719 28.4802
1166 2 1.89976 9.04048 28.6911
2165 2 0.437166 8.95493 26.6995
2666 3 0.0206156 10.9596 28.5687
2665 2 1.90344 10.7949 26.9211
541 2 3.81533 10.7959 28.621