ITEM: TIMESTEP
5000
ITEM: NUMBER OF ATOMS
4000
ITEM: BOX BOUNDS pp pp pp
-3.4815265911525728e-02 3.5768875265911532e+01
-3.4815265911525728e-02 3.5768875265911532e+01
-3.4815265911525728e-02 3.5768875265911532e+01
ITEM: ATOMS id type x y z
1 1 3.45928 1.92074 1.80295
3704 3 10.6651 17.8363 7.11582
2585 2 3.6531 14.3258 0.0559965
2740 1 3.63773 17.8117 14.16
2065 2 6.88248 1.83226 1.58984
40 1 0.498976 8.90186 12.2834
1065 1 5.31803 1.76198 3.72511
2615 2 10.6919 -0.0262863 14.4572
2564 1 -0.0473933 0.21233 3.68162
1130 2 12.1922 1.79827 17.7366
2 1 10.7331 1.38545 1.78974
3567 3 8.98132 3.44929 1.72751
661 1 10.9123 17.7738 10.844
571 1 7.19731 3.31309 3.49494
1067 3 12.5456 1.72234 3.60415
2066 3 14.5565 1.67233 1.79893
297 3 17.7872 15.8917 12.7096
3067 3 16.1321 1.64328 3.52686
3568 1 16.0042 3.65069 1.6258
653 2 14.555 17.9031 7.39519
2119 1 0.0357084 8.87427 15.9971
3566 2 1.74303 3.68156 1.79547
1069 3 1.76212 5.39352 3.46078
1566 2 5.34913 3.61685 1.57444
2067 3 3.61907 5.38461 1.75993
3069 1 5.26433 5.27602 3.47516
3720 2 1.65458 17.8296 12.5995
4 1 7.26938 5.02381 1.74323
1570 2 8.71961 7.18222 1.66054
1071 2 8.72872 5.27298 3.41731
3137 3 8.57051 9.26718 17.6333
3596 2 8.76794 0.0940079 9.03873
1567 3 12.3052 3.30442 1.73894
2068 1 10.5052 5.13179 1.53835
3071 3 12.4853 5.29689 3.32807
3572 1 12.3812 6.76889 1.78506
572 3 14.3457 3.59841 3.49125
5 2 14.1811 5.28313 1.72546
2583 2 14.1025 6.93225 3.28357
1073 1 15.9985 5.32712 3.79284
1568 2 1.67746 6.9782 1.85051
3569 2 1.83041 10.3519 1.84451
6 2 3.64445 8.78458 1.62556
3723 3 8.73993 17.7012 8.94205
576 1 3.6042 7.34874 3.36389
3570 2 5.18981 7.25108 1.88514
2070 3 6.97162 9.07268 1.78166
1148 2 5.2643 15.9675 17.8053
3571 3 9.10508 11.0111 1.86079
3075 1 8.94224 8.88331 3.45067
579 2 10.4298 7.06287 3.21256
2853 3 17.7385 7.10908 10.3726
7 1 10.6594 8.59804 1.43414
1571 3 12.2752 10.5068 1.46626
1572 1 15.9408 7.03291 1.61278
2071 3 14.4481 8.99104 1.47996
3573 2 16.2448 10.919 1.55082
3077 1 15.9954 8.61781 3.18019
2584 3 0.131525 14.1362 3.46476
1079 3 1.67922 12.2825 3.53159
584 3 3.418 14.0335 3.80791
1573 1 1.98166 14.3088 1.94678
2056 2 17.6131 8.78967 16.1344
258 1 17.6548 12.6405 1.646
1569 1 5.47385 10.6295 1.9921
2072 2 3.67063 12.155 1.87399
3574 2 5.16003 14.0685 1.90109
618 2 -0.10167 7.04344 14.2782
1136 3 15.4795 5.2813 17.7137
9 3 7.28204 12.4501 1.71839
580 2 7.37162 10.7562 3.67391
595 3 3.26053 0.0584296 10.6418
2695 2 6.94073 17.8592 3.71713
2073 1 10.909 12.7349 1.85609
10 1 14.1947 12.3916 1.55139
3081 3 12.8383 12.5809 3.52174
1083 1 16.3994 12.7411 3.52579
1575 3 15.9716 14.3344 1.61178
47 1 -0.060972 16.1689 12.3875
3083 3 1.84904 16.0584 3.88296
3615 1 12.5422 0.0593175 16.0929
2596 3 5.43741 0.0521076 9.12032
2633 1 10.6988 3.55439 17.8936
11 1 3.19073 15.9459 1.82857
2075 1 7.00882 16.1582 1.80592
1085 1 5.2579 16.1461 3.55813
1725 1 16.1719 17.8629 8.94914
2579 1 7.23093 10.9735 -0.0516172
2064 3 0.036964 1.84224 1.55424
2088 2 0.00258767 12.6833 5.328
3740 3 5.21997 17.963 15.911
1574 2 8.89156 14.5406 1.80234
2644 1 14.1791 7.31542 17.7347
3564 3 5.21427 0.0691021 1.62153
12 2 10.9695 15.9865 1.80513
3575 2 12.7313 14.2424 1.793
2076 1 14.3551 16.3113 1.91122
1087 1 12.6087 15.9574 3.55053
3087 1 16.1517 16.1631 3.46633
2126 2 14.2693 16.1466 16.1195
2722 3 5.3567 17.7182 8.84097
308 1 17.5499 12.3291 16.0662
3063 2 1.78035 1.8239 3.61112
1089 3 1.63884 1.59171 7.19277
3701 3 1.51427 17.7237 5.5955
2826 3 17.7261 7.12368 3.58141
1596 3 12.5717 0.136116 12.5355
2077 2 3.45756 1.76696 5.22064
14 1 7.14673 1.59996 5.41775
806 1 17.7508 7.05925 14.1507
3597 3 8.82747 0.0265312 12.3457
2047 1 17.8426 16.1141 9.03466
3065 2 9.04175 1.58836 3.58889
3088 3 9.04817 1.62507 7.36009
1595 3 5.50579 0.0633292 12.3643
1068 1 16.2536 1.67284 0.205194
2079 3 10.7483 1.67488 5.46152
3582 2 12.6664 3.53393 5.03516
15 3 12.6639 1.85779 6.88434
3145 3 1.83712 16.0273 17.5233
2646 1 -0.0639041 14.319 17.6167
3129 2 15.9427 1.91614 17.8243
1583 1 14.2064 3.75978 6.80447
16 1 14.4073 1.63373 5.12302
1090 3 15.9803 1.79503 7.19176
510 3 14.0165 3.37901 17.7022
1579 2 1.77387 3.59228 5.48891
2570 3 3.59617 3.59211 3.71521
1080 1 5.25246 12.5688 0.0990383
2081 2 1.71729 5.30132 7.25162
17 3 3.62412 5.51687 5.25103
3580 1 5.70895 3.87436 5.14372
1585 1 5.38313 7.11614 5.31885
3089 2 5.33757 5.43147 7.00256
1581 2 8.85804 3.26616 5.29054
2082 1 7.1297 5.16415 5.35307
592 2 7.09734 6.98898 6.92463
3587 2 8.85164 7.12792 5.02692
2580 3 7.05189 7.08255 3.56227
2572 1 10.5457 3.5536 3.61146
18 3 10.6407 5.19809 5.20422
1589 1 12.5263 7.13477 5.23142
1091 3 12.4249 5.45652 7.03352
1582 3 16.1245 3.34161 5.43483
2083 2 14.4515 5.30231 5.24005
2084 3 15.9931 5.31424 7.01044
3080 2 9.09269 12.68 0.123908
3073 3 1.82706 8.70161 3.65796
1576 1 5.39466 0.082818 5.52072
3583 3 1.58663 6.80045 5.48846
2085 1 3.49092 8.92313 5.54778
3586 3 3.47925 6.99771 7.12206
1075 1 5.17177 8.83409 3.54711
2577 2 3.5459 10.3686 3.63026
3585 1 5.48878 10.566 5.27607
591 1 3.2872 10.6269 7.28007
1587 2 10.9481 7.10415 6.90431
22 2 7.10745 8.85926 5.32627
2592 2 10.9022 10.614 6.88371
1092 1 9.20528 8.9272 6.858
2581 2 10.9349 10.7738 3.71166
2086 2 10.7636 9.05026 5.13019
1077 1 12.8121 8.89072 3.4797
62 1 10.4974 16.1281 15.9632
3589 2 16.1095 7.05013 5.34675
3590 2 14.1393 10.6654 7.22842
23 3 14.4764 8.81298 5.36203
2593 3 14.2958 7.29688 6.91425
1590 2 16.0906 10.9597 5.54586
3091 1 16.0209 8.92576 7.17225
1088 1 16.015 16.2098 -0.00358126
1584 2 1.71227 10.6529 5.49333
25 3 3.30275 12.2829 5.37907
24 2 1.45114 12.7948 7.11427
3079 1 5.31547 12.2537 3.60166
1093 3 5.15287 12.1791 7.02412
1591 1 5.24213 14.2928 5.54487
2089 2 7.08938 12.4909 5.36836
1081 1 9.10113 12.9575 3.64112
1586 1 8.91651 10.6439 5.12085
2090 3 8.88229 12.4839 7.13059
582 3 14.6355 10.6239 3.57824
26 1 10.7996 12.2891 5.26157
3588 2 12.4718 10.6223 5.30183
2091 2 14.1136 12.7618 5.39098
1293 2 17.8645 12.5083 8.84512
27 1 16.0712 12.5175 7.50342
3625 2 12.6691 14.3364 16.0208
3591 1 1.59139 14.2394 5.48496
1094 3 1.89571 15.8958 7.27655
2095 1 0.0811229 1.95468 8.78211
2587 2 7.02221 14.194 3.73309
2092 2 3.63769 15.8175 5.33695
29 1 7.05634 15.9535 5.40167
3085 1 8.99499 16.0121 3.66489
3592 1 8.70784 14.1544 5.41945
3593 3 10.8066 14.4082 6.90315
3093 3 8.7636 16.0372 7.05827
2574 3 0.155977 10.8911 -0.0341083
586 2 11.0751 14.2315 3.45093
1593 2 12.485 14.2492 5.25257
2588 2 14.5285 14.2564 3.57765
2094 3 10.65 16.1331 5.13571
2566 3 10.5744 -0.0771183 0.0223174
594 1 14.3994 14.3552 7.23091
31 3 14.3434 16.1692 5.59563
3594 3 15.9991 14.3461 5.39246
819 3 17.7184 3.65659 17.8398
3139 1 15.8506 9.13481 17.7811
2078 3 5.24042 2.06658 6.95773
2114 3 -0.0891835 1.65666 16.1177
3095 1 3.75906 1.54003 9.09073
1096 3 5.42009 1.85678 10.7433
33 2 7.11034 1.76989 8.86436
599 2 8.76905 3.43632 8.78485
1719 2 1.71937 17.7631 8.84422
1097 1 10.8495 1.55698 8.92102
1098 3 12.4185 1.6535 10.8991
598 3 -0.0399388 3.49204 10.6381
2098 3 14.1036 1.82801 8.88685
3097 3 16.0556 2.04275 10.5708
2599 3 1.95308 3.39444 9.01631
2590 1 3.29457 3.58121 6.95009
3602 1 1.56609 7.1313 8.99822
32 2 0.154734 1.73365 12.4291
36 2 3.60076 5.17827 8.87678
3599 1 5.34405 3.52847 9.01241
1100 2 7.29566 5.26595 8.73467
3099 3 5.30288 5.60974 10.701
19 3 9.00662 5.43481 6.8861
590 1 10.5873 3.6313 6.8741
600 2 7.15792 3.48908 10.6063
3581 2 7.13907 3.36946 7.14639
1101 3 9.04461 5.38368 10.6055
1600 1 12.3667 3.40573 8.66195
2100 1 10.6025 5.22774 8.6548
2608 3 12.3603 7.0484 8.79371
2602 1 15.8939 3.64514 9.0076
3101 1 14.345 5.41931 8.94224
601 3 14.2118 3.59641 10.5696
3707 1 16.1471 17.6813 5.53167
3090 3 1.73332 8.94565 7.22416
1103 3 3.5947 8.8809 8.74712
3102 3 1.74473 9.06896 10.4873
602 2 1.63753 10.8285 8.63255
21 1 5.46621 8.71167 7.02332
604 1 5.30109 6.79105 8.62869
1104 1 5.53758 8.63941 10.3272
2604 1 3.46274 10.7301 10.5003
1605 3 9.06125 7.28829 8.72128
2104 3 7.29863 8.54516 8.49337
3104 3 9.21156 8.9188 10.6705
1588 1 7.23938 10.7206 6.94891
2605 1 8.8658 10.6584 8.51931
2087 1 12.5435 8.91226 6.99545
3103 2 10.7686 8.9602 8.55924
1105 1 12.3785 8.93247 10.6793
42 2 14.1037 8.75818 9.06234
606 1 10.6198 7.06816 10.5521
2609 2 14.1889 6.86084 11.0357
3608 3 15.8538 7.13702 8.91369
608 2 16.035 10.8475 8.94581
3105 3 16.0393 8.99477 10.7466
1613 1 1.82446 -0.0195758 15.8975
303 3 17.7732 5.29335 15.9896
2107 2 3.81393 12.3467 8.70388
1609 2 1.4985 14.3742 9.00574
1107 3 1.54086 12.4628 10.4693
610 2 3.58345 14.1115 10.6925
1603 2 5.53046 10.5966 8.90384
2611 2 5.33826 14.2985 8.569
3106 1 5.40535 12.5798 10.5874
2594 2 6.94458 14.2173 6.96208
3107 3 7.24727 12.4455 8.84539
3092 3 12.4066 12.5877 7.16616
3606 1 12.1929 10.7379 8.70645
45 2 10.6138 12.5809 9.00021
612 1 12.4439 14.2133 8.70306
2613 3 13.8249 14.2737 10.9323
1624 3 8.84601 14.2212 16.2052
615 1 14.281 0.0369713 14.0296
1109 3 14.0919 12.5451 8.62946
1612 2 16.1753 14.2167 9.14575
1110 1 16.022 12.5021 11.0128
1592 1 3.49576 14.0116 7.25301
3110 2 3.44932 16.0202 9.02185
3109 1 1.64422 16.1499 10.8462
3835 1 17.7726 10.6524 7.22637
2093 1 5.24178 16.3073 7.13388
3141 2 5.14857 12.8281 17.7723
48 2 7.03995 16.1633 8.90191
1111 1 5.46017 15.9326 10.7469
1563 1 1.95414 0.121889 1.60528
2099 3 0.0502331 5.17295 12.5324
3611 1 8.57768 14.3461 8.83544
3111 2 8.77236 16.1157 10.5871
2612 2 6.91626 14.3546 10.6431
30 1 12.4785 16.2266 6.99604
1112 3 10.518 16.1322 8.95291
1113 3 12.4815 16.1098 10.6584
61 2 3.68024 15.8741 15.7816
1095 3 16.2543 15.8693 7.14928
2113 1 13.9805 15.9455 8.65774
3112 2 16.1336 16.2336 10.6532
2061 1 17.7201 16.1491 16.1888
2600 2 3.75428 3.44382 10.6477
3094 1 1.7486 1.79121 10.7719
2096 3 3.56629 1.65925 12.3513
34 3 7.13369 1.71898 12.6802
3096 1 8.74094 1.99528 10.4881
2601 3 10.5936 3.53832 10.4815
1599 3 9.06567 3.56755 12.4314
2617 1 7.3915 3.433 14.2075
1115 3 8.85602 1.72803 14.3584
617 1 10.5172 3.64111 14.4673
764 2 17.5171 10.6012 3.53464
282 1 17.6759 1.43918 12.5157
2755 1 6.76796 17.7825 17.8398
1086 3 8.75192 16.3187 0.0832169
2097 1 10.5913 1.84234 12.3902
3601 1 12.3386 3.52335 12.5969
2751 3 0.130144 17.7063 17.4469
35 3 14.359 1.89962 12.4081
1116 2 16.1008 1.77452 14.2727
1598 3 1.62073 3.53848 12.3614
1099 1 1.96139 5.02112 10.655
37 3 3.61074 5.25804 12.5659
3115 1 1.80598 5.17188 14.4689
3600 2 5.56033 3.49195 12.6043
1117 3 5.35512 5.25992 13.9703
616 2 3.68097 3.4005 14.0689
2606 1 7.16551 7.21614 10.5506
2101 2 7.27669 5.10763 12.3118
620 1 7.03284 7.43747 14.1873
3605 3 8.96483 6.97665 12.1776
3100 3 12.4122 5.09692 10.6118
38 1 10.9453 5.49943 12.3039
2121 2 14.2052 9.02692 15.9798
1601 3 16.3268 3.40584 12.5217
2102 3 14.5127 4.92797 12.3981
1102 1 16.2959 5.07425 10.7863
3603 3 1.90441 6.89195 12.4207
2103 3 3.4344 8.99315 12.3273
1119 1 1.66103 8.78172 14.2261
605 3 3.59176 7.15821 10.4624
1604 1 5.14864 7.37211 12.5254
3604 3 5.34096 10.4511 12.2408
2622 1 7.23956 10.807 14.5311
3118 2 4.97732 9.01287 14.3049
41 1 7.1788 8.95688 12.547
1606 1 8.82132 10.8204 12.4831
2607 3 10.6984 10.7338 10.7098
2105 1 10.6311 8.87278 12.4504
2621 2 10.6615 6.95482 14.1723
1607 2 12.5632 6.89359 12.5927
43 3 14.2236 8.93583 12.205
3609 3 16.0978 7.36485 12.4224
2125 3 7.23317 16.0233 16.1831
1602 1 1.64823 10.7761 12.4402
3120 3 1.43953 12.6351 14.1981
3610 1 1.71068 14.2406 12.5209
619 3 3.36144 10.8767 14.1231
44 1 3.56179 12.1222 12.0936
1610 3 5.32017 14.1775 12.4259
1122 3 5.47911 12.5199 14.2679
1108 3 8.94454 12.7334 10.6094
607 2 7.41396 10.6651 10.4274
2108 2 7.0716 12.5321 12.5109
3121 3 8.7617 12.6872 14.2584
3612 1 8.8854 14.4846 12.3319
3607 3 12.3378 10.593 12.5715
46 3 10.6437 12.685 12.4974
3108 1 12.3267 12.3428 10.6466
609 3 14.293 11.0535 10.6488
1608 1 15.8144 10.6062 12.8338
2109 1 14.1523 12.6392 12.5301
3613 2 16.0055 14.4769 12.6315
3122 2 15.7269 12.5337 14.2639
3 2 0.0569051 5.01547 1.41447
2074 1 0.381509 16.0193 1.66615
2111 1 3.72916 15.9935 12.3561
2567 1 6.70219 0.345855 3.41127
522 3 3.39835 14.4237 17.9073
3123 3 5.29261 16.0345 14.0262
625 3 14.2695 14.3667 14.3845
611 1 10.6173 14.4594 10.3842
49 2 7.1926 16.0024 12.6379
1125 2 8.99722 16.3249 14.2775
2112 2 10.6302 16.0399 12.6739
1565 2 16.2007 -0.0136342 1.81952
3124 2 12.2893 16.1856 14.3523
1611 3 12.2413 14.5893 12.5961
2625 1 10.738 14.2843 14.5386
50 1 14.3871 16.3008 12.6511
1625 1 16.1503 14.0879 16.0947
2123 1 10.6997 12.6023 16.1427
1126 3 16.0474 16.1321 14.7008
1114 1 1.9187 1.85669 14.082
2124 2 0.141664 15.9386 15.6273
59 3 7.05861 12.6102 16.0412
2841 3 17.8416 7.09387 7.04763
3113 1 5.34384 1.78994 14.3137
51 1 3.45883 1.83051 16.0329
270 3 17.7033 9.04858 5.40914
60 2 14.3415 12.4496 16.2699
2115 3 6.98906 2.04587 16.3954
1704 3 3.45461 17.5482 7.04834
1597 3 15.808 -0.0340285 8.73655
3577 1 9.04022 0.0414528 5.32093
52 3 10.5453 1.71079 16.1118
3114 2 12.0775 1.7002 14.1309
1617 3 12.1937 3.78991 16.1811
3623 2 15.9631 10.7331 15.9585
1123 3 12.7341 12.5177 14.323
2122 1 3.47931 12.6292 16.2872
2116 2 14.1539 1.79887 15.996
3618 3 16.1243 3.43942 15.9052
1619 3 5.24894 10.7786 16.0581
2624 3 3.73446 14.2456 14.2495
3616 3 1.85002 3.51725 16.0231
2620 3 3.44777 7.03385 14.3582
1618 2 1.93984 7.44308 16.0999
2623 2 14.233 10.62 14.1688
624 1 6.99808 14.1843 13.9517
1616 2 5.59493 3.59761 15.9882
2117 1 3.41389 5.26109 16.0451
3620 1 5.18206 6.92773 16.0105
3116 2 8.70349 5.60511 14.2061
54 2 7.1177 5.6895 16.1223
3617 3 8.83872 3.60269 16.1419
1620 2 8.87559 7.2299 15.9615
1118 3 12.6497 5.09859 14.3292
2118 1 10.5839 5.54708 16.0614
55 1 14.2118 5.37504 15.7902
3624 3 5.54393 14.457 15.9429
2618 1 14.0839 3.19709 14.217
3117 3 16.1553 5.25517 14.0651
622 1 14.3381 7.15858 13.9488
1622 3 15.9784 6.91394 15.8289
1623 1 1.72444 14.2681 15.9711
1121 2 16.141 8.83677 14.3904
2051 1 17.6704 1.50204 16.1626
1124 3 1.89429 15.9515 14.0279
3619 2 1.70982 10.739 15.8454
57 2 10.5538 9.21629 16.0156
56 1 3.70604 8.97775 16.0289
1120 2 8.96562 8.72018 14.2705
621 3 10.6487 10.7693 14.3754
3621 2 9.05886 10.798 15.8791
2120 2 6.82653 8.7818 15.9068
1621 3 12.598 10.8713 16.0526
3119 2 12.5235 8.79483 14.0705
3622 2 12.3157 7.47366 15.9611
2727 2 14.1924 17.781 10.6819
2616 3 -0.130539 3.20748 14.4551
659 3 3.66169 17.7186 10.8489
3703 3 8.9213 17.7544 5.28418
2614 2 3.64092 0.138394 14.2061
2870 2 17.8211 10.9278 14.3402
2715 1 7.07897 17.8045 7.16766
629 2 3.37805 17.8322 3.76009
516 1 6.98674 10.8198 17.7932
603 2 -0.0560523 10.8325 10.6246
568 2 0.087825 3.51206 3.55261
811 2 17.7634 14.2655 14.4354
3084 2 5.34096 16.1779 0.168169
1692 1 16.1114 17.63 1.75704
2597 1 7.31136 0.0278894 10.781
290 3 17.7006 8.8589 12.5402
564 3 3.62313 0.19662 3.51655
597 2 12.6131 0.124893 8.94026
1738 3 2.01224 17.7608 15.7427
3584 2 0.0285654 10.7003 7.0817
792 1 17.4832 10.6835 10.9825
574 3 0.204633 10.7126 3.68198
663 3 12.5286 17.7582 9.03303
2698 2 14.3875 17.7935 3.78186
523 3 10.7053 14.2834 17.8505
1150 1 12.6038 16.0302 17.6363
3149 1 16.0329 16.1451 17.8442
1138 2 5.51354 8.97396 17.7638
3131 1 5.35247 5.36112 17.8264
2641 3 10.3068 10.7718 17.8111
573 2 -0.0849046 7.09723 0.205243
1142 2 1.80696 12.5276 17.7972
3068 3 1.87996 5.47618 0.025642
513 2 3.55304 7.27327 17.6445
3072 2 15.9959 5.36947 0.268543
3135 2 2.02463 9.24468 17.6667
1066 3 8.86897 1.45496 -0.0465402
3127 2 8.78138 1.6974 17.741
2573 3 14.4061 3.47726 0.0078799
1076 1 8.76012 8.97491 0.349514
771 2 17.8 14.6123 0.039908
587 3 14.2362 14.4029 0.130987
3066 1 12.5961 1.74572 0.0792466
3133 1 12.378 5.93066 17.6659
1074 2 1.57292 8.6759 0.241524
825 1 17.5531 10.9337 17.7127
506 3 0.11999 3.41184 17.7833
2630 1 14.2431 0.0832523 17.7931
1628 1 1.72644 3.85438 19.7232
2658 3 3.65427 0.170987 28.7236
2788 2 12.5795 17.7987 26.73
2127 3 3.38586 1.86026 19.6503
64 3 7.06954 1.70154 19.5907
3629 2 5.18342 3.72054 19.7666
2128 3 10.1626 1.6366 19.5063
1629 1 8.63839 3.40565 19.5087
3167 3 0.192337 12.8742 27.0718
2640 3 7.29514 7.35941 17.8914
3803 1 8.78202 17.729 34.0138
2660 1 12.3722 0.0716302 26.7012
3630 3 12.1177 3.60794 19.3441
3128 3 12.2144 2.07869 21.2703
65 3 14.0542 1.81723 19.6626
1630 2 15.9913 3.49239 19.7761
3805 2 16.0239 17.7219 33.8605
2360 1 17.7994 16.2415 30.254
2139 3 0.201301 1.79651 23.4304
3631 1 1.97091 7.28202 19.6077
512 3 -0.0248676 6.87615 21.5008
552 1 10.8142 0.113694 32.4347
66 2 3.44233 5.54694 19.4095
2130 3 7.24972 5.3914 19.6428
553 3 0.0177031 3.67256 32.1299
841 2 17.9282 6.95111 24.8628
67 3 10.66 5.60066 19.6538
3633 2 8.75188 7.77323 19.7659
2326 1 17.7847 1.73069 23.0945
356 1 17.6762 12.6596 30.3445
515 2 10.4922 7.32628 17.8844
1634 2 12.8279 7.17122 19.6596
2131 2 14.0558 5.2589 19.6805
520 2 14.2799 7.03949 21.5679
2316 3 17.3915 5.26521 19.6454
740 2 3.3668 17.8401 32.5022
1137 1 1.70613 9.10616 21.3947
505 2 14.0038 0.0883607 21.2858
3641 3 12.414 0.0252628 23.2535
1632 2 5.45813 7.12006 19.4807
2132 2 3.35912 9.03265 19.6789
517 1 6.96869 7.22578 21.2439
3632 2 5.43726 11.2057 19.5146
2639 3 3.55131 7.12428 21.421
2531 1 17.8271 14.324 24.8337
73 3 0.0450796 16.3165 19.5556
69 2 6.87432 9.00234 19.7668
1139 3 8.67476 9.00193 21.6709
2133 2 10.8548 8.73979 19.7371
528 3 -0.0114953 7.03538 25.0759
70 2 13.9495 9.10835 19.7709
3634 3 12.5128 10.8689 19.6307
3657 1 1.8453 0.184948 26.8832
3635 1 15.4651 7.275 19.5506
1635 1 15.7799 10.7015 19.7755
79 3 0.0505316 5.37658 23.4149
1141 3 15.7708 8.97744 21.3444
2158 1 0.132293 1.58724 30.2588
1631 1 1.77682 10.6161 19.5412
3636 1 1.74276 14.5961 19.6952
1144 2 9.02056 12.5597 18.013
1640 2 10.7298 0.112403 25.0218
3070 2 8.95277 5.14091 35.7888
71 1 3.55025 12.557 19.8304
1633 1 8.67167 10.668 19.5256
2135 1 7.26684 12.5088 19.256
3637 1 9.03287 14.4183 19.6782
3142 2 8.93683 12.2759 21.3595
524 1 7.47672 14.2495 21.4234
2526 2 17.7959 -0.0703732 24.919
105 3 0.412562 12.2585 30.6146
72 1 10.6891 12.6317 19.8117
2136 2 14.5245 12.6577 19.6938
575 1 3.66809 10.6445 35.6236
525 3 14.1922 14.0149 21.6008
3144 3 16.0204 12.6518 21.697
3638 1 16.3459 14.2805 19.6862
87 3 0.089346 12.8082 23.2222
2137 2 3.65854 16.3129 19.9236
1636 1 5.34953 14.6169 19.6149
2647 3 3.54753 14.3273 21.3226
3146 3 5.31777 16.1855 21.3484
1519 2 16.2545 17.7434 22.8884
1641 1 16.0843 0.157158 23.2567
3417 2 17.7428 12.4456 26.7844
74 1 7.07864 16.2506 19.608
1149 1 8.96756 16.2329 21.362
2138 2 10.7616 16.193 19.7988
2542 1 17.9268 10.3964 28.3038
1637 2 12.598 14.4439 19.7048
2649 2 10.6548 14.2336 21.3925
3148 1 12.4883 16.2135 21.6275
2184 2 0.150251 12.2556 34.0055
125 3 14.2879 16.0122 33.8494
75 1 14.4666 16.0632 19.7754
1151 1 16.2848 16.1256 21.3561
1078 2 15.9367 8.85266 35.5395
826 2 17.5403 7.07766 21.4309
1127 3 1.67333 1.81075 21.5431
507 1 3.52971 3.54547 21.5703
3642 2 1.83866 3.49344 23.1086
1660 3 16.0253 0.0397181 30.3622
569 3 3.74052 3.53127 35.5628
3126 1 5.26479 1.75154 21.521
76 2 3.49487 1.70618 23.1356
1129 3 8.89621 1.72935 21.3484
2140 3 7.18597 1.77022 23.266
3644 1 9.21445 3.47831 23.1631
2634 2 7.11434 3.57796 21.5282
78 1 10.6904 1.73731 23.4199
1644 2 12.2659 3.46459 23.1336
2686 2 0.13009 14.1279 31.9761
2514 3 17.5247 10.5206 21.5295
1131 2 15.8551 1.81765 21.2203
2321 3 17.6656 12.3278 19.7188
318 3 17.5523 8.93918 19.4201
3628 1 16.011 0.218008 19.5876
2142 1 14.4165 1.48663 23.2127
2635 1 14.3493 3.6231 21.1683
3645 2 16.0163 3.41359 23.192
3151 3 16.3583 1.69129 25.0881
3130 3 1.77956 5.37742 21.5773
80 3 1.7563 5.13038 25.1997
2143 3 3.68157 5.26931 23.2322
527 1 3.50048 3.52763 24.9838
3784 2 5.40904 17.8432 30.7253
1642 3 5.32483 3.53119 23.1168
1133 1 5.49816 5.35554 21.3152
3648 2 5.286 6.99696 23.3151
3132 3 8.7402 5.38459 21.6134
81 2 7.06261 5.35035 23.1098
2144 3 10.5354 5.35958 23.4551
509 3 10.3637 3.3959 21.1613
1649 1 8.81195 7.01151 23.2158
2642 3 10.3907 7.12896 21.4308
1135 1 12.2682 5.1879 21.4552
82 3 14.3594 5.35646 23.125
3652 2 12.5313 6.90748 23.2013
547 2 0.0783801 14.2446 28.8853
3134 2 15.9486 5.33745 21.3498
1651 1 16.0967 7.13748 23.3013
3687 3 8.97817 14.1884 33.9752
1645 1 1.69048 7.23253 23.2705
3647 3 1.7171 10.9443 23.186
1648 1 3.37818 7.17079 25.0573
3136 2 5.20957 8.8989 21.3629
514 2 3.59453 10.6077 21.5499
84 1 3.53527 8.76038 23.3323
518 3 10.7069 10.635 21.4877
2148 1 7.06059 8.62635 23.2687
85 1 10.9218 8.86549 23.5659
2643 1 7.15967 10.5062 21.5832
3138 1 12.4419 8.9115 21.6446
2149 3 14.2322 8.92445 23.2952
1650 2 12.4762 10.6761 23.5564
86 1 12.4854 8.78134 25.2312
1652 2 14.1975 10.738 25.1006
2645 2 14.0224 10.9684 21.4612
3653 1 15.9172 10.5847 23.337
1162 3 0.0902885 5.59196 27.1147
3140 3 1.57632 12.6121 21.5031
2654 3 3.48028 10.8688 24.7799
2150 3 1.85695 12.4469 24.99
2151 2 3.60446 12.5569 23.0178
1143 3 5.49957 12.821 21.6837
1647 3 5.55225 10.6541 23.58
88 2 7.23592 12.4339 23.2279
3649 3 9.05573 10.623 23.1549
89 2 8.82206 12.4144 24.9989
3651 1 7.18056 10.8739 25.2305
2152 1 10.7364 12.4537 23.1097
1145 1 12.3643 12.4045 21.4865
1156 3 12.1533 12.686 25.0217
90 3 14.2297 12.5098 23.3335
3186 2 8.8983 16.1814 32.1368
2153 2 15.6564 12.8042 25.0949
124 1 7.15136 15.9378 34.0183
1147 2 1.80422 16.2676 21.4329
1653 3 1.89226 14.5573 23.3343
3155 3 1.67245 16.1823 25.2116
3654 3 5.45941 14.7921 23.4028
91 2 3.56528 16.381 23.6017
2155 2 7.30864 16.3554 23.4497
3655 2 3.55379 14.2248 24.9954
2632 2 3.66634 3.84153 17.8004
2576 1 3.4331 7.18621 35.7414
1654 3 9.08863 14.2711 23.0922
531 2 7.24716 14.3377 25.0496
724 1 7.26806 17.8377 28.6108
2507 2 17.7662 3.30713 21.399
3656 2 12.3543 14.1485 23.2168
93 1 10.7781 16.2191 22.9618
1655 3 10.4676 14.3127 25.0555
2156 1 12.6087 16.0088 24.88
2188 2 10.4476 16.1865 34.2434
1349 1 17.823 5.41445 26.8323
2157 1 14.3749 16.0776 22.9506
1656 3 16.0514 14.371 23.2183
1187 2 5.2494 16.0687 32.2934
3150 3 1.86603 1.71157 25.0381
1159 2 3.61528 1.80781 26.4629
1158 3 1.77549 1.67911 28.5088
2371 1 18.0494 12.6014 33.9058
77 1 5.19534 1.78259 24.8312
2159 2 7.14316 1.81003 26.6317
3157 3 5.27041 1.80016 28.6093
2333 1 17.7564 8.93299 23.3541
1152 3 9.05375 1.78159 24.903
2662 1 8.93161 3.54559 26.6262
3158 3 10.8475 1.91726 27.0195
2141 2 12.6476 1.77557 24.8691
3159 1 12.6707 1.92461 28.7199
2653 2 10.7615 3.60612 25.2715
3646 1 14.3223 3.24262 24.9948
1835 1 17.6947 10.6773 25.2023
1535 2 8.94971 17.6979 26.9345
3659 2 12.5127 -0.14782 30.1987
97 3 14.2115 1.78787 26.8974
539 3 16.0955 3.49461 26.9128
536 3 1.7807 3.43289 26.845
3782 3 1.78727 17.9169 26.9232
3160 3 1.85836 5.33885 28.5434
1661 1 5.37116 3.51155 26.7525
1643 2 7.25387 3.42919 24.9132
1153 2 5.45909 5.23189 25.0636
2162 2 3.6859 5.29239 26.6781
2663 1 7.32103 3.27013 28.6849
3161 2 7.25503 5.10945 26.8173
2145 3 8.98032 5.15956 25.0061
3162 3 8.82302 5.28437 28.5874
3152 1 12.6428 4.92484 24.8923
99 2 10.8578 5.38284 26.6537
3663 2 12.7527 3.69933 26.7522
1165 3 14.3678 5.33179 27.0416
2187 2 3.5506 15.9658 33.9704
2638 3 3.69687 10.8105 17.9126
83 3 16.0256 5.30886 25.1518
3163 2 16.0023 5.16824 28.6784
1670 1 16.0614 6.94707 26.843
1154 3 1.5949 9.39102 24.9723
1664 3 1.8736 6.83847 26.6084
3164 1 3.39988 9.0766 26.4613
1166 3 1.95334 8.80179 28.3467
2147 2 5.50018 8.91344 24.9102
2667 2 5.30853 7.23948 26.7059
103 1 7.19752 8.4289 26.992
2655 2 7.1679 7.13163 25.102
3165 3 5.3539 9.07859 28.6442
3153 3 8.96675 8.86551 24.9824
3650 3 10.6958 7.12016 24.9808
3668 2 8.99721 7.20069 26.9868
1168 2 9.02777 9.05691 28.5185
542 3 8.89515 10.4455 26.585
530 3 14.2053 7.15716 25.0142
545 3 12.3619 7.23672 27.1792
1167 3 10.7648 9.17277 26.9016
529 3 10.8043 10.8652 25.0929
1155 2 15.9512 8.91908 25.1728
2168 2 14.2676 8.686 26.8753
2671 2 15.7841 10.7871 27.0703
1169 3 15.959 8.89248 28.723
2665 3 1.76162 10.727 27.1155
106 3 3.59931 12.5192 26.8138
3154 3 5.32187 12.6467 24.7455
3666 3 5.55117 10.4791 27.0096
548 1 5.41451 14.4177 26.828
1171 2 6.99036 12.6479 26.7458
544 2 10.3849 10.9866 28.8014
1673 1 8.78097 14.2578 26.7601
2670 2 7.0505 10.403 28.7608
2657 1 14.0702 14.5418 24.7869
2171 3 10.5994 12.5718 26.7824
1668 3 12.6027 10.6773 26.8348
1172 3 12.5431 12.7147 28.7152
3170 2 14.153 12.8047 26.7074
533 1 5.25644 -0.0132202 26.7141
2661 3 -0.110022 3.63613 28.5515
3185 1 1.71904 16.0189 32.1988
3672 3 1.95826 14.6501 26.8203
2681 2 0.16594 7.10473 32.0022
2652 2 14.2132 -0.0360352 24.8657
2582 1 14.2497 10.6961 35.6354
92 3 5.40998 16.4506 24.9274
1174 2 3.65411 16.0943 26.7735
1157 1 8.95952 16.1488 24.9298
2174 3 6.99254 16.1241 26.7218
3173 3 10.9047 16.008 26.8887
1513 3 1.84166 17.7848 23.423
2675 1 12.3183 14.3982 26.7951
3174 1 12.307 16.0672 28.5944
550 2 14.1634 14.4361 28.5295
3675 3 16.1472 14.4646 26.6894
112 1 14.2726 16.0272 27.0036
3156 3 15.7148 16.1237 24.9418
1176 2 15.8639 16.4011 28.9403
1072 3 12.5665 5.00166 35.7475
1627 1 12.4435 0.143269 19.1274
95 3 3.48552 1.96261 30.6042
1677 1 12.6301 0.172803 34.0523
556 3 0.00413408 10.5809 32.2867
2160 3 7.27697 1.32741 30.1448
1177 1 5.55753 1.51644 31.8483
554 3 7.24372 3.3902 31.8952
2352 2 17.5076 8.66063 26.6928
2179 3 0.0882617 5.44563 34.111
1160 3 9.14392 1.82057 28.31
3662 1 8.85537 3.22967 30.2763
96 3 10.8473 1.83259 30.5364
2680 2 10.6681 3.3367 32.3453
2664 1 14.2881 3.25317 28.6728
2161 1 14.5326 1.74818 30.6699
1663 2 12.6144 3.38716 30.6227
555 2 14.4514 3.5803 32.1873
1178 2 12.8675 1.6228 32.2669
1161 2 16.3647 1.63007 28.3936
3664 3 16.1391 3.57373 30.4007
2679 2 3.57848 3.38671 32.0847
537 1 3.57769 3.6956 28.6057
3661 3 1.70843 3.50129 30.1196
1179 1 1.65443 5.4995 31.8989
1665 1 1.90684 7.04174 30.151
1662 3 5.40123 3.38251 30.3336
1163 3 5.43809 5.39533 28.5891
2668 1 3.67331 7.07834 28.5146
2163 2 3.54608 5.36945 30.096
557 2 3.63826 7.01969 32.101
100 3 7.14382 5.17871 30.2937
1180 3 9.11311 5.07042 31.967
1164 2 12.3417 5.19064 28.7238
538 1 10.8845 3.53256 28.609
2164 2 10.7972 4.86092 30.3077
101 1 14.4617 5.37009 30.6577
1181 2 16.2615 5.35885 32.2538
1671 1 16.1207 7.08009 30.4133
3082 1 15.9475 12.5424 35.7897
102 3 3.745 8.7226 30.3754
3665 1 1.9326 10.523 30.3258
3180 1 1.72001 8.80841 31.9045
2682 3 3.51511 10.651 31.9556
3688 1 16.189 14.2964 34.1116
543 1 7.22543 7.23343 28.733
3667 2 5.3786 7.12549 30.354
2167 2 7.15083 8.71514 30.6045
2683 2 7.06921 6.9738 32.1689
1667 3 8.86347 6.96955 30.3434
2669 2 10.5664 7.0295 28.7157
104 1 10.5605 8.98563 30.5641
3166 2 12.4385 8.82254 28.9272
546 2 14.3027 7.01351 28.6753
3670 2 12.3786 6.97587 30.481
2685 2 14.5242 7.2891 32.2438
2169 2 14.4416 8.99259 30.3666
1183 2 12.4179 8.74452 32.1412
3660 1 16.1341 -0.0675798 26.8045
1552 3 5.44714 17.6933 34.0139
3671 2 16.255 10.5235 30.0853
541 2 3.48792 10.7407 28.6321
3168 1 1.81007 12.8522 28.4387
1672 2 1.93685 14.0509 30.3238
835 3 17.5771 14.1403 21.4089
1666 2 5.52861 10.6036 30.4747
2170 3 3.6704 12.4035 30.3972
1170 3 5.41541 12.4793 28.7894
107 1 7.08998 12.6837 30.6367
2673 2 3.62063 14.271 28.4041
562 2 10.4923 14.2824 32.3414
3169 1 8.87608 12.6296 28.72
3669 3 8.83072 10.7556 30.5724
2172 2 10.9556 12.6037 30.5797
1674 2 8.90393 14.2989 30.5867
2672 2 14.0944 10.6764 28.5169
1669 2 12.4326 10.7445 30.331
3674 3 12.4001 14.3989 30.4401
560 2 14.3478 10.5477 32.1749
3171 1 15.9928 12.5454 28.5758
108 3 14.299 12.6499 30.5561
2688 3 14.213 14.3099 32.213
1186 3 15.9565 12.7392 32.2259
1184 1 1.99111 12.6368 32.2776
1639 3 8.80696 0.0612342 23.1652
3639 2 5.28563 -0.0271144 23.4404
1173 1 1.96283 16.1175 28.7719
110 1 3.66591 16.0263 30.4996
1132 2 1.7011 5.61413 17.8403
94 1 -0.0192165 1.74989 26.8734
3172 3 5.35957 16.4045 28.7355
549 2 7.24449 14.5356 28.4735
3673 2 5.51892 14.3233 30.2766
348 1 17.7806 5.26926 30.2908
2687 2 6.9369 14.2945 32.3239
1175 1 9.05708 16.1008 28.4172
2674 2 10.6269 14.2267 28.5056
2175 1 7.10536 16.0643 30.4302
111 2 10.5375 16.0544 30.4611
1188 2 12.315 15.9858 32.3424
2176 1 14.0505 16.0882 30.4375
1685 2 15.7993 10.672 34.0012
3187 1 15.9327 15.9746 31.9841
1675 2 15.7771 14.4303 30.3452
577 2 7.0951 7.00097 35.6031
3184 1 12.3119 12.5727 32.5371
3175 3 1.61084 1.68483 32.042
337 2 17.8138 12.4394 23.0559
2177 2 3.68822 1.72007 33.7963
3893 3 17.6334 3.40997 25.1223
3684 3 12.3534 10.6309 34.0886
3679 1 5.25258 3.46505 33.9238
114 2 7.07111 1.67424 33.8886
561 2 3.8082 14.0886 32.3505
3176 3 8.95508 1.47316 32.3346
2178 2 10.7779 1.79821 34.0319
118 1 -0.0892013 8.77014 34.0767
3686 1 1.70715 14.2038 33.917
3182 3 16.1786 9.01108 32.3169
63 3 0.0570816 1.86323 19.7914
3680 3 12.5396 3.52602 33.9019
1687 2 12.581 14.3317 34.2063
3177 1 16.086 1.63825 32.1324
115 2 14.5765 1.69716 34.0583
1680 3 16.1473 3.53688 34.1042
1678 1 1.96739 3.56102 33.5871
1516 3 10.7887 17.8481 24.8516
116 2 3.45477 5.31113 33.7503
2186 2 14.2723 12.4874 34.0557
3178 1 5.29124 5.28561 32.0108
2180 2 7.0415 4.8972 33.7827
1185 1 9.01699 12.6327 32.2133
558 2 10.6249 7.04211 32.5134
1679 1 8.70348 3.6214 33.8206
3683 3 8.90696 6.73923 34.0817
117 2 10.6901 5.06158 34.0726
3179 2 12.5867 5.19454 32.4976
1686 3 5.5537 14.3034 34.1708
3183 1 5.27726 12.4264 32.6068
3788 2 16.1201 17.5291 26.9669
120 2 14.2274 9.1125 33.701
2185 3 7.13887 12.4638 33.9572
2181 1 14.5416 5.44062 33.8016
3685 1 16.3721 6.91342 33.9145
2183 1 10.5668 8.91102 34.1204
3681 3 1.85726 7.03142 33.7182
2182 2 3.59572 8.76937 33.9586
1681 2 1.99125 10.5476 34.1773
1182 1 5.33226 8.6856 32.3083
1682 1 5.36413 6.80456 33.8445
3682 2 5.44809 10.6586 34.0653
559 2 7.40708 10.5914 32.3195
122 2 10.7724 12.4588 34.0905
3181 1 9.10621 8.77492 32.2067
119 3 7.31024 8.96047 33.9476
2684 2 10.9072 10.7436 32.3117
1683 3 9.02825 10.8667 34.0194
121 3 3.58314 12.4707 33.9072
1684 2 12.6162 6.84412 34.1271
526 1 7.16228 0.0246792 25.115
2561 3 17.8253 14.3581 32.4114
504 1 7.23472 0.0104182 21.4433
1134 3 8.82618 5.38289 17.9059
870 1 17.6199 10.7075 32.0649
2626 1 0.168014 -0.140198 18.1445
3064 1 5.23725 1.70681 35.5345
853 3 17.7686 7.41465 28.7359
1064 2 1.73839 1.74719 35.3716
3076 2 12.4314 8.65304 35.7282
570 1 10.6638 3.2643 35.6749
2565 3 3.54809 0.257802 35.78
1146 3 16.0574 12.7128 17.9448
1070 1 5.44587 5.2981 35.6281
368 2 17.7379 9.35341 33.9574
860 2 17.593 14.4839 28.51
329 1 17.5445 5.22382 23.2143
363 3 17.8145 1.78017 34.0425