ITEM: TIMESTEP
5000
ITEM: NUMBER OF ATOMS
4000
ITEM: BOX BOUNDS pp pp pp
9.9325979944691056e-02 3.5808104020054941e+01
9.9325979944691056e-02 3.5808104020054941e+01
9.9325979944691056e-02 3.5808104020054941e+01
ITEM: ATOMS id type x y z
1 1 3.86288 1.8168 1.79322
3566 3 1.83601 3.97234 1.7912
1690 3 16.0823 17.9455 1.88171
3721 1 9.04687 17.9283 9.12287
3139 3 16.0532 8.86109 17.7638
1065 3 5.21737 1.69068 3.67539
2065 2 7.28585 2.02235 2.0578
1566 1 5.37224 3.34869 1.91578
2739 1 3.59494 17.8958 14.4536
589 1 14.3001 0.128011 7.0384
2621 2 0.33312 10.6489 14.5093
1142 2 2.08835 12.7127 17.8412
2 3 10.8474 1.67661 1.87441
1067 2 12.6607 1.96968 3.75392
2066 1 14.3984 1.50302 1.96404
3131 2 5.71592 5.53649 17.9551
3568 3 15.9162 3.50131 1.8375
1625 1 16.3385 14.4333 16.174
2581 1 7.37915 10.857 0.0348332
2088 1 0.115123 12.2829 5.44783
2067 2 3.43846 5.65443 2.00066
2568 1 14.477 0.110969 3.73747
512 3 3.70685 7.13692 17.9303
4 2 6.96885 5.26812 1.98203
618 1 0.331852 7.286 14.5226
3567 1 9.10488 3.53742 1.9583
2068 1 10.8139 5.36781 1.90543
1569 2 9.07216 7.13564 1.78185
1071 2 9.00785 5.30305 3.74735
1567 3 12.501 3.65266 1.88203
3071 3 12.5425 5.30556 3.77486
1739 2 9.04021 17.8301 15.9309
572 2 14.4796 3.60923 3.53096
5 1 14.4123 5.46357 1.91729
1570 3 16.174 7.21836 1.73886
1073 2 16.274 5.50902 3.34423
625 1 14.3706 14.5098 14.2923
2625 3 10.7857 14.3679 14.2998
62 1 11.0043 16.151 16.2493
3124 3 12.6708 16.3051 14.4717
1568 3 2.06965 7.31038 1.82961
28 2 0.234322 16.2515 5.58188
2110 2 0.123638 16.3302 8.84636
6 2 3.66187 9.0286 1.74051
3569 3 5.43877 7.03385 1.73067
2070 2 7.46627 9.20917 1.82839
1075 1 5.5842 8.97599 3.49347
574 3 3.90542 7.2619 3.63966
2051 1 18.0169 1.85874 15.9881
593 1 0.344418 14.4045 7.44508
3576 3 1.68339 0.246302 5.52761
3572 2 9.08935 10.8621 1.82458
1128 2 5.48657 2.0191 17.9666
3084 3 5.72976 16.3506 0.119033
3570 3 12.4689 7.14947 2.07214
7 3 10.618 9.23713 1.65394
1572 1 12.4295 10.7407 1.59904
576 3 10.7187 7.22851 3.65124
2001 2 18.0213 1.95214 1.88241
2071 3 14.1421 8.92711 1.64187
3077 1 16.0403 9.07092 3.58342
629 3 10.9143 17.86 3.68097
3571 3 1.87727 10.7072 1.80834
2072 3 3.72021 12.5005 1.71407
3625 1 12.6358 14.4434 16.1574
1571 2 5.44975 10.9586 2.01538
1577 2 3.59397 0.263443 7.47091
3722 1 8.87502 17.5358 12.5994
2650 1 14.368 14.3793 17.9397
9 3 7.43532 12.6355 1.93653
1081 1 9.22805 12.7758 3.76856
1574 1 9.1171 14.41 1.85132
2073 2 10.6439 12.4738 2.03053
3081 1 12.6314 12.6559 3.23899
20 1 0.0944415 9.09295 5.60758
2691 3 7.10897 17.9986 3.49932
3573 2 15.9188 10.5584 1.8874
10 3 14.3263 12.7084 1.481
2061 2 17.6968 16.2827 16.0508
297 2 17.8532 15.9834 12.5485
1573 1 2.15844 14.4503 1.89856
11 1 3.89839 16.2845 2.00921
2126 1 14.4042 16.3091 16.2081
2047 2 17.8329 16.3407 8.97745
3574 2 5.49565 14.4423 1.77844
3690 1 12.7842 17.8938 1.92046
1085 1 5.64531 15.9567 3.69118
2871 1 17.7854 10.8125 14.4931
2075 1 7.44255 16.1248 1.97524
12 1 10.8493 16.1274 1.79898
2753 3 7.29203 17.921 17.9062
3575 3 12.5125 14.3309 1.57897
2076 3 14.2749 15.9459 1.76107
2722 2 7.13724 17.8222 10.8157
1575 2 16.3102 14.2743 1.53757
3087 3 16.2668 16.2016 3.48714
2714 2 7.36438 17.8225 7.20846
2642 2 3.81562 10.968 18.0235
1576 1 5.38027 0.0294565 5.608
3098 3 0.153338 5.18415 9.1186
3063 1 1.81015 1.89913 3.62565
2077 3 3.59553 1.87548 5.55178
2596 2 5.40873 0.127631 9.05281
2119 2 0.144494 9.04583 16.3033
3580 1 5.59701 3.67293 5.35583
570 2 7.16865 3.58427 3.73518
3065 2 9.07553 1.81694 3.68705
1738 3 1.82652 17.8427 16.0791
14 3 7.2301 2.07162 5.51613
1581 1 9.13627 3.86505 5.40522
289 3 17.7541 9.14441 8.94539
756 1 17.9771 3.61409 3.54161
564 2 3.50195 0.0696871 3.64154
2907 1 17.6412 17.7753 11.0943
2079 2 10.8511 1.97754 5.4962
16 2 14.4159 2.07854 5.28489
3067 2 16.1109 2.07571 3.69479
1136 1 16.1866 5.61525 17.8413
1125 1 9.0723 16.2102 14.3554
1090 1 16.1543 1.89035 7.08195
3137 3 9.19628 9.17433 17.9417
1069 2 2.04205 5.34522 3.9299
1579 3 1.77581 3.60282 5.42201
2570 2 3.72297 3.74069 3.74792
17 3 3.90293 5.5167 5.47392
3069 2 5.3777 5.48482 3.78627
1584 1 5.56505 7.49631 5.32196
3089 1 5.50025 5.57687 7.56244
3581 2 7.45491 3.86156 7.1547
2572 3 10.8962 3.6281 3.77245
19 1 11.2351 5.40169 5.46359
2082 2 7.22762 5.49269 5.54063
3582 1 12.8132 3.65175 5.43948
2083 1 14.6189 5.42847 5.18856
1582 3 16.4295 3.73597 5.37651
3586 2 16.1834 7.42068 5.2541
1624 3 8.92231 14.3793 15.9243
3583 3 1.82252 7.19408 5.58804
3073 1 1.7978 9.00609 3.66538
1587 3 1.9849 10.5867 5.5035
3584 1 3.71076 7.31628 7.41756
3090 3 1.9818 9.00206 7.21649
2125 3 7.33545 16.2279 16.1635
2085 2 3.57589 8.87125 5.26881
2576 2 7.23534 7.30857 3.54423
22 2 7.36108 9.02608 5.24387
3075 2 9.08418 8.95905 3.79504
2086 1 10.9558 9.19612 5.57709
3585 3 8.93538 7.31811 5.52162
2578 3 14.1919 7.10922 3.90447
1077 3 12.7286 9.01357 3.82825
2582 2 10.8787 10.7023 3.4274
1585 2 12.5272 7.41903 5.68345
2866 2 18.0653 3.55998 14.3255
23 3 14.4838 9.05473 5.48859
3091 1 16.0471 9.23437 7.33853
624 2 7.23387 14.4107 14.3372
1079 2 1.76001 12.6039 3.60364
25 2 3.69867 12.335 5.42836
592 1 3.84897 10.5704 7.11707
2586 2 7.46372 14.2625 3.71401
580 1 7.56126 10.8915 3.72187
2580 3 3.69181 10.732 3.4732
3079 2 5.51077 12.889 3.7171
3588 1 5.56117 10.6741 5.27383
2089 3 7.3965 12.5554 5.66759
1591 2 5.48992 14.4656 5.51315
2593 2 10.7551 10.7337 7.33083
1589 3 7.22345 10.6877 7.39221
1588 2 9.00623 10.8244 5.73304
3592 1 9.28644 14.6192 5.38168
586 2 10.8425 14.4142 3.49525
3589 2 12.516 10.9817 5.32836
26 1 11.07 12.4911 5.59441
582 1 14.3925 10.738 3.73321
2091 1 14.3436 12.7682 5.18024
1083 3 16.0679 12.5398 3.41579
1590 2 16.2302 11.0694 5.36056
3594 2 16.3278 14.5371 5.19751
3123 1 5.46553 16.1741 14.2956
3704 3 16.1265 18.0008 5.32587
584 1 3.8531 14.4748 3.7513
3083 2 1.98149 16.2145 3.72757
278 3 17.8881 16.31 5.34375
3591 3 1.8042 14.2128 5.53165
2092 3 3.71977 16.1293 5.66599
29 3 7.42993 16.1352 5.41041
598 2 -0.0570285 3.66112 11.007
3085 2 9.13599 16.137 3.70863
3093 1 9.40416 16.216 7.40331
614 1 7.19605 0.297289 14.512
2588 1 14.4909 14.173 3.51359
1087 2 12.6589 16.1384 3.57058
1593 2 12.6096 14.2125 5.40909
2094 3 10.7408 16.2164 5.6104
31 1 14.3351 16.0304 5.15647
61 1 3.61342 16.1842 16.0297
1089 2 1.55261 2.1869 7.13891
2599 3 2.07124 3.52984 9.03948
3094 3 1.80773 1.9737 10.8482
2078 2 5.62705 2.17903 7.17843
3095 1 3.67127 1.91453 9.11721
2590 1 3.60321 3.60219 7.20249
33 2 7.24727 1.85296 8.83561
1096 2 5.63026 2.01245 10.8619
3599 1 5.77313 3.70154 9.03932
615 1 14.015 0.121638 14.3812
3088 3 9.0934 1.87599 7.20471
3096 2 8.98191 1.87935 10.5692
599 2 8.97515 3.59203 8.994
658 3 3.68851 17.9631 10.8361
15 1 12.7791 1.84859 7.31194
1097 3 10.9574 1.92044 8.81924
1098 1 12.5937 1.92875 10.6777
2601 3 10.808 3.47173 10.6416
1720 2 5.34043 17.8564 12.4792
2098 2 14.3748 1.88753 8.98604
2602 2 16.0624 3.66149 9.22154
1701 2 5.58666 17.9985 5.3592
3720 3 1.9382 17.8648 12.3986
3097 2 16.0715 1.79351 10.6953
2081 1 1.96385 5.3312 7.17518
36 3 3.75258 5.32579 9.14936
2938 1 17.8351 18.1227 17.9331
1100 3 7.36406 5.3001 9.21292
3099 2 5.35117 5.40073 10.8896
18 2 8.90001 5.57327 7.48157
590 3 10.7537 3.72657 7.10846
1586 2 10.7773 7.25978 7.15903
600 2 7.41121 3.52541 10.8542
1603 1 9.08545 7.36578 9.14663
2101 3 10.8232 5.34333 8.93253
591 3 7.29674 7.25753 7.50828
1583 2 14.5491 3.66966 7.40399
1091 1 12.5881 5.5612 7.00213
1600 2 12.7668 3.70506 8.97929
3101 2 14.4066 5.40573 9.06398
2606 1 14.3944 7.0136 10.7279
1623 1 2.04056 14.2827 15.9869
2084 2 16.2253 5.50272 7.21707
3605 3 16.2413 7.10786 9.02093
781 3 17.9398 14.3626 7.02262
3602 1 2.10434 7.01413 8.86591
605 1 1.70884 10.731 8.81361
1103 3 3.88222 8.96628 9.07936
3102 1 1.92589 8.87309 10.5557
602 1 5.40621 7.06517 9.41172
21 3 5.4608 8.9556 7.12295
2104 2 7.21692 8.99095 9.21685
1092 2 9.00639 8.91162 7.50402
3104 2 10.9803 8.87182 9.14055
2087 3 12.8142 9.01897 7.25159
2605 1 12.5128 7.27095 9.25889
42 3 14.4283 8.90599 9.11357
1105 3 12.8625 9.0454 10.8235
3141 1 5.30316 12.7076 17.7681
2592 2 14.4266 7.2019 7.44485
1689 1 9.10625 17.9745 1.9951
608 2 16.004 10.9008 9.10362
3149 3 16.2583 16.1522 17.8992
3105 3 16.3851 9.08482 10.9615
567 3 14.2025 0.22719 0.0803118
613 2 0.213853 0.0415237 14.6069
24 2 2.1729 12.4069 7.16427
610 1 3.46417 14.3587 10.716
2107 2 3.69927 12.1169 8.81734
1592 1 3.5529 14.1551 7.18843
1609 2 1.93731 14.203 8.91226
1093 2 5.50518 12.6065 7.16042
1606 3 5.40605 10.5639 9.09979
2611 3 5.42743 14.1182 9.14619
3106 1 5.23734 12.3319 10.7676
2090 2 9.1436 12.5834 7.50083
2608 2 8.97495 10.6868 9.22366
3107 2 7.20032 12.3764 9.06255
612 1 10.7504 14.3804 10.7286
3092 2 12.6171 12.49 7.32717
3593 3 10.8707 14.1417 7.46589
45 2 10.9764 12.5322 8.94119
3590 2 14.4345 10.9604 7.05107
3608 3 12.5667 10.7374 9.09272
1109 1 14.4541 12.5684 9.08948
594 2 14.1027 14.4869 7.18758
27 1 16.1655 12.5565 7.2034
1612 3 16.372 14.4747 8.8602
2064 1 0.174636 1.93713 1.84445
1110 1 16.1416 12.6667 10.7805
609 3 14.5609 10.7294 10.9617
2123 1 10.7185 12.4848 16.0249
60 2 14.2899 12.7774 16.1132
2017 2 17.8022 5.55534 5.32125
1094 3 1.93418 16.3093 7.21268
3110 2 3.64005 15.8437 8.98709
3133 2 12.687 5.19612 17.8678
1565 1 16.2165 0.105014 2.06925
2093 3 5.43609 16.2553 7.2873
48 2 7.33697 16.2358 8.87877
1111 1 5.42545 16.0673 10.746
2594 3 7.3332 14.3813 7.2494
2841 2 17.8343 7.47933 7.31478
2603 3 0.213629 7.40226 10.6959
3611 2 9.22 14.585 8.95727
2612 1 7.21297 14.5285 10.7953
1112 2 10.9335 16.0758 9.24567
2853 1 18.0179 7.11469 10.7558
2106 2 0.29264 12.696 12.531
30 3 12.6601 16.2593 7.09385
611 2 12.6875 14.3096 9.03596
1113 1 12.7379 16.0415 10.8675
1594 3 1.88484 0.325571 9.08688
2006 3 17.8294 8.9434 2.00023
1095 3 16.0345 16.191 7.10437
2613 2 14.6346 14.3509 10.8323
2113 1 14.165 16.025 8.91309
1121 3 16.2199 8.87954 14.4017
8 1 0.238881 12.7727 1.77284
794 2 17.974 10.8146 10.885
1114 1 1.90358 2.01448 14.2725
2096 2 3.53028 2.11322 12.5321
1620 1 16.251 7.14358 16.0487
1293 2 18.0035 12.6247 8.95902
3623 2 16.1335 10.8396 16.2721
3113 1 5.59304 1.98799 14.5937
308 2 17.8803 12.5318 16.411
34 3 7.24356 1.91516 12.6413
1115 2 9.08251 1.74322 14.3882
2097 3 10.7858 1.97229 12.5314
2036 2 17.8904 5.64329 12.4761
35 2 14.0271 1.60767 12.5506
3601 1 12.6116 3.36418 12.5071
601 2 14.1422 3.66269 10.9226
1140 1 12.4473 9.03254 17.9875
2574 1 0.282738 7.18771 3.65667
1580 3 -0.0246077 3.85623 7.28937
59 2 7.32388 12.4677 15.8106
1598 2 1.97819 3.80988 12.6781
1099 2 1.70839 5.40487 10.9281
37 1 3.50332 5.53376 12.7122
3600 3 5.45562 3.73773 12.877
2600 1 3.67383 3.61958 10.8978
603 1 3.55672 7.23004 10.6289
2100 1 7.22954 5.6706 12.5508
1602 2 5.40209 6.99281 12.5932
616 3 3.69248 3.45405 14.545
1117 2 5.78226 5.35983 14.4581
1599 3 9.21969 3.59568 12.597
1101 3 9.00098 5.41875 11.0008
3116 1 9.00594 5.33908 14.4261
2604 3 7.39246 7.33926 10.7996
38 3 10.8703 5.29959 12.4769
3100 3 12.7255 5.26353 10.8424
2102 3 14.5152 5.43263 12.9092
617 2 10.6601 3.55429 14.4877
3622 2 9.01571 10.8583 16.0861
901 3 17.903 18.0859 7.09299
1601 3 16.2605 3.58211 12.55
1102 3 16.073 5.27207 11.0118
1122 1 5.46424 12.6211 14.4363
3603 2 1.60856 7.23488 12.6594
2103 3 3.50606 9.12139 12.7596
1119 2 1.96238 8.91424 14.4173
2607 1 3.68127 10.4699 10.6636
1104 2 5.35293 9.06882 10.7747
41 2 7.13036 8.85975 12.48
3607 3 5.63568 10.7016 12.5264
3604 3 9.11486 7.12696 12.5698
2609 1 10.8118 10.7608 10.8358
3103 2 9.22484 8.94771 10.8784
2105 2 10.8929 8.882 12.3575
1120 2 9.11618 9.11217 14.3907
604 1 10.9126 7.05483 10.7782
1604 1 12.6616 7.30548 12.5381
3119 3 12.7096 9.0391 14.0918
3606 1 16.1428 7.18261 12.4992
43 2 14.4621 8.93195 12.5001
620 2 14.3721 7.26806 14.2255
2069 1 0.314337 9.04013 1.57754
1107 2 2.10448 12.3873 10.5306
2624 3 3.91971 14.2863 14.2101
1605 3 1.75654 10.6569 12.3485
44 3 3.61075 12.256 12.5946
3120 3 1.9736 12.5647 14.1095
607 1 7.30451 10.5744 10.7809
2108 2 7.44004 12.7108 12.4643
1108 2 8.92105 12.4983 10.8239
1607 3 8.77036 10.8392 12.3598
3121 3 9.11853 12.7152 14.221
46 3 10.6891 12.4312 12.6258
2623 2 14.5356 10.88 14.3213
3108 2 12.7042 12.6799 10.8924
3609 1 12.4001 10.8871 12.4321
1123 3 12.7385 12.7074 14.3335
622 2 10.7688 10.8702 14.3809
3624 2 5.69439 14.2903 16.0137
2109 2 14.4921 12.6343 12.7527
1608 3 16.2829 10.886 12.7231
3613 1 16.1543 14.5185 12.5873
3122 2 16.2 12.5986 14.3068
3109 1 1.80236 15.9802 10.7365
3610 1 1.70526 14.3442 12.4333
2111 3 3.75817 16.033 12.4378
1124 3 1.80492 15.9534 14.2363
1610 1 5.37813 14.0467 12.4316
49 3 7.08731 16.0143 12.6015
1768 3 17.8068 3.65564 7.48237
2814 2 17.8972 0.150639 3.54596
3111 3 9.10332 16.1492 10.8487
3612 3 9.0972 14.4763 12.5561
1611 1 12.5066 14.3216 12.6935
2112 2 11.0428 16.374 12.6942
1126 1 16.2019 16.249 14.2593
3112 2 15.8676 16.3109 10.6373
2622 2 7.36231 10.8228 14.2001
50 1 14.2559 16.127 12.5826
3621 2 2.00047 10.7864 16.2959
568 2 0.22904 3.86564 3.49741
2584 2 0.113761 14.4018 3.81388
3616 2 1.82173 3.58347 16.366
2121 1 14.3212 8.80511 16.1277
3598 3 15.9913 0.0564928 12.6238
2617 3 7.40583 3.74664 14.3683
51 1 3.8064 1.73465 16.4074
2115 2 7.28627 1.70672 16.258
3617 3 8.99035 3.56974 16.3244
52 3 10.6484 1.81893 16.298
3114 3 12.2372 1.81372 14.4076
1617 1 12.5947 3.48233 16.1715
2618 3 14.1606 3.50663 14.3428
2122 2 3.41117 12.624 15.913
2116 2 14.2906 1.9184 15.9985
1116 3 16.144 1.82785 14.2814
3618 2 16.2285 3.69089 16.108
2011 2 18.0573 16.3546 1.83625
3115 2 2.01044 5.32807 14.6878
2032 3 17.6901 1.8095 9.01669
1563 1 1.84149 -0.0853373 1.89399
3620 1 12.6443 7.34735 15.9642
1616 1 5.59974 3.56059 16.2135
2117 2 3.75496 5.43812 16.2468
3619 1 5.48087 7.33568 16.2101
1622 3 12.6378 10.7309 15.9039
54 2 7.21707 5.57037 16.2008
2118 1 10.8451 5.26899 16.3032
1619 2 9.23253 7.15576 16.3009
1118 3 12.5827 5.28372 14.2132
55 1 14.2464 5.65987 16.1083
57 3 10.8612 8.89349 16.0075
2120 3 7.36461 9.14604 16.1282
2619 1 3.73453 7.08245 14.6927
3117 1 16.3077 5.41838 14.5715
1621 2 5.55037 10.6742 15.9155
3118 1 5.53451 9.11756 14.3027
619 2 7.21166 7.29114 14.3544
621 3 3.62553 10.7779 14.5219
1618 2 2.07057 7.2349 16.1874
2620 3 10.669 7.09584 14.2403
56 1 3.74132 9.03062 16.244
2080 3 0.041535 5.49193 5.49099
2648 1 7.2441 14.3448 18.0306
677 3 7.24756 17.9282 14.3676
1595 1 5.47024 0.448207 12.7431
1703 1 12.5754 17.8623 5.48196
2598 1 14.4 0.194035 10.8321
3579 3 16.0779 0.103353 5.55688
595 3 3.83267 0.394906 11.0492
2566 3 7.33204 0.191476 3.91283
1688 1 1.90284 17.8573 2.03082
2614 3 3.53099 0.379777 14.1953
2721 1 5.25059 17.801 9.2073
1719 1 1.94044 17.8919 9.04122
583 3 0.281468 14.5297 0.130817
1150 1 12.4278 16.3778 18.0197
516 3 0.252806 10.78 17.859
626 2 0.257594 17.6565 0.288865
510 3 14.5957 3.69993 17.6876
524 2 10.7985 14.4016 18.0849
2585 1 3.77126 14.5098 0.168761
2638 3 7.24929 7.41005 17.7777
1146 1 16.0105 12.4766 17.8597
2569 1 0.425136 3.63028 0.0195464
3074 1 5.54657 9.0336 0.275026
3072 1 16.2585 5.37621 0.208017
761 3 17.8527 7.29052 0.118565
3143 1 12.6869 12.6892 18.0688
1086 1 9.01513 16.4357 0.241643
585 2 7.33374 14.5552 0.146671
520 3 14.3325 10.6669 17.8478
829 1 17.9115 10.7727 17.7672
1132 3 1.72933 5.41746 17.8634
3129 3 16.2098 1.82233 17.7788
514 1 11.0369 6.9663 17.7857
2577 1 10.8857 7.14414 0.287722
563 2 0.224957 0.131833 0.24095
3147 1 9.26218 16.1746 17.9412
522 2 3.64275 14.4961 17.8725
2573 3 14.1353 3.576 0.0770757
3070 2 9.07743 5.33205 0.114939
1068 2 16.059 1.79592 0.0999995
2644 1 10.9345 10.8843 17.9712
2630 3 14.4076 0.16097 17.9445
2127 2 3.68138 2.02181 19.5296
2341 1 18.0325 16.006 23.3288
373 2 18.0054 16.3364 34.009
64 2 7.08725 1.84903 19.9293
2184 2 0.0617963 12.8653 34.1502
3126 2 5.70874 2.10182 21.723
533 2 5.38101 0.0433808 26.5974
3167 2 0.0184816 12.5302 27.1035
691 3 7.34066 17.9323 21.4501
2128 2 10.9197 1.66545 19.661
1129 1 9.01362 2.1509 21.5026
1534 3 9.07158 17.8976 30.1494
2353 2 17.9588 9.14414 30.4585
65 3 14.4761 1.7426 19.8905
3630 1 12.8037 3.70644 19.6533
3128 2 12.66 1.69356 21.5662
2165 1 0.18872 9.17001 26.9965
1627 1 12.7489 0.0551502 19.5955
834 3 17.9918 14.3197 21.3803
1131 2 16.3544 1.91477 21.6622
2536 2 17.7491 3.44378 28.771
3802 2 9.03865 17.8695 33.9932
1628 2 1.92542 3.71329 19.856
3631 3 1.88225 7.20034 19.8245
3130 2 1.77352 5.39741 21.4778
66 3 3.79544 5.60252 19.7234
3629 2 5.65089 3.79865 19.6299
1133 2 5.43135 5.34452 21.6844
3765 3 3.64741 18.0543 25.2385
329 1 17.8198 5.54533 23.1666
2130 3 7.25556 5.52575 19.7771
1629 3 9.16498 3.59422 19.5837
3632 2 9.05812 7.29051 19.4776
67 2 11.0196 5.33919 19.4342
2131 1 14.2064 5.20871 19.6773
1135 2 12.3904 5.45474 21.4408
515 2 14.2397 6.98599 21.4537
1632 3 12.3521 7.28511 19.8415
1630 2 16.1157 3.643 19.7229
3135 2 2.08238 9.0823 18.095
3134 1 16.3683 5.44249 21.3266
2132 2 3.82877 9.19356 19.847
3688 1 16.0337 14.293 34.0446
2802 2 7.03799 17.9492 32.3237
513 2 7.34961 7.1001 21.4478
1631 2 5.7163 7.3921 19.9459
3634 2 5.67739 10.6046 19.9646
3136 2 5.53136 9.04683 21.4522
63 1 -0.0398658 2.11642 19.6637
69 1 7.20718 9.1079 19.7587
1634 2 9.03931 10.9464 19.699
3127 1 9.02639 1.5564 17.9604
98 1 -0.0151641 5.72271 30.4129
3657 2 2.04684 0.323434 26.8858
2133 3 10.8296 9.01817 19.5592
3635 2 12.5363 10.8446 19.6643
70 2 14.2236 8.97434 19.5309
3633 3 16.2945 7.31753 19.582
1141 1 16.1094 9.00855 21.4062
3628 1 16.2344 0.11347 19.4677
1633 1 2.00602 10.8719 19.5307
3636 3 1.94366 14.3257 19.7319
939 3 17.9576 17.815 21.5198
71 3 3.79506 12.5773 19.681
2135 1 7.2501 12.5404 19.7184
2352 1 17.9574 9.09442 26.8527
1636 3 5.47652 14.4888 19.9269
2516 1 18.0419 10.5148 21.4716
3142 3 8.93013 12.5199 21.4979
523 1 7.47538 14.3559 21.4392
1641 1 16.199 0.0375741 23.2848
3801 2 1.74368 18.0301 34.096
72 2 10.9155 12.4412 19.8087
2136 2 14.4952 12.4164 19.7667
1148 3 5.6286 16.0954 17.9504
2645 2 14.4878 10.6041 21.502
2783 2 3.35147 18.0643 28.8313
1635 3 16.3282 10.7469 19.5323
1144 3 9.11622 12.7467 17.9436
2137 2 3.74024 16.3206 19.5596
1147 3 1.74131 16.2615 21.4823
2158 1 0.103147 2.01112 30.5628
2678 2 14.1941 0.046843 32.2318
3784 3 12.7203 17.8252 30.517
368 3 18.0799 8.98742 33.8921
1658 1 9.08283 0.103836 27.3295
3637 2 9.17825 14.2711 19.7264
74 3 7.58991 15.9735 19.588
2649 2 10.9068 14.2784 21.5204
1532 2 1.80326 17.816 30.4775
1637 1 12.5614 14.505 19.5621
2138 2 10.9007 16.1487 19.8617
721 1 5.41497 17.9484 26.915
534 1 7.26169 -0.0132372 28.9634
2139 1 0.200215 1.92672 23.1534
3638 1 16.1757 14.3725 19.7719
75 3 14.4489 16.2468 19.7484
3082 2 16.2355 12.4187 35.543
1638 3 1.95596 -0.0325833 23.2371
1127 3 1.86819 2.00267 21.298
76 1 3.65626 2.14249 23.4504
3145 3 1.77249 16.056 18.0153
3150 2 1.99752 2.04989 25.2164
2146 1 0.155355 8.97484 23.2567
318 3 18.1502 9.12482 19.522
2801 2 0.0799562 17.8615 32.3776
547 1 0.101095 14.3077 28.4534
2140 2 7.38666 2.15663 23.3864
78 1 10.7624 1.85697 23.3159
1152 1 9.07929 1.95345 25.2337
3644 2 9.08144 3.82874 23.3534
2653 2 10.7612 3.73608 24.9913
2635 3 14.3024 3.50134 21.7286
2142 2 14.3402 1.79846 23.1837
509 3 10.7807 3.46622 21.5996
1644 2 12.4397 3.77376 23.1535
3646 1 14.2711 3.53448 24.8369
3751 3 1.67751 17.7265 19.7647
3151 3 16.2516 1.83205 25.1569
1188 1 12.733 16.0382 32.0458
1639 2 8.79827 -0.0182759 23.3001
2641 3 0.158496 10.8521 21.4182
3642 1 1.93872 3.80687 23.2506
2143 3 3.80455 5.639 23.2541
1645 2 1.76992 7.38903 23.286
2637 1 3.64124 7.28999 21.7427
2633 2 7.32662 4.00088 21.5535
1642 1 5.51011 3.94539 23.4354
507 3 3.71258 3.71019 21.5146
3647 2 5.48877 7.42639 23.048
1153 2 5.53158 5.58285 25.302
3132 1 9.22395 5.2285 21.339
81 2 7.20051 5.50268 23.5025
2144 2 8.88194 5.64579 25.0763
2145 3 10.5868 5.77506 23.3065
3649 2 10.7537 7.20497 25.2242
3645 1 16.1997 3.77513 23.2143
82 3 14.0474 5.43509 23.337
529 1 14.7023 7.32238 25.1315
1648 2 16.3197 7.22492 23.0954
1137 3 1.90206 9.2393 21.23
84 2 3.49401 9.03863 23.1104
3650 3 1.72076 10.7911 23.0661
2655 1 3.67643 10.9242 24.8083
2147 3 5.46348 8.95156 24.8753
1650 3 5.69145 10.87 23.4326
519 2 10.963 10.5217 21.5111
1647 1 8.8875 7.3445 23.4202
1139 2 8.91164 8.99437 21.3018
2148 1 7.23416 8.9306 23.1219
3153 2 9.05641 8.8928 24.9972
85 2 10.7656 8.84188 23.2706
2639 1 10.3342 7.13291 21.3793
3138 1 12.6663 9.09492 21.3645
3648 2 12.6999 7.26104 23.323
86 3 12.7436 8.95169 25.0785
2149 2 14.3081 8.981 23.0846
1155 2 16.3633 8.70749 24.9575
3140 1 1.95872 12.6297 21.629
3655 3 3.58454 14.4947 24.9244
562 2 10.7886 14.4237 32.1076
517 1 3.78996 10.8358 21.475
1143 2 5.48169 12.4681 21.4786
2151 1 3.64043 12.822 23.2064
88 2 7.23843 12.6249 23.2021
2647 1 3.67853 14.3576 21.606
3654 2 5.6672 14.3634 23.3223
2643 3 7.36656 10.8118 21.4768
3651 2 8.94208 10.6877 23.2714
1654 3 9.3229 14.6086 23.4221
89 1 9.08427 12.7032 25.0548
531 1 7.44803 14.3203 25.0789
1145 1 12.5719 12.4967 21.3907
1655 3 11.1279 14.2934 25.0638
1651 2 12.6416 10.7408 23.3384
2152 1 10.8398 12.4988 23.1015
3144 2 16.2027 12.3018 21.6297
125 3 14.3837 16.1564 33.8802
3653 1 16.1069 10.6081 23.2139
90 2 14.3044 12.4688 23.1126
2657 1 14.6355 14.3866 24.9473
1656 1 16.1031 14.4026 23.0301
2153 3 15.8031 12.3035 25.0681
1653 3 1.5544 14.2828 23.3778
91 3 3.74664 16.5619 23.2653
3146 3 5.48834 16.1272 21.5191
2155 3 7.37325 16.0201 23.3482
92 3 5.40595 16.259 25.2022
2652 1 14.1455 0.315436 24.8729
860 3 17.8951 14.3085 28.4463
1088 3 16.1745 16.1583 35.7466
2360 2 17.934 16.2112 30.4042
1149 1 9.19876 16.2076 21.5135
93 3 11.048 16.0559 23.3231
1157 2 8.91881 16.3243 25.2114
2556 3 17.9035 7.37318 32.1131
3148 1 12.7097 15.8768 21.5915
3656 1 12.624 14.2369 23.2309
525 1 14.4261 14.319 21.3433
2157 1 14.6643 16.4283 23.3428
1151 3 16.102 16.1426 21.4465
3156 2 16.1382 16.2061 25.1434
521 1 0.161263 14.1486 21.3799
1130 1 12.6291 1.6728 17.9675
3643 2 0.0742813 3.70043 24.8507
3783 1 5.35596 17.8391 30.3318
1643 3 7.25537 3.78023 25.0566
77 1 5.38824 2.00604 25.1725
1159 1 3.88514 2.0092 26.6908
1661 3 5.57698 3.7818 26.9758
3157 2 5.33766 2.15895 28.7058
2159 2 7.11083 1.70851 27.114
2663 3 7.06217 3.81492 28.8782
1501 1 5.59025 17.856 19.7424
3158 3 10.7595 2.05062 27.033
2662 3 9.01595 3.63493 27.0157
1160 1 9.02483 2.01881 28.9287
355 2 17.7403 12.6799 30.3421
2629 3 10.8999 -0.00084084 21.466
2141 2 12.4288 1.98279 25.0239
3663 2 12.757 3.72424 26.7934
1837 1 17.8631 10.6715 24.9449
97 2 14.5183 1.76463 26.8635
1161 2 15.963 1.86705 28.7642
539 1 16.1473 3.56687 26.7514
3687 2 8.83272 14.5552 33.9662
2188 1 10.6169 16.2416 33.9095
527 2 3.78652 3.91498 24.9963
536 3 1.89476 3.77753 26.9405
80 2 1.94548 5.22872 25.0368
2162 1 3.55965 5.44308 26.852
3160 3 1.7629 5.38225 28.8372
1163 3 5.37872 5.62568 28.5292
3161 1 7.32647 5.5343 26.8247
537 3 3.60189 3.77029 28.693
2654 2 7.12242 7.31748 24.8868
541 1 7.08513 7.33238 28.5861
100 2 10.868 5.07725 26.8177
3152 3 12.5513 5.39248 25.1405
1165 3 14.4578 5.46963 26.8372
1164 1 12.4 5.46973 28.7163
83 3 15.9095 5.44746 24.9644
1667 2 16.3024 7.11744 26.8458
3163 1 16.1702 5.23727 28.7966
540 2 0.119712 7.10897 28.4872
1664 3 1.97651 7.28158 26.8359
1154 3 1.91625 9.15011 24.9536
3164 1 3.71522 9.09511 26.6169
2668 2 2.0849 10.7169 26.7912
1138 2 5.62382 9.2919 17.8233
1646 3 3.79567 7.23368 24.9158
2665 2 5.48855 7.38687 26.9342
2666 3 3.57793 7.43266 28.5213
3666 1 8.8653 7.23628 27.042
103 1 6.91396 9.16507 26.7088
545 3 8.91216 10.6731 26.9293
1167 3 9.00948 9.04255 28.5475
1168 1 10.7671 8.85451 26.7854
542 3 12.6751 7.18422 26.9033
1670 2 12.746 10.5546 26.6778
2672 2 14.2697 10.594 28.5469
2667 2 10.7 7.22087 28.4294
124 3 7.32379 16.2764 33.9525
1652 1 14.5359 10.4572 25.0104
2168 1 14.4454 9.03081 26.7758
1169 2 16.3502 9.03631 28.6263
2150 1 1.54049 12.4024 25.2156
3168 3 1.92243 12.4357 28.4628
2673 2 3.64757 14.0843 28.4353
106 1 3.69621 12.6395 26.4985
3154 2 5.68154 12.7912 25.1416
3669 1 5.27367 10.9013 26.5829
548 1 5.61094 14.564 26.8235
2670 1 7.31584 10.7143 28.4937
3652 2 7.44723 10.7669 25.0677
1171 1 7.35119 12.7098 27.0921
549 3 7.4613 14.4348 28.7557
530 1 10.676 10.9813 24.9629
1156 1 12.615 12.5082 24.9535
2171 1 10.946 12.5125 26.9121
2674 1 12.8375 14.3892 26.7329
550 2 14.0389 14.2291 28.6119
1660 1 16.2258 0.162337 30.4454
3170 2 14.2354 12.4119 26.7165
2671 3 16.1742 10.5223 26.8315
3675 3 16.0765 14.1981 26.7264
3672 2 1.99101 14.3846 26.5033
3155 1 1.91941 16.1151 24.9758
1174 2 3.59113 16.1761 26.6781
1173 2 2 15.9272 28.4238
2174 1 7.38356 16.2065 26.9555
3172 2 5.51968 15.9192 28.7895
2544 3 17.8457 11.0204 28.5296
3626 2 2.02745 0.364025 19.7642
2785 1 10.8822 17.8709 28.7157
1673 2 9.22485 14.2608 26.8221
3173 1 10.8013 16.2252 26.8072
1175 3 9.12881 16.1159 28.6178
2675 1 10.896 14.5272 28.4509
2156 2 12.6945 16.0241 24.9266
3174 3 12.7287 16.1199 28.4633
112 1 14.4163 16.169 26.8909
3639 3 5.33136 0.133625 23.5425
3893 3 17.7418 3.78599 25.0987
1176 1 16.1438 16.2076 28.6021
1064 1 1.87624 1.79971 35.773
2129 2 0.112186 5.67593 19.7106
2659 1 12.3642 0.380782 26.7684
1158 3 2.09322 1.96801 28.6426
3661 3 1.88219 3.7541 30.5217
3175 2 1.88 1.94016 32.0936
575 3 7.44441 7.05875 35.7295
2679 1 3.69911 3.42305 32.0715
2754 3 10.868 17.9339 21.537
95 1 3.55679 1.78687 30.4308
1177 2 5.36894 1.91621 31.8793
2160 1 7.20981 1.89689 30.3432
554 3 7.4102 3.67371 32.0734
579 1 3.86273 10.8145 35.8078
96 2 10.9174 1.96265 30.3614
3662 1 9.0054 3.68534 30.4398
2571 2 7.14313 3.79703 35.7755
3184 2 12.6117 12.6371 32.0151
3159 2 12.5416 1.95881 28.462
1663 1 12.5628 3.81305 30.3216
1178 1 12.5433 1.88601 32.2563
555 1 14.205 3.79373 32.3205
1686 2 5.3437 14.5676 34.0639
2688 1 14.5191 14.3847 32.1655
2664 1 14.4145 3.54294 28.5542
2161 3 14.3701 1.84777 30.529
3664 1 16.2515 3.57088 30.6473
3177 1 16.0037 1.86075 32.4362
1551 1 5.43261 17.896 33.9958
1665 2 1.92105 7.29572 30.4119
1179 3 1.9515 5.66467 32.2264
2163 3 3.58315 5.43135 30.4167
1687 3 12.6452 14.5798 33.9414
556 1 3.55156 7.47474 32.2489
1662 1 5.42689 3.81618 30.4557
3665 1 5.47886 7.34236 30.438
3178 3 5.36281 5.53913 32.1353
99 1 7.18192 5.56239 30.4191
2682 2 7.22725 7.36815 32.3399
3162 3 9.04144 5.54939 28.7347
538 2 10.9921 3.79435 28.6757
2164 1 10.7674 5.61795 30.5539
557 2 10.6636 7.27903 32.2539
1180 2 8.90067 5.47802 32.2061
3179 3 12.4503 5.57777 32.237
3667 2 12.7747 7.25235 30.5165
2587 3 10.6179 14.5239 35.641
101 2 14.0197 5.43497 30.4614
1181 1 16.101 5.31891 32.1346
543 2 14.3256 7.35278 28.6879
1668 3 16.1236 7.17047 30.3628
3185 3 1.95892 15.8236 31.9907
544 2 3.81995 10.593 28.4817
1166 2 1.85948 9.18383 28.977
3668 2 1.81759 11.1033 30.5176
102 2 3.56024 9.13971 30.5546
2187 3 3.68349 16.1166 33.9007
3165 1 5.38049 8.87385 28.6741
1182 3 5.4691 9.2093 32.2369
2167 3 7.1991 9.04606 30.4614
1666 1 9.01733 7.25459 30.3004
546 2 10.6981 10.7277 28.5641
104 2 10.7436 8.96664 30.34
3166 3 12.3484 8.94905 28.6961
2685 3 10.9663 10.8847 32.0568
1671 1 12.7874 10.7169 30.4056
1183 2 12.5871 8.83323 32.452
2169 2 14.2778 8.90122 30.4283
2683 2 14.3481 7.16988 32.4144
3182 3 16.138 9.08289 32.0792
3671 1 15.7722 10.9314 30.3209
2170 1 3.64252 12.683 30.5382
561 1 3.87277 14.4108 32.229
1184 3 1.92071 12.7568 32.5131
1170 2 5.41722 12.6454 28.4781
1669 2 5.3494 10.8534 30.3247
3673 1 5.45175 14.2764 30.1948
3670 2 9.13011 10.8424 30.3347
107 1 7.05851 12.3342 30.2507
3169 2 8.84521 12.5807 28.7063
2172 1 10.9787 12.6635 30.2283
1674 1 9.05778 14.3106 30.3992
1172 3 12.5579 12.3443 28.3685
108 2 14.5784 12.7269 30.4299
3674 1 12.6626 14.18 30.4661
3171 1 16.0498 12.499 28.5674
1186 3 16.0633 12.4143 32.1113
1675 3 15.9529 14.4575 30.4562
739 3 3.63978 17.8656 32.0371
1672 1 2.20465 14.3475 30.265
110 2 3.71042 15.6992 30.1795
1552 3 12.6031 17.8634 33.7259
1187 3 5.41567 16.0495 32.1053
2166 1 0.0911276 9.16874 30.5429
2175 1 7.32961 16.1042 30.596
3186 1 8.98356 16.3729 32.02
111 1 11.0471 16.0509 30.4502
2176 1 14.4186 16.0769 30.4362
2651 1 0.260514 0.146829 25.1566
2660 2 10.8356 0.205162 28.7382
3187 2 16.2603 16.0408 32.4392
122 1 10.7796 12.8523 34.106
2776 2 0.0707304 17.8804 25.0658
2177 3 3.63293 1.57495 33.8325
114 1 7.16045 1.82634 33.8033
2669 2 0.129386 10.7912 28.7321
3176 3 8.95867 1.73911 32.1687
1679 1 9.04904 3.79507 34.31
3064 1 5.57225 1.78283 35.7102
2687 1 7.26079 14.4565 32.4443
2777 1 14.6509 18.0229 25.0788
2680 1 10.8268 3.68052 31.8986
1078 2 16.1947 9.03161 35.8423
2178 1 10.6235 1.75356 33.817
3680 1 12.2717 3.5573 33.8401
2185 3 7.37736 12.8241 34.0124
2186 2 14.1586 12.5135 33.8741
866 1 17.9694 3.29844 32.2128
115 1 14.2366 1.92554 34.1906
1080 2 5.63579 12.6953 35.7969
1678 2 1.99778 3.75497 33.9233
3681 3 1.93592 7.38239 33.9564
116 1 3.65223 5.4468 33.95
3679 3 5.4567 3.54484 33.8984
2180 1 7.1649 5.32218 33.8925
1681 3 5.55959 7.43136 33.9731
121 3 3.895 12.5609 34.0411
117 2 10.9867 5.68525 34.1807
3682 3 9.04288 7.14258 33.9835
3686 1 2.0424 14.5185 34.1201
1682 2 12.588 7.08803 34.1136
2181 1 14.1729 5.19596 33.8778
1072 2 12.5628 5.52315 36.0668
526 1 7.29188 0.41437 25.1894
1680 2 16.0097 3.47728 34.1778
3683 2 16.2172 6.86997 33.9198
2634 3 10.8936 3.34689 18.1984
3183 3 5.53204 12.6756 32.2091
1185 2 8.88283 12.7229 31.9515
3180 1 1.83087 9.17658 32.3276
1683 3 1.796 10.9281 34.2592
3078 2 1.92199 12.7654 35.7539
559 2 7.36603 10.8454 32.1745
2684 2 3.45643 10.8761 32.231
119 3 7.31941 9.20732 33.8117
3684 1 5.46097 10.7649 33.9464
2182 3 3.66415 9.2162 34.0682
120 1 14.5016 8.79951 33.9993
3181 2 9.0029 9.01515 32.2059
1684 1 9.15575 10.9176 33.8671
560 2 14.226 10.6982 32.1092
3685 3 12.3801 10.911 33.9563
2183 3 10.557 9.04503 33.8017
1074 2 1.75196 8.93684 35.7935
1685 2 16.0953 10.7556 33.9782
1162 3 0.209562 5.37822 26.8005
577 3 14.3878 7.11314 35.6948
3678 1 16.038 0.246433 34.2708
2579 3 0.174517 10.9428 35.7791
2561 1 17.7101 14.2472 32.4528
2531 2 17.7427 14.1829 25.0181
1533 2 9.08379 17.9878 26.9708
3752 1 9.00779 18.0255 19.7181
2627 1 3.6389 0.0760487 21.3699
344 1 17.7214 1.83713 27.0305
3676 2 1.69238 0.287962 33.9468
714 1 7.22672 17.9934 24.9005
569 1 3.59327 3.77732 35.7011
528 2 0.0817092 7.25035 25.2044
871 2 17.8562 10.677 32.3205
553 1 0.0387042 3.54534 32.3219
337 2 17.8671 12.2474 23.2863