ITEM: TIMESTEP
5000
ITEM: NUMBER OF ATOMS
4000
ITEM: BOX BOUNDS pp pp pp
5.3690306874614180e-03 3.5728690969312680e+01
5.3690306874614180e-03 3.5728690969312680e+01
5.3690306874614180e-03 3.5728690969312680e+01
ITEM: ATOMS id type x y z
1 3 0.0343868 1.66114 1.59764
1563 3 -0.0982341 0.0972664 0.0969661
2064 1 1.71857 2.12353 0.148518
3561 2 1.79734 -0.0115608 1.52845
564 3 3.56021 1.83235 1.98731
565 1 6.90408 1.75187 1.78692
1565 2 7.30237 0.0449904 -0.0501996
2065 3 3.55125 0.1273 0.0176727
3061 3 5.41682 1.70889 -0.23943
3562 3 5.57663 0.103274 1.96429
566 3 10.7807 1.76049 1.96257
1070 1 10.7429 -0.237223 0.197795
3063 1 8.92778 0.0603888 2.20343
3062 2 9.02137 1.62618 0.190696
567 2 14.0306 1.42732 1.89549
2566 3 14.2931 -0.126356 0.0269408
3064 3 12.4893 1.60267 0.16584
3563 1 12.3245 -0.0683122 1.85118
2 2 17.7801 -0.128628 -0.0598606
3 2 15.8794 -0.0516419 1.81029
3066 3 17.7923 1.69648 2.00844
3065 3 16.0586 1.82854 0.245284
4 2 1.81271 5.36572 0.0255687
5 3 1.70006 3.67062 2.05367
6 1 1.94859 7.18178 1.83952
1071 1 -0.115303 5.47016 1.85748
3067 2 0.0766738 3.58233 0.158581
3565 1 0.065596 7.15192 0.206567
7 2 5.39799 5.23188 0.0674659
8 1 3.49697 7.18478 -0.00657792
1072 3 6.9106 5.08226 2.11318
1075 2 5.27982 6.98999 1.64588
1074 2 3.59606 5.08024 1.46485
1567 1 7.01809 7.03702 0.166532
2570 1 7.28134 3.42542 0.0739626
2569 1 3.54429 3.38287 0.107341
3569 2 5.41768 3.3645 1.63723
9 2 8.85857 5.48737 0.224647
10 1 8.78775 3.53276 1.71872
1077 1 10.7846 7.09428 0.0667315
1076 2 10.6982 5.20189 1.68513
1568 3 8.65843 7.01098 1.8896
3068 1 10.8243 3.50991 0.0795601
11 3 12.5041 5.19839 -0.0313739
12 2 14.2972 3.28468 -0.0343897
570 3 12.5241 3.41182 1.79076
1571 3 14.1568 7.1363 0.144114
1570 3 14.1028 5.56362 1.85347
1569 1 12.2144 6.97318 1.74902
572 2 15.7136 3.66651 1.78989
1081 1 16.0393 7.16668 1.84227
1079 1 17.8823 5.32274 1.87215
1078 2 16.212 5.50779 0.0112839
1573 1 17.9678 3.44231 0.25825
2070 2 18.0614 7.12591 -0.277583
575 2 1.69108 10.8173 1.56476
1082 1 1.87771 9.27119 0.261776
1574 1 -0.177609 9.03754 1.80112
3070 1 0.0402196 10.9798 0.0764449
576 2 3.84595 10.6913 -0.265355
1085 2 5.19741 8.89253 0.120683
1083 2 5.34887 10.8044 1.82379
1577 1 7.22689 10.8085 0.352398
1576 3 7.08858 8.75259 1.88401
1575 2 3.46308 8.96411 2.02378
14 2 10.6435 10.623 0.312121
1087 1 8.72772 10.6246 1.9261
1086 3 8.79902 8.84493 -0.0538526
2071 2 10.6158 8.91467 1.89438
580 1 12.4202 10.7075 1.93588
1088 2 14.2664 10.8957 0.10826
2073 2 12.5177 8.93309 0.0150017
2074 1 13.8637 9.08052 1.83298
15 3 17.7041 8.93734 1.90414
1581 2 15.9282 10.6951 1.77183
2076 1 17.623 10.7768 0.0446116
2075 3 16.0224 8.80263 0.137791
2079 1 1.84272 12.5005 -0.247432
2078 2 1.9497 14.2188 1.55611
2077 3 0.0439675 12.4581 1.88212
2572 1 0.152788 14.34 -0.0251322
2082 2 5.37717 14.2488 1.75752
2081 1 3.74589 12.6148 1.71851
2080 3 5.36118 12.4828 -0.053435
2576 3 7.20232 14.2557 -0.134482
2575 1 7.08575 12.3968 1.96075
3071 2 3.37643 14.3056 -0.0483586
1583 3 8.79683 14.4969 1.75021
2084 1 10.4919 14.1668 -0.206748
2579 1 10.7039 12.4835 1.8337
3073 3 8.93236 12.4817 0.0187315
2085 1 12.455 14.1813 1.61573
2580 1 14.2956 12.4709 1.7688
3074 2 12.284 12.4604 0.216092
3574 1 14.1916 14.2675 -0.0764367
581 1 17.899 12.4513 2.13598
1089 1 17.8334 14.395 0.190952
2583 3 16.0642 14.2815 1.84496
3075 1 16.1547 12.4783 0.260954
16 3 0.0608596 17.9971 0.0681398
2086 2 1.72936 17.8799 1.72319
2584 2 0.0446287 16.3306 1.66577
3076 3 1.86716 16.0762 -0.0876537
17 3 5.38183 16.0125 -0.151952
1090 2 3.61213 17.8621 -0.0297518
2585 3 7.27246 17.754 -0.0821646
3079 1 5.41866 17.7697 1.76391
3078 1 7.08295 16.0519 1.62263
3077 1 3.51401 16.0494 1.75197
18 2 8.91625 15.9952 -0.120132
1585 1 10.4246 17.6529 0.151385
3080 3 10.6282 16.0094 2.03517
3578 1 8.98201 17.803 1.91157
19 1 12.5204 15.9409 0.218955
2088 3 14.1179 17.9601 -0.0327865
3081 2 14.1676 16.0636 1.85916
3581 2 12.4322 17.7381 1.67936
20 2 16.2335 16.1966 0.0188111
1586 1 17.9272 16.2452 1.96091
3083 3 15.9108 17.8347 1.72931
3082 1 17.6345 18.1005 0.0579968
584 1 1.64451 1.50483 7.07937
1564 3 -0.00266176 -0.107755 3.47671
2588 2 1.66346 -0.217053 5.2953
2563 2 1.76833 1.92829 3.6771
3084 2 -0.264359 -0.160908 6.91217
3583 3 -0.139731 1.87321 5.37341
22 1 5.61641 1.78959 7.14977
1069 2 3.48674 -0.0764467 3.51255
1566 2 7.17003 -0.0244156 3.68602
2089 1 5.49394 -0.0638023 5.58006
2590 3 3.84132 -0.0274202 7.15627
2564 1 5.19332 1.83593 3.91595
3085 2 7.14813 -0.0980426 7.32546
3585 1 3.61146 1.65884 5.43826
3584 2 7.06652 1.76054 5.53077
586 1 8.70691 1.52263 7.23277
2066 3 10.6544 -0.131459 3.8274
2593 1 8.81988 0.101431 5.56107
2565 2 8.72712 1.63966 3.95036
3086 2 10.6557 -0.137569 7.11705
3586 2 10.5306 1.74152 5.497
23 1 12.4756 1.60885 7.23397
24 1 14.3833 -0.170605 7.12056
25 3 14.3463 1.80766 5.32282
2568 2 14.0265 -0.264004 3.51917
2567 2 12.3329 1.91176 3.93633
3087 2 12.5443 -0.199981 5.55561
568 2 17.7718 -0.123718 3.58558
588 1 16.1391 1.69028 7.17932
1587 1 17.8509 0.034733 7.22834
3088 1 16.2151 0.160061 5.34099
3588 3 17.8826 1.76041 5.42827
3564 3 15.8989 2.06953 3.49866
27 1 1.92601 5.30018 6.96044
28 2 1.7546 7.30216 5.3944
589 2 -0.230198 5.51554 5.42628
2067 1 0.00832357 3.75319 3.8998
3090 3 2.15816 3.43516 5.6465
3590 3 0.196148 7.15828 7.16095
3589 3 0.0505751 3.53232 6.92725
3567 1 0.145161 7.14386 3.71298
3566 3 2.01876 5.46316 3.85826
29 1 3.67902 3.60738 7.38395
593 3 3.45612 7.21013 7.0359
592 3 7.0123 5.25625 5.34111
591 3 7.01175 7.24035 7.08427
590 1 3.73093 5.40999 5.45768
1095 3 5.38943 5.49277 7.38411
1094 1 5.02328 7.21791 5.55755
1073 1 3.79128 7.20525 3.60423
2068 3 6.80213 7.03488 3.7369
2069 2 3.69961 3.53731 3.69974
3593 1 5.26986 3.6636 5.47696
3592 1 6.98572 3.75718 7.1253
3570 2 5.06418 5.24566 3.54933
3568 2 7.13689 3.29805 3.76488
31 3 8.8014 3.46062 5.44532
569 2 10.5704 7.00998 3.47846
594 3 10.6296 5.38214 5.33892
1097 1 8.88534 5.43606 7.08234
1590 2 8.69393 6.92804 5.24314
1589 2 10.7243 7.18209 6.97993
3594 3 10.3913 3.36862 7.19376
3572 3 10.5089 3.61588 3.6078
3571 1 8.89355 5.35596 3.35806
33 3 12.4474 3.5765 5.74162
35 1 14.2998 3.31546 7.49751
571 2 12.4793 5.32925 3.46476
595 1 14.2053 7.20511 7.36618
1100 3 14.3392 5.03993 5.44956
1099 1 12.4597 5.35261 7.2601
1592 1 12.7003 6.85668 5.23
1572 1 14.1055 7.03492 3.59053
3069 3 14.1711 3.62439 3.51359
573 3 15.9298 5.45244 3.54689
1080 2 17.6514 3.54599 3.48692
1595 1 16.0674 6.96876 5.34577
1594 3 16.0668 5.13602 7.14979
2094 1 17.6159 7.09736 7.07791
2092 3 17.884 3.54712 7.07844
2571 3 17.7618 7.18788 3.6719
3092 3 17.7508 5.22799 5.35888
3595 1 16.1056 3.54508 5.37249
13 2 0.0989716 10.8945 3.53843
597 1 0.0223605 10.9361 7.12139
596 2 1.91733 10.9367 5.39567
574 1 1.65297 9.02898 3.47918
1102 1 1.75923 9.18462 7.09839
1101 2 0.0557793 9.27433 5.46503
38 2 3.45499 10.8935 7.16998
578 2 3.64162 10.8398 3.58675
577 2 5.22598 9.01185 3.71037
1106 3 7.08596 10.878 7.04038
1104 2 5.33412 10.9888 5.36166
1103 2 3.43002 9.06906 5.31422
1084 2 7.10194 10.6055 3.6432
1597 2 7.24456 9.04549 5.38871
1596 1 5.15285 9.21458 7.19835
39 2 10.5873 10.7648 7.07822
599 1 9.01985 10.7473 5.4879
579 3 10.3346 10.6537 3.62845
1107 3 8.90473 8.78503 7.11869
1578 2 8.99979 8.77009 3.70613
2097 3 10.8708 8.67387 5.08114
1108 3 12.2842 10.6217 5.41856
1598 3 12.3021 9.19755 7.18222
1579 1 12.5777 8.77914 3.54387
2072 2 14.1014 10.7781 3.62048
2099 1 14.381 10.9277 6.98659
2098 3 14.1085 8.8215 5.36981
1599 3 15.8425 8.89038 7.00557
1580 2 15.8561 8.90703 3.57155
2100 2 16.0638 10.8045 5.41096
3093 3 17.8843 10.7184 7.118
3597 3 17.8627 8.74738 5.28377
3573 1 17.7338 10.6767 3.73357
1110 3 0.235378 14.4012 7.22086
1582 2 1.88674 12.622 3.46694
2103 1 1.64557 12.5197 7.11134
2102 3 1.55419 14.4553 5.35515
2101 1 0.0676942 12.7055 4.9559
2573 2 0.0333379 14.4747 3.41166
1112 1 6.9949 14.5398 7.41468
1600 2 5.22818 12.4979 7.13241
2104 1 5.31774 14.1892 5.53854
2083 1 3.52375 14.217 3.49885
2601 1 7.08429 12.7968 5.40949
2600 1 3.58097 12.5525 5.43089
2599 2 3.62739 14.3204 7.18685
2577 2 6.98774 14.381 3.43305
2574 1 5.38674 12.6998 3.5769
2604 2 8.6994 14.1579 5.44898
2603 1 10.4393 14.1185 7.09845
2602 2 10.6757 12.515 5.35797
2578 3 8.84573 12.4863 3.37576
3097 2 8.76201 12.4886 7.27537
3072 1 10.7746 14.1672 3.65565
602 2 14.3671 14.4156 6.81726
1603 1 12.4127 12.4076 7.16598
2605 2 14.425 12.6036 5.52857
2581 1 12.4804 12.4616 3.82904
3098 3 12.4299 14.3447 5.56475
3575 3 14.284 14.2911 3.43991
1114 2 17.6774 12.4643 5.07288
1584 1 17.8632 14.6041 3.52242
2582 1 15.9234 12.3715 3.52781
3100 3 16.1839 14.4763 5.16253
3099 1 16.311 12.7405 7.15414
3599 3 17.8812 14.3488 7.00562
582 3 -0.263248 17.8559 3.73053
1605 3 1.96135 17.9048 5.31818
1604 1 1.93768 15.9824 7.06376
3104 2 -0.0183206 16.2003 5.42884
3103 3 -0.0194903 17.8867 7.29694
3576 1 1.80899 16.0254 3.57358
2087 2 3.45355 17.7583 3.34647
2607 1 5.28122 17.609 5.33486
2586 1 6.95601 17.8573 3.61036
3107 3 7.18571 17.9263 7.32305
3106 2 5.29888 16.1416 7.39952
3105 3 3.4721 17.909 7.10773
3602 3 3.51904 15.859 5.24986
3601 3 7.11428 16.243 5.38205
3577 2 5.1414 16.0616 3.44362
1091 1 10.7492 17.6663 3.66473
2107 3 9.16303 16.0276 7.00845
2608 3 8.84891 17.7842 5.50255
3109 2 10.7467 17.8984 7.32664
3603 3 10.8013 15.9323 5.43705
3579 2 8.89531 15.9575 3.77823
41 3 14.3004 16.3237 5.29854
2610 2 12.123 17.8383 5.50517
2609 1 14.2653 17.987 7.22789
2587 1 14.0895 17.9669 3.6822
3604 1 12.3953 15.9523 7.20331
3580 1 12.3207 15.9689 3.75099
583 3 15.9688 16.3169 3.50484
1606 2 17.9298 17.8751 7.10169
2109 1 15.8495 16.0101 7.09975
3112 1 16.13 17.8865 5.44356
3110 2 17.4847 16.1729 5.13498
3582 2 17.7256 18.0096 3.57027
21 1 -0.0580079 1.65482 8.5913
604 2 -0.0827562 0.0606239 10.5676
2110 3 1.77493 1.81473 10.5292
2589 3 1.76519 -0.151721 8.84122
585 1 7.27267 1.71244 9.03014
1092 3 5.44519 -0.031694 9.10119
1608 3 7.16043 0.0893169 10.8045
1607 3 3.52252 -0.0421216 10.6211
2111 1 5.26739 1.85923 10.703
2591 3 3.69155 1.61349 8.80032
1116 2 11.1455 0.0723255 10.8482
2612 2 8.91723 1.6576 10.6623
2592 2 10.732 1.58865 8.89557
3587 3 9.08776 -0.152772 8.92924
587 3 14.4265 1.47915 8.91007
1609 2 14.4083 -0.149002 10.7113
2090 1 12.39 -0.193284 8.93724
2613 1 12.6325 1.84189 10.7026
26 1 16.1475 -0.183801 8.96045
2594 3 18.2402 1.51721 9.08171
3116 2 16.4199 1.42185 10.6699
3115 2 18.211 0.0126638 10.9216
1093 1 1.68425 7.14214 9.05046
2091 3 1.79557 3.43962 8.76227
2615 1 0.169091 3.53442 10.5908
3118 3 -0.0527653 6.92146 10.4254
3117 2 1.84352 5.27844 10.5846
3089 3 -0.00100435 5.22128 8.83954
30 3 5.40104 3.47634 8.86401
45 2 7.09499 7.22818 10.4769
1096 1 3.63894 5.66239 9.07347
2112 2 7.3254 3.47901 10.7008
2616 2 3.59636 3.56274 10.6116
3091 2 7.27398 5.37065 8.96163
3608 1 3.63408 7.20313 10.7839
3607 3 5.58002 5.40891 10.6884
3591 1 5.40582 7.24573 8.63373
46 3 10.4526 7.02406 10.6988
1098 2 10.6147 5.5711 8.706
1591 1 8.93133 3.61019 8.98869
1588 2 8.87166 7.21925 8.88456
2113 3 10.6805 3.44866 10.676
3609 2 8.73788 5.46744 10.6828
32 2 12.487 7.2083 8.96513
34 3 12.2217 3.61073 8.84764
36 1 14.3576 5.06521 8.99084
609 3 14.3308 7.04816 10.5705
3119 1 14.4958 3.37881 10.5238
3611 3 12.5757 5.38777 10.8348
1120 1 17.8701 3.55525 10.6404
1615 3 17.9041 7.33865 10.458
1593 2 17.8077 5.38017 8.8758
2093 1 15.9506 7.30977 8.86669
2595 3 16.3499 3.2561 9.053
3612 1 16.176 5.4638 10.6622
48 3 1.65061 8.95737 10.7473
2095 3 -0.100403 9.06623 8.79981
2596 2 1.69543 10.7625 8.75842
3120 1 0.123744 10.8122 10.772
37 2 3.47661 8.97017 8.72629
49 3 5.4923 8.97958 10.5073
612 2 7.19277 10.7054 10.6107
1105 2 5.11345 10.7575 8.93539
2096 1 7.3023 8.85938 8.92772
3121 2 3.49557 10.6484 10.6952
613 2 8.82096 8.81006 10.8317
598 1 10.6433 8.81277 8.87363
3613 1 10.7142 10.5377 10.6644
3596 1 8.9313 10.6697 8.9248
50 2 14.2912 10.766 10.7307
614 2 12.5005 8.99229 10.765
2598 2 12.5283 10.9901 8.94391
2597 1 14.0798 9.04653 8.97883
51 3 18.0437 10.9951 10.4928
600 3 17.7837 9.07044 8.67579
1122 1 16.1673 9.01139 10.5993
1109 1 16.0924 10.7192 8.87257
616 3 -0.0523966 14.4066 11.0165
601 3 0.208674 12.6291 9.1787
1123 2 1.99142 12.432 10.9908
3094 3 1.98798 14.2586 9.12458
1124 2 5.16182 12.6098 10.9078
1111 1 5.08654 14.1957 9.0931
1619 2 6.75865 14.4169 10.7391
1618 1 3.35745 14.3391 11.099
1601 1 7.0326 12.6546 9.04945
3095 1 3.59705 12.5318 8.70162
617 2 10.921 14.1582 10.6013
1125 2 9.01929 12.5239 10.6527
3096 3 8.84844 14.3526 8.95407
3598 2 10.6248 12.4737 8.96249
1126 2 14.1824 14.01 10.8627
1113 1 12.427 14.1196 8.70523
1620 1 12.3504 12.4677 10.6313
1602 1 14.4376 12.4872 9.11798
1621 3 16.1244 12.5145 10.6543
3126 3 17.8555 14.1647 10.7971
3102 3 16.0821 14.3066 8.9016
3101 3 17.8449 12.7124 8.95192
1623 2 0.185669 17.6628 10.6329
2119 3 1.944 16.0934 10.6786
2606 2 1.78573 18.0085 8.84677
3600 1 0.177258 15.9948 8.97402
40 1 7.05962 16.1689 9.07677
619 2 3.70562 17.9775 10.6286
1127 3 7.12375 17.9794 10.7813
2120 3 5.26643 16.0939 10.7224
2106 2 3.62564 16.1988 9.00405
2105 2 5.57911 17.9389 8.94953
1624 2 10.6453 17.9882 10.8047
2108 2 10.8279 16.0434 9.07391
2625 1 8.81943 15.9102 10.7357
3108 3 9.05901 17.7619 8.89327
603 2 14.3007 16.0694 8.73849
1115 3 12.4955 17.9536 8.96055
2626 2 12.6084 16.0856 10.4841
3620 1 14.3004 17.7995 10.4246
2628 2 15.9515 15.9213 10.8953
2611 3 17.84 16.2132 8.80105
3127 2 18.053 17.6804 10.6613
3111 2 16.0381 17.7942 8.94298
42 3 0.0604476 1.60917 12.3707
2121 3 0.100328 0.0626866 14.2482
2629 2 1.90598 1.82394 14.0969
3113 2 1.96857 0.0515531 12.5258
43 2 3.60648 1.72305 12.2772
605 1 6.87012 1.66942 12.4618
1625 1 6.97589 0.0955262 14.2338
2123 3 3.52303 -0.0863069 14.1034
3128 2 5.16255 1.90006 14.0591
3605 1 5.5139 -0.12402 12.5376
606 2 10.8421 1.61426 12.5673
1627 2 10.8821 0.0288784 14.3135
3129 3 8.83926 1.96258 14.2091
3606 3 8.87684 0.112155 12.5505
1117 3 14.7668 1.57956 12.2829
2632 2 14.7691 0.139107 14.3991
3131 2 12.5805 1.86569 14.1501
3114 3 12.9164 0.0423718 12.6564
44 1 16.0238 -0.117811 12.557
501 2 17.97 0.0889149 14.2619
2614 2 18.0448 1.86973 12.4755
3132 2 16.1093 1.96405 14.1237
607 2 1.73192 3.50014 12.2259
1119 3 1.83888 7.05191 12.3722
1118 3 0.0590305 5.39575 12.5187
2634 1 0.107201 6.74317 14.2879
2633 1 0.118448 3.78717 14.3318
3624 2 1.8495 5.12196 14.2549
60 1 7.24601 7.37314 14.1387
608 3 5.51318 3.49639 12.4109
1612 3 7.23771 5.54319 12.494
1611 2 5.6145 7.1095 12.5208
1610 3 3.6233 5.20976 12.2994
2128 3 6.97027 3.60238 14.2837
2126 3 3.76244 3.71583 14.3349
3136 1 3.75646 6.9388 14.2024
3626 1 5.42681 5.50297 14.1422
1613 3 10.544 5.09147 12.3262
2114 3 8.65625 7.27582 12.4791
3137 1 10.7243 3.58059 14.2676
3629 3 8.75516 5.49411 14.2953
3628 2 10.437 7.249 14.392
3610 1 8.73338 3.67831 12.4652
610 1 12.5748 3.35364 12.6211
1614 1 14.4111 5.52269 12.4988
2617 3 12.4209 6.93153 12.4106
3138 2 14.0964 3.51885 14.2285
3631 1 14.4374 7.12685 14.1991
3630 1 12.6048 5.47727 14.3995
47 2 17.6786 5.34945 12.2631
65 3 16.2268 5.42944 14.1973
1138 2 17.9194 3.79437 14.3062
1121 3 16.1071 3.4831 12.3183
2618 2 16.0537 7.22421 12.344
3140 2 17.6309 7.29353 14.1757
67 2 1.93514 8.68113 14.3068
611 3 1.91602 10.3653 12.719
2115 3 0.209639 8.72093 12.6798
2636 1 -0.111208 10.4685 14.1437
69 3 7.23845 10.7297 14.3726
70 2 5.52505 8.86719 14.4043
1616 2 5.20705 10.5056 12.4895
2116 1 3.49147 8.74744 12.2724
2619 1 7.12485 9.06326 12.2767
3633 2 3.46481 10.6419 14.4924
71 1 8.85823 8.97159 14.2831
2117 2 8.85761 10.6365 12.3361
2620 1 10.8854 8.78727 12.533
3141 3 10.9024 10.7311 14.2222
510 2 12.4715 8.86489 14.4985
1617 1 12.5572 10.6448 12.3083
3122 1 14.2093 8.65645 12.5513
3635 3 14.399 10.5512 14.1319
511 1 16.179 9.09211 14.3096
615 2 17.9111 9.12408 12.3199
1639 1 17.873 10.9451 14.1781
2118 2 15.9945 10.6469 12.4831
513 2 -0.140643 14.1426 14.1203
514 3 1.55533 12.4209 14.098
2621 1 0.0379972 12.5563 12.5353
3123 2 1.79299 14.1542 12.6413
72 2 6.95289 14.3593 14.4582
515 3 5.28606 12.2432 14.1342
516 1 3.46545 14.4631 14.2716
3125 2 7.02694 12.5296 12.4161
3124 3 3.43207 12.3821 12.642
3614 1 5.11906 14.2911 12.5327
73 1 10.6628 14.3159 14.1073
1145 3 8.93615 12.4989 14.2292
3616 3 10.563 12.4957 12.4498
3615 1 8.60301 14.2723 12.7331
1147 3 12.7723 12.577 14.3536
1146 3 14.3853 14.2412 14.4118
2622 3 12.5206 14.2444 12.4881
3617 1 14.4354 12.5481 12.6022
1149 2 16.2064 12.2757 14.51
1622 3 17.7979 12.4853 12.5468
3146 2 17.7069 14.3938 14.155
3618 1 16.0342 14.2241 12.4723
52 3 -0.133376 16.0859 12.5584
518 1 -0.0661328 17.9167 14.0075
1150 3 1.64199 16.0566 14.2059
2623 2 1.81294 17.7646 12.2091
53 3 3.3652 15.9429 12.7047
618 3 7.24101 15.8907 12.537
1151 3 3.33399 17.9157 14.1228
1642 1 5.31011 16.0325 14.0677
2142 3 7.19695 17.7698 14.0387
2624 3 5.15388 17.7906 12.6445
54 3 10.8047 15.7826 12.1202
1643 3 8.94258 16.123 14.2032
2649 1 10.5984 17.7671 14.4608
3619 2 8.97606 18.1152 12.3673
55 1 12.7269 17.6191 12.3562
620 1 14.4172 16.1358 12.7645
1646 3 12.4593 16.0841 14.3032
1644 3 14.4454 17.9 14.2106
56 3 16.2009 17.8943 12.2294
1647 3 16.4301 15.9865 14.2787
2627 1 17.9101 16.1891 12.5832
3644 1 17.8025 18.02 14.3443
57 1 1.91167 0.153322 16.1403
621 3 0.0289942 1.79313 15.9678
1128 2 -0.0642237 -0.1279 17.8822
2122 3 1.79336 1.7951 17.6997
58 3 5.24124 -0.0255682 16.0021
1132 1 7.07571 -0.135526 17.593
1131 3 6.81447 1.68614 16.0331
1130 2 3.58094 0.043637 17.7923
1129 2 3.51003 1.71067 15.8109
2630 2 5.54749 1.84924 17.8843
1133 3 10.6198 1.87294 16.0333
1626 1 10.9576 0.0911249 17.7208
2631 3 9.03639 1.69848 17.8166
3621 3 9.12171 0.242883 16.0142
59 3 12.647 -0.144588 15.8947
1134 3 14.2472 1.85999 15.872
2124 2 14.3927 -0.031949 17.8646
3130 2 12.4879 1.9447 17.4759
502 1 15.9844 -0.170109 16.2417
3133 2 16.2045 1.87957 18.0409
3623 3 17.763 -0.131816 17.8718
3622 2 18.0781 1.91059 15.8886
503 2 1.99903 3.5625 15.9503
504 3 1.93792 6.99782 16.1435
1628 1 -0.000353858 5.3981 16.0534
2125 1 0.0703987 3.53654 18.0437
3134 3 -0.0110584 7.17194 17.7894
3625 3 1.85327 5.40653 17.8462
61 3 5.33882 3.49931 16.0878
505 3 3.39345 7.24564 17.8497
1135 2 6.94287 7.14739 17.8797
1631 3 5.31923 7.13998 15.9241
1630 2 3.52769 5.32727 16.2368
1629 1 6.90633 5.43879 16.1209
2127 3 3.60026 3.28333 17.9282
3135 3 7.17751 3.52753 17.9465
3627 1 5.11264 5.61126 18.0144
62 1 8.97134 5.54357 17.9617
63 2 10.8094 7.20061 17.5763
506 1 8.79732 3.60249 16.04
1632 1 10.677 5.45085 16.0726
2129 2 8.7478 7.02984 16.3652
2635 2 10.5788 3.81311 17.7294
64 1 12.7877 5.49535 17.8249
1137 2 14.2194 7.41001 17.7075
1136 1 12.5935 3.50238 15.9495
2131 2 14.4889 5.37418 16.0238
2130 1 12.5508 7.09906 15.7574
3139 3 14.4119 3.49243 17.6898
66 2 17.9836 5.39565 16.5465
507 2 16.0727 5.69356 17.9261
1140 1 18.0817 3.45509 17.96
1139 3 16.3585 3.76258 16.3346
1634 1 18.3022 7.059 18.0951
1633 1 16.3982 7.21248 16.3279
508 3 1.77838 9.02326 18.1618
1141 1 1.91337 10.5046 16.2381
2132 1 -0.105478 8.72189 15.8308
3632 3 0.0241132 10.8088 17.9012
68 1 3.51563 10.9183 17.9935
509 2 7.04003 10.8955 17.6585
1142 1 5.31754 8.90564 17.835
1635 2 5.23995 10.7595 15.979
2134 3 7.1994 8.78259 16.1741
2133 3 3.76438 8.88887 16.115
1143 3 8.80308 9.07638 17.7876
1636 3 8.97474 10.8361 16.0995
2637 1 10.3969 8.88709 16.0328
3634 1 10.643 10.7896 17.7678
1144 1 12.7048 10.5244 15.9057
1638 3 12.4395 8.95678 17.5315
1637 1 14.2222 10.5937 17.9017
2638 1 14.6514 8.88476 16.1869
512 2 17.7212 9.03447 16.1338
1640 3 16.0344 8.85798 18.0573
2135 1 16.1335 10.9371 16.3242
2639 3 18.1308 10.7748 17.8531
2137 3 -0.0853394 14.1798 17.7853
2136 1 1.70928 12.648 17.8179
2641 3 1.76008 14.2691 15.9759
2640 3 0.045505 12.2053 16.0015
2140 2 6.94721 14.4603 17.6969
2139 2 3.52548 14.3591 17.6022
2138 3 5.23475 12.6879 17.8033
2643 3 5.1161 14.3499 15.957
2642 2 3.50971 12.5013 15.8174
3142 1 7.13588 12.5972 16.2133
2141 2 8.78211 14.3049 15.9766
2645 1 8.70944 12.6366 17.7554
2644 3 10.6929 14.1726 17.9525
3143 3 10.6119 12.7216 15.8565
2647 1 12.4697 14.3795 16.0125
2646 3 12.3821 12.5912 17.7239
3145 3 14.3045 14.0979 17.7761
3144 2 14.17 12.2242 16.0049
517 1 17.8476 14.2895 18.0128
1148 3 17.8633 12.6394 16.1522
3148 1 16.0723 14.1485 16.177
3147 2 16.1461 12.4285 17.9323
2648 2 1.66667 17.7887 16.0602
3150 1 1.8908 16.0072 17.8193
3149 3 -0.00588738 15.934 15.8539
3636 3 0.140149 17.7449 17.749
1641 3 3.60123 17.8477 17.8046
2143 3 7.36177 17.7904 17.7754
3640 3 5.48748 17.9502 15.9369
3639 1 7.24378 16.0558 16.1869
3638 3 5.27507 16.1775 17.6417
3637 2 3.45181 16.3305 15.8454
74 2 9.01198 17.5752 15.9559
519 2 10.408 17.8569 17.93
3642 3 8.84109 15.9659 18.074
3641 1 10.7252 15.6505 16.0282
75 2 12.3244 15.9142 17.7642
76 2 12.4009 17.91 16.1934
1645 2 13.8926 17.9559 18.0574
3643 3 14.1978 15.9449 16.1781
77 2 16.0973 16.2551 17.8858
2144 1 17.8995 16.0395 16.2262
2650 2 17.7733 17.7482 17.8911
3645 3 16.1161 17.9366 16.3421
520 3 -0.0782021 -0.111246 21.6159
78 1 -0.214687 1.56458 19.4198
2145 3 1.61664 1.41375 21.599
3151 2 1.8563 0.0646815 19.4001
521 1 3.67093 -0.00374845 21.3448
80 2 3.67923 1.48059 19.7658
79 3 7.35397 1.70996 19.676
2147 2 5.32284 1.87842 21.3241
2146 3 7.15125 0.128665 21.2743
2651 1 5.58588 -0.0586249 19.7464
81 3 10.6737 1.97471 19.4166
1648 3 10.8065 0.220107 20.9783
2652 1 9.35489 1.71559 21.3345
3152 1 9.21459 -0.126173 19.2706
522 1 14.2152 1.94322 19.4585
1649 2 14.2154 0.232034 21.2919
2653 2 12.2639 2.04692 21.2171
3646 3 12.6055 0.215107 19.4672
82 1 18.0415 -0.31884 21.4121
2654 2 17.8858 1.87277 19.7159
3153 1 16.2137 1.74994 21.4264
3647 1 16.2487 0.24381 19.5352
523 1 0.130481 5.32367 19.5182
84 3 1.87961 7.1846 19.6418
83 3 0.0571244 7.15539 21.3148
1650 2 -0.0804189 3.61561 21.2735
3155 1 1.66402 5.47025 21.4683
3154 1 1.48624 3.45371 19.5943
524 1 3.36413 5.40903 19.7921
525 3 7.26611 5.48131 19.6386
526 2 3.62749 6.97151 21.471
1153 3 7.07052 7.01962 21.4689
1152 2 5.49083 7.2352 19.5962
2655 1 3.34552 3.32736 21.2844
3156 3 7.26816 3.50489 21.3994
3649 2 5.21334 3.71512 19.7253
3648 2 5.354 5.03123 21.5726
86 3 10.7697 7.44434 21.2011
85 1 9.04108 3.68276 19.555
1155 1 10.7772 5.50443 19.611
1154 2 8.99347 7.10076 19.5835
2656 3 10.8126 3.81403 21.2829
3650 2 9.05959 5.45797 21.314
527 2 12.4791 7.17021 19.1321
88 1 12.3763 5.60722 21.38
87 3 12.4544 3.80723 19.4815
1156 1 14.3406 5.47044 19.5962
2148 2 14.3195 7.11042 21.6102
2657 1 14.2357 3.66483 21.2783
528 2 17.9658 3.43971 21.3665
89 1 16.1827 5.5425 21.2741
1157 3 15.8963 7.25654 19.6664
3158 1 18.0596 5.18881 19.8338
3157 1 17.9847 7.20806 21.1698
3651 1 16.0081 3.80268 19.6379
529 2 1.64335 9.02404 21.3653
530 2 1.48029 10.7447 19.7284
1158 1 -0.178122 8.96347 19.4861
3652 3 -0.176446 10.9488 21.4408
531 1 5.47944 8.83706 21.3939
532 3 5.45855 10.4919 19.5535
533 3 6.97838 10.6037 21.3903
1159 2 3.72525 9.04023 19.6559
1651 2 7.32937 8.64188 19.5333
3653 3 3.19374 10.7264 21.2059
90 2 8.77522 10.8651 19.4627
1161 1 8.68881 8.88491 21.6463
1160 2 10.6079 10.5902 21.4373
1652 1 10.4678 9.16108 19.5854
534 3 12.4884 10.7678 19.4665
1162 1 12.5061 8.79157 21.3843
1654 3 14.26 10.844 21.39
1653 2 14.2071 8.88862 20.0884
1656 2 16.348 10.5108 19.4988
1655 3 16.0989 9.0727 21.5178
3159 3 17.8356 10.7648 21.4119
3654 2 18.0096 8.94776 19.6593
1660 3 -0.0320628 14.393 21.2391
1659 1 1.98901 14.3446 19.5228
1658 3 1.7576 12.6271 21.6161
1657 1 -0.0701601 12.6384 19.5882
1163 1 5.24111 14.4215 19.5455
1661 2 3.84803 14.5599 21.362
2151 2 7.07473 12.6668 19.4355
2150 2 5.47846 12.496 21.1934
2149 3 3.58386 12.5805 19.572
3160 1 7.0516 14.0895 21.213
1662 2 8.99042 14.0294 19.7036
2153 2 8.83737 12.2407 21.2304
2152 2 10.7297 12.3542 19.5191
2658 3 10.7495 14.1565 21.217
2155 3 14.3573 12.5827 19.6007
2154 2 12.5996 14.238 19.412
2660 1 14.2589 14.3985 21.3252
2659 2 12.3194 12.4825 21.3806
535 2 17.9096 12.3606 19.6087
1164 3 17.8256 14.4369 21.6016
2156 1 16.2582 14.0777 19.7254
2661 3 16.0282 12.4812 21.5384
1165 2 -0.159384 17.869 21.4876
2157 3 1.80772 17.8847 19.5287
2662 1 -0.0514519 16.0261 19.5245
3161 1 1.78229 16.2193 21.2698
1664 2 7.19805 18.0084 21.4548
1663 2 3.71604 17.8902 21.2883
2664 1 3.66453 16.184 19.3836
2663 1 7.0563 16.174 19.5226
3163 2 5.59779 15.9178 21.4941
3162 1 5.37357 17.87 19.5531
536 1 10.7835 17.5181 21.5668
2665 1 10.6526 15.9673 19.5828
3164 1 8.76936 17.7168 19.825
3655 2 8.74594 16.0094 21.4465
2666 2 12.1712 17.6744 19.6297
3166 2 14.2379 15.741 19.5453
3165 1 14.03 17.501 21.1795
3656 3 12.3422 15.9089 21.3632
92 3 15.9706 16.0541 21.3724
91 2 17.7769 17.7516 21.3397
1166 1 17.8716 16.1597 19.7026
3167 2 15.9842 17.9145 19.7984
93 3 1.48573 1.70749 24.8132
1665 3 2.04688 -0.155183 23.1543
2667 2 -0.149035 -0.234508 25.1798
3168 3 -0.170764 1.5357 23.1805
2158 3 5.37227 0.0261535 23.0954
2670 3 3.68797 -0.174273 25.0101
3170 1 7.45021 1.53094 23.1325
3169 2 3.38074 1.77626 23.0415
3659 2 7.09379 -0.0990087 24.8236
3658 2 5.39328 1.60441 24.8694
537 3 8.8866 1.52099 25.0323
2671 2 8.85774 0.30971 23.2459
3171 3 10.9273 0.0664222 25.0378
3660 3 10.7429 1.92879 23.3194
2673 1 12.4432 -0.0283894 23.046
3663 3 14.2856 1.89532 22.9617
3662 2 14.0387 0.108887 24.968
3661 1 12.5588 2.00298 24.962
539 2 15.805 1.87705 24.7369
1167 2 17.8306 0.0584559 24.9789
1668 1 17.9556 1.77881 23.3796
2160 1 15.9643 -0.0589645 22.9955
99 3 1.85172 5.58325 24.866
98 1 1.70291 7.15513 23.273
97 2 -0.112664 7.19125 25.1108
96 3 -0.145441 5.46613 23.175
3173 2 1.75386 3.65798 22.9007
3172 3 -0.0891599 3.61961 24.8237
540 2 3.74881 6.85573 24.9441
541 3 5.37121 7.07755 23.2486
542 1 7.07821 5.10798 23.0544
543 1 5.31995 5.1559 24.8735
101 3 7.02463 6.90263 24.9773
100 1 3.44775 5.25489 23.0972
2675 2 7.26135 3.51809 24.8158
3175 3 3.12399 3.27289 24.905
3665 3 5.48477 3.31415 23.169
546 3 9.00956 7.06593 23.0896
547 1 8.8634 5.26394 24.8523
102 3 10.6763 5.27899 23.1119
1170 2 10.5659 7.11145 24.9854
3177 1 10.7162 3.51507 24.9378
3666 3 8.97695 3.59848 23.1066
548 1 14.4203 5.37756 23.2663
549 1 12.4227 5.16047 25.1936
105 2 14.2961 3.70251 24.9393
1670 2 12.3861 7.17266 23.2716
3179 3 12.46 3.86171 23.2526
3667 1 14.1359 7.43902 24.8127
1172 3 16.0473 5.57155 25.1763
1672 1 17.7845 3.69647 25.0512
1671 3 16.1901 7.10463 23.0626
2678 3 18.1086 6.99512 25.2451
2677 2 17.7491 5.40943 23.2863
3668 3 16.2064 3.58785 23.1308
550 2 0.0339006 8.96039 23.3729
106 3 2.12164 10.606 23.2664
1175 2 1.82811 8.81872 25.0499
3669 3 0.164274 10.8544 24.8628
108 3 5.16153 10.722 23.0111
1180 2 6.93344 10.3677 24.9039
1178 3 6.95184 8.7724 23.431
1177 2 3.59835 8.78756 23.1431
1176 2 5.17423 8.8237 25.0592
3670 2 3.67964 10.6313 25.0721
551 1 10.5133 10.9784 24.949
552 1 8.83344 10.4759 23.1278
1181 3 8.83604 8.91032 24.9549
1674 1 10.6253 9.07261 23.1789
1182 1 12.2645 10.6926 22.9085
1676 2 12.1438 9.06858 25.0036
1675 1 14.2482 8.83254 22.975
2163 3 14.3498 10.553 24.8528
1183 1 16.1921 9.08938 24.7395
1677 1 16.0763 10.832 23.2541
2165 1 18.0136 10.9421 24.8631
3671 1 18.0537 9.38601 23.2547
555 3 0.0804157 14.3822 25.0234
1184 2 2.12059 14.4447 23.2483
1678 1 2.13663 12.3937 24.7822
2166 1 0.110013 12.6783 23.4126
113 1 7.01387 14.3278 25.2455
1185 2 5.60552 12.3154 24.9766
2170 1 5.30484 14.34 23.3896
2169 2 3.77581 12.4722 23.2144
2168 1 3.44385 14.4133 25.0155
2167 2 7.04522 12.4736 23.1206
1680 2 10.682 14.1912 24.8571
2171 2 10.6447 12.6748 23.0223
2682 1 8.66864 14.2153 22.9263
2681 1 8.69784 12.6274 24.8277
114 2 14.0452 14.1126 24.8362
1681 3 12.6321 12.2541 24.9138
2684 2 14.0849 12.5956 22.9496
2683 1 12.5738 14.3691 23.1725
557 2 17.9482 12.4699 23.286
2173 3 16.0847 14.3847 23.2731
2685 1 16.1 12.4727 25.0164
3183 3 17.8295 14.4082 24.8879
1684 2 1.89142 16.2344 24.864
1683 3 1.76273 17.8415 23.1408
2688 3 -0.0121354 16.0441 23.0527
2687 1 0.262653 17.9364 25.1434
2175 1 7.262 17.6809 25.2243
2174 2 5.38204 18.0797 23.3357
2689 1 3.45159 17.9818 25.0858
3187 2 5.41713 16.2442 25.1756
3186 3 6.94772 16.1993 23.2467
3185 3 3.71388 16.1022 23.4445
1687 3 8.90287 17.7551 23.2277
1686 1 9.24095 15.9945 25.0811
2177 3 10.8819 17.9217 24.9724
3675 3 10.5816 15.7674 23.0995
2178 2 14.3796 17.936 24.8068
2690 2 12.5212 17.6998 23.2542
3188 2 12.3311 16.143 24.8877
3676 2 14.367 16.0454 23.3642
1187 1 17.9193 16.2015 23.0255
1186 3 18.1331 17.8459 24.916
1689 3 16.3314 16.1276 25.0026
3189 3 16.2546 17.7838 23.2073
1188 3 0.0671804 0.0789269 28.6862
2180 1 1.86272 1.85187 28.6828
2668 1 1.67464 -0.0432998 27.014
3657 2 -0.105152 1.90253 26.9586
559 2 7.00924 0.00827458 28.5951
94 3 7.20118 1.58229 26.6554
1189 3 3.53037 -0.059126 28.9634
1666 2 5.48621 -0.222781 26.7301
2181 3 5.27798 1.62906 28.5303
2669 1 3.63002 1.36642 26.6837
560 3 11.0515 -0.0435428 28.694
95 1 8.8491 -0.256608 26.6544
2182 2 9.12635 1.38944 28.6933
2672 2 10.5228 1.87198 26.8555
538 2 14.1965 2.04042 26.9002
1667 1 12.5756 0.0779978 26.7835
2184 1 12.2728 1.92091 28.8381
2183 1 14.1813 0.0310468 28.6019
2159 1 17.6044 1.78609 26.5093
3193 1 15.9143 1.81448 28.5627
3679 1 17.8715 0.132333 28.6291
3664 1 15.9709 0.227974 26.836
1168 3 1.77191 3.26654 26.8427
1669 1 1.9136 7.20938 26.5485
2186 1 0.0469595 6.76748 28.608
2185 1 -0.0448884 3.52498 28.6711
2674 1 0.2133 5.08423 26.759
3194 3 1.93205 5.28607 28.5919
544 3 3.43354 5.1828 26.6115
563 3 7.26468 7.0233 28.5969
1691 3 7.26569 3.26944 28.6104
1690 2 3.66343 3.45595 28.5633
2676 2 7.14828 4.99798 26.7922
3196 1 3.50602 7.09159 28.4572
3195 1 5.31996 5.0299 28.3006
3176 1 5.43806 3.61313 26.474
3174 2 5.38103 6.93837 26.8559
545 3 10.6624 5.41906 26.7203
1171 1 9.05822 3.46811 26.6099
1169 3 8.80681 6.96445 26.8734
2694 2 10.7467 3.6366 28.6104
3197 2 8.62012 5.14538 28.6136
3681 1 10.6202 7.1937 28.4893
104 1 12.4274 3.44435 26.7711
103 1 13.9797 5.38106 26.5836
2695 3 14.1463 3.77851 28.4529
3178 3 12.2417 7.18956 26.666
3684 1 13.9861 7.36058 28.4671
3683 3 12.5392 5.46488 28.5745
622 1 17.8208 3.64339 28.6128
1004 1 17.6594 7.2934 28.7012
1174 3 15.9037 7.33781 26.8834
1173 1 17.7696 5.34783 27.0939
3180 3 15.9981 3.53967 26.8293
3685 1 16.1054 5.47147 28.5624
1673 2 -0.072182 9.11827 26.5874