ITEM: TIMESTEP
5000
ITEM: NUMBER OF ATOMS
4000
ITEM: BOX BOUNDS pp pp pp
-2.5901984217878038e-02 3.5653771984218203e+01
-2.5901984217878038e-02 3.5653771984218203e+01
-2.5901984217878038e-02 3.5653771984218203e+01
ITEM: ATOMS id type x y z
563 2 -0.254876 0.104138 -0.0247219
1064 2 1.91586 2.02886 -0.255039
1563 1 1.84333 0.258612 1.4658
2064 2 0.00608161 1.7899 1.5933
1 3 3.43815 1.94846 1.7387
565 2 7.08017 0.0906736 -0.0689698
2065 1 7.06501 1.89009 1.61034
2565 3 3.84028 0.0703428 -0.272879
3064 2 5.27755 1.92999 0.0154227
3564 3 5.37546 0.136417 1.76024
1066 2 9.00074 2.25926 0.0784403
1564 1 8.86107 0.0842198 1.82341
2 1 10.6026 1.88124 1.64849
567 3 14.3555 -0.0676274 0.058665
2066 1 14.4786 1.96036 1.91021
2567 2 10.8149 0.0947442 0.0154719
3066 1 12.6115 1.85519 0.228285
3565 2 12.6041 0.307021 1.91839
751 3 17.7823 0.0236469 0.189675
1068 2 16.0901 1.8471 -0.161193
1565 3 16.0879 -0.0936369 1.90231
2001 2 17.9182 1.56737 1.81143
3 1 0.0334514 5.29927 1.75433
573 2 0.143534 7.00548 -0.206747
1568 3 1.60432 7.09478 1.74757
2569 3 0.0189304 3.87201 -0.0935019
3068 3 1.81366 5.31035 -0.0270791
3566 3 1.62629 3.38798 1.64244
4 2 7.29578 5.46164 1.72381
569 1 3.57016 3.66316 -0.105957
575 2 7.44328 7.40646 0.255775
1070 3 5.42685 5.66056 0.351067
1566 3 5.11156 3.53352 1.89222
2067 3 3.34962 5.26482 1.89271
2575 1 3.43591 7.15716 -0.197487
2571 1 6.91292 3.67398 0.17955
3569 3 5.48782 7.14076 2.00836
1569 1 8.82615 7.18345 1.94735
3070 3 9.05755 5.43908 0.264009
3567 2 8.80658 3.61588 1.96167
5 3 14.3 5.31816 1.63261
571 1 10.7568 3.98438 0.167427
577 2 14.2883 6.95062 -0.272598
1072 3 12.5291 5.54975 0.0351258
1567 1 12.6952 3.7262 1.99439
2068 3 10.7619 5.56734 1.93902
2577 2 10.7154 7.3164 -0.180729
2573 1 14.3878 3.53544 0.0952648
3570 1 12.6742 7.23436 1.7494
253 3 17.8792 5.39313 1.73171
761 2 17.7195 7.19316 0.0808121
1570 1 16.2427 6.97164 1.71963
2819 1 17.9232 3.6403 0.081662
3072 2 16.1283 5.10564 -0.00867584
3568 2 16.2259 3.72836 1.88221
1074 1 1.72843 9.00049 -0.0184693
2069 2 0.0446711 8.88 1.51366
6 2 3.84018 8.94098 1.86664
2070 3 7.19456 9.13742 1.87841
3074 2 5.47072 8.9419 0.0960252
1076 1 9.08217 8.87987 -0.0214261
7 2 10.7716 8.8628 1.67186
2071 2 14.2832 8.74996 1.84997
3076 1 12.9056 8.78729 -0.0258494
1078 1 15.9017 9.11665 -0.185848
2006 2 17.497 8.95094 1.70217
8 2 -0.24045 12.4307 1.85029
583 3 -0.222461 14.1013 0.00375899
1573 3 1.70466 14.2446 1.81985
2579 2 -0.109646 10.5904 -0.136538
3078 1 1.5716 12.7153 0.0608615
3571 2 1.55006 10.6588 1.69891
9 1 6.97866 12.1947 1.80732
585 1 7.13178 14.3006 0.0854687
579 3 3.55167 10.5329 0.0329396
1080 3 5.15259 12.2754 0.0464528
1571 1 5.34274 10.8365 1.71665
2072 1 3.40199 12.3988 1.71349
2585 3 3.71305 14.2699 -0.0362716
2581 2 6.98724 10.7119 -0.129328
3574 3 4.94292 14.2265 1.91685
1574 2 8.91576 14.3987 1.65535
3080 1 8.63303 12.6264 0.0687847
3572 3 8.89618 10.6849 1.64467
10 3 14.3967 12.7419 1.83996
587 2 14.216 14.4443 -0.00934941
581 3 11.0949 10.537 0.0704836
1082 1 12.3886 12.8299 -0.0156973
1572 3 12.5818 11.0761 1.88052
2073 3 10.7468 12.5547 1.81273
2587 2 10.4679 14.2299 -0.239076
2583 3 14.1859 10.7761 -0.0217222
3575 2 12.3039 14.3724 1.70254
258 1 17.545 12.8117 1.73725
771 2 17.8733 14.2702 0.0269447
1575 1 15.9322 14.468 1.8059
2829 3 17.8387 10.4896 -0.0511037
3082 2 16.0089 12.699 -0.172119
3573 3 15.8206 10.9342 1.75988
626 1 -0.0835769 17.7762 0.0865962
1084 1 1.71894 15.9966 -0.0853587
1688 3 1.54093 18.0252 1.72455
2074 1 -0.132625 15.9848 1.70267
11 2 3.41785 15.966 1.73047
628 3 6.86805 17.9151 -0.332105
2075 2 7.01079 15.9304 1.77049
2690 2 3.81344 18.0094 0.0681073
3084 1 5.51339 15.964 0.203039
3689 1 5.38645 18.067 1.99121
1086 3 8.77082 15.9957 -0.158695
1689 1 8.58097 17.5656 1.82195
12 1 10.7217 15.9962 1.7487
630 2 14.2119 17.781 0.203896
2076 1 14.2074 16.1766 1.9278
2692 3 10.5762 17.8715 -0.0914385
3086 3 12.3997 15.9366 -0.181929
3690 1 12.4304 17.7777 1.93019
876 2 17.9521 17.7292 0.0147158
1088 2 15.9133 16.2253 -0.00481775
1690 1 15.8315 17.8699 1.96369
2011 1 17.9238 16.017 1.91183
13 3 -0.0217437 1.93292 5.26073
588 1 0.0463765 0.0876351 6.94856
1089 3 1.88613 1.79628 7.13917
2564 1 -0.205501 0.0828723 3.49861
3063 3 1.78589 1.71223 3.47203
3576 3 1.74774 0.0683364 5.19748
14 1 7.10571 1.67388 5.43981
564 3 3.65933 0.034161 3.60439
1065 1 5.17613 1.81478 3.81639
1577 2 3.34772 0.0335835 7.14094
1576 3 5.43461 0.0375054 5.37358
2078 3 5.22296 1.88398 7.04326
2077 3 3.59068 1.5499 5.41304
2589 3 7.21561 -0.0251053 7.1507
2566 2 7.28819 0.139159 3.87147
3065 3 8.96343 1.9325 3.87357
3088 3 8.97035 1.73849 7.03011
3577 3 8.82346 0.170856 5.35433
15 1 12.8571 2.06593 7.23757
16 2 14.2981 1.83195 5.4227
566 3 10.9261 0.193286 3.61802
589 3 14.4155 0.0377555 7.0221
1067 1 12.6732 1.94447 3.63661
1578 3 12.5513 -0.0270628 5.68131
2079 3 10.8723 1.87337 5.38676
2568 3 14.2812 0.26313 3.86457
3578 1 10.664 0.100255 6.95729
263 3 17.9896 1.91393 5.52569
776 1 18.0684 -0.212243 6.84642
1090 3 16.1501 1.73542 7.17108
2814 1 17.617 -0.154793 3.57977
3067 3 16.1839 1.71586 3.57872
3579 3 16.0023 0.054326 5.51308
568 2 -0.114646 3.57018 3.36384
1069 2 1.7613 5.37927 3.73185
1580 1 -0.167345 3.4953 7.02525
1579 1 1.82381 3.61567 5.23477
2081 1 1.80283 5.21943 6.94459
2080 1 0.182286 5.40814 5.28809
2591 1 -0.14114 7.08147 7.01341
2574 2 -0.000482393 7.20953 3.35178
3583 3 1.75402 7.20761 5.21149
17 3 3.73155 5.43547 5.42064
570 2 6.93878 3.60886 3.69143
591 2 7.03458 7.17966 7.17604
574 1 3.65215 7.28587 3.3491
1584 1 5.38172 7.02107 5.1423
2082 3 7.11595 5.19463 5.40877
2590 1 3.49352 3.68522 6.94751
2576 3 7.12502 7.4754 3.65805
2570 2 3.32418 3.68243 3.65675
3069 2 5.2266 5.18883 3.59015
3089 1 5.60553 5.35011 7.26985
3584 1 3.45771 7.18412 7.0799
3581 2 7.31011 3.37926 7.03839
3580 2 5.40301 3.65336 5.35308
18 1 8.78694 5.42981 7.01915
1071 2 9.09737 5.36499 3.72017
1581 3 9.0778 3.50103 5.53322
3585 1 8.9708 7.12067 5.21763
19 1 10.7588 5.50467 5.23908
572 1 14.3591 3.67828 3.59514
590 2 11.159 3.51464 7.17832
576 3 10.863 7.2154 3.36137
1091 3 12.43 5.26538 7.30681
1586 3 10.9533 7.27243 7.25373
1585 1 12.6342 7.31695 5.19608
1583 2 14.4328 3.59488 7.15264
2083 2 14.2822 5.19653 5.39379
2592 3 14.3561 7.22823 6.8235
2578 1 14.4168 7.09012 3.47337
2572 3 10.8048 3.57225 3.61341
3071 3 12.6706 5.65784 3.5309
3582 2 12.5778 3.63635 5.20584
756 3 17.7186 3.75531 3.86763
1073 1 16.1041 5.52453 3.71951
1768 3 17.8557 3.7401 7.18966
1582 1 16.1031 3.31059 5.47554
2084 1 16.0762 5.26246 7.27748
2017 3 17.6104 5.44171 5.44115
2841 1 17.8842 7.07059 7.27963
2824 2 17.9192 7.0403 3.59825
3586 2 16.1477 7.41628 5.27207
20 2 0.142977 8.91018 5.49319
3073 2 1.79733 8.93725 3.26567
3090 2 1.74306 8.67471 7.27319
21 2 5.11559 8.88271 7.24585
22 1 7.06566 8.77045 5.62286
1075 3 5.33965 9.08198 3.66566
2085 2 3.60391 8.74154 5.2946
1092 3 9.13873 8.61283 7.08208
3075 3 9.0722 8.95236 3.62115
23 2 14.3027 9.25226 5.52237
1077 2 12.4261 9.14102 3.33802
2087 2 12.343 8.86491 7.16567
2086 3 10.9602 8.75556 5.1641
270 2 17.914 8.87263 5.33366
3091 2 16.1954 8.90127 7.25552
3077 1 16.121 9.09303 3.73984
24 1 2.03085 12.2706 7.17537
593 3 -0.060596 14.1782 7.01293
578 2 -0.0221595 10.5389 3.35813
1079 2 1.69137 12.3393 3.53387
1587 1 1.73431 10.2674 5.2867
2088 3 0.0737741 12.3344 5.35835
2584 1 0.0618413 14.2106 3.72275
3591 3 1.57294 14.1588 5.47307
3587 3 0.0567456 10.6642 7.17551
25 3 3.49247 12.2252 5.32375
592 2 3.3277 10.4905 7.14244
584 2 3.39468 13.9831 3.68221
580 2 7.1479 10.541 3.97781
1093 1 5.29722 12.2839 7.13728
1592 3 3.84062 14.1786 7.00087
1591 2 5.34886 14.0689 5.34045
1589 3 7.31066 10.8343 7.07358
2089 2 7.07885 12.4641 4.91617
2594 2 7.26882 13.88 7.30414
2586 3 6.97926 14.0787 3.35426
2580 2 3.49618 10.6984 3.52407
3079 2 5.09021 12.3269 3.65431
3588 1 5.39926 10.5871 5.68763
1081 1 9.04478 12.5073 3.64454
1588 3 9.05916 10.6393 5.30829
2090 2 9.07205 12.3934 7.23986
3592 3 8.77401 14.0295 5.55538
26 2 10.6564 12.5708 5.44776
594 2 14.3312 14.1647 7.06722
586 2 10.6038 14.2514 3.6286
582 1 14.2157 10.6294 3.49347
1593 3 12.7941 14.0741 5.42683
2091 3 14.5789 12.3997 5.31836
2593 1 10.7078 10.7858 7.16926
2588 3 14.3302 14.4197 3.60837
2582 1 10.6416 10.8415 3.46505
3092 3 12.4363 12.5454 7.17329
3081 1 12.4881 12.6294 3.74211
3593 3 10.6496 14.1386 7.33851
3590 3 14.1402 10.5689 7.12841
3589 3 12.3916 10.8802 5.34321
27 3 15.9761 12.2971 7.07508
781 3 17.8601 14.317 7.2409
766 2 17.8812 10.7866 3.33717
1083 3 16.1534 12.5804 3.47505
1590 1 16.2514 10.6504 5.42599
2025 1 17.92 12.4346 5.23533
2834 2 17.7858 14.47 3.50118
3837 2 17.8447 10.7052 7.13844
3594 2 16.2021 14.0936 5.43506
28 1 -0.116708 16.0128 5.16706
651 2 0.0760622 17.8572 7.23021
1094 2 1.89187 15.8792 6.95774
2689 3 -0.04321 17.7173 3.58135
3083 3 1.60588 15.8986 3.39653
3701 2 2.2359 17.6925 5.38922
29 1 7.10942 15.6209 5.67771
627 1 3.56039 17.4955 3.39915
1085 3 5.24924 15.9851 3.41774
1702 1 3.67967 17.629 7.46358
1701 2 4.96904 17.573 5.45473
2093 1 5.37062 15.9345 7.22309
2092 3 3.55004 15.8214 5.1148
2714 2 6.93956 17.89 6.98145
2691 2 7.1696 17.7575 3.56695
3093 3 8.71388 15.8715 7.20406
3085 3 8.93863 16.037 3.71944
3702 2 8.70466 17.5114 5.45002
30 2 12.4468 15.7521 7.37379
31 1 14.2785 16.2558 5.33855
652 2 14.2087 17.6012 7.33113
629 1 10.6133 17.642 3.57285
1087 2 12.499 15.8305 3.72749
1703 3 12.2823 17.5221 5.66622
2094 3 10.7531 15.6158 5.6165
2693 2 14.1027 18.0254 3.67694
3703 3 10.5599 17.5862 7.32721
278 2 17.7733 15.905 5.44139
901 1 17.8519 17.7618 7.12449
1095 3 16.1705 15.8842 7.13141
2876 1 17.7928 17.9444 3.63956
3087 3 16.0143 16.0791 3.6104
3704 3 16.1048 17.8725 5.41986
1594 2 1.69575 0.0011548 8.90881
2095 1 -0.0964222 1.87863 8.68917
33 3 7.39047 1.89785 8.96088
2596 2 5.41933 -0.0787829 8.61029
3095 2 3.36513 2.02117 8.84366
3596 2 8.88627 -0.16421 8.98838
596 1 12.5622 0.049814 8.69504
1097 2 10.7546 1.74382 8.77512
2098 3 14.3719 1.71186 9.11555
1597 1 16.2489 0.0605639 8.87465
2032 1 17.9378 1.65355 8.93061
2599 2 1.55925 3.6067 8.81354
3098 3 -0.206302 5.31147 8.67175
3602 3 1.56969 6.90405 8.73695
36 1 3.72048 5.30438 8.66838
602 3 5.55661 7.09589 8.86271
1100 3 7.32246 5.36518 8.95222
3599 3 5.4503 3.48609 8.87171
599 1 8.9037 3.64609 8.82203
1603 3 9.0525 7.18725 8.93549
1600 1 12.715 3.71445 9.09722
2101 2 10.8064 5.36912 8.95446
2605 1 12.6815 7.09694 8.93315
3101 2 14.4731 5.43631 8.7788
2602 3 16.2162 3.36026 9.02881
3348 3 17.762 5.34313 9.03442
3605 2 16.2724 7.08251 8.94097
39 3 -0.0839811 8.80531 8.78367
1103 1 3.4426 8.81919 8.87683
2104 1 7.24373 8.90988 8.77754
42 1 14.2481 8.78295 8.99745
3104 3 10.9655 8.91349 8.96658
289 2 17.7725 9.16899 9.05129
605 2 1.85605 10.7107 8.96422
1106 3 -0.0835853 12.3248 9.01638
1609 2 1.63663 13.9114 8.90228
1606 2 5.41685 10.6397 9.02672
2107 2 3.78644 12.3823 8.61433
2611 2 5.5272 14.2628 8.9593
3107 3 7.1692 12.4673 9.05018
2608 3 8.97755 10.5714 8.94873
3611 1 8.81687 14.0884 9.16622
45 2 10.9013 12.5476 8.93094
611 2 12.6735 14.0678 9.07742
1109 2 14.4721 12.6197 9.09596
3608 3 12.3262 10.8616 8.78918
608 1 15.9697 10.6588 9.04462
1293 2 17.8861 12.4681 8.90314
1612 1 16.1547 14.226 9.03745
1719 2 1.61741 17.6615 9.06367
2110 3 -0.134208 15.863 8.91181
48 2 7.09041 16.0862 8.88689
2721 2 5.29949 17.85 8.91871
3110 2 3.41299 15.7879 8.76834
3721 2 8.76592 17.6872 9.00914
659 1 12.4176 17.7522 8.95367
1112 2 10.6159 15.7208 8.93099
2113 3 14.4646 15.9708 8.87559
1722 1 16.1058 17.8297 8.9259
2047 2 17.955 15.9718 9.06199
32 1 -0.0741806 1.72162 12.5634
613 1 0.0838776 -0.0951281 14.1866
1114 2 1.74859 1.64071 14.0789
2595 3 -0.185303 -0.186867 10.843
3094 2 1.49743 1.50176 10.3929
3595 3 1.92854 -0.00574493 12.319
34 2 7.06203 1.81316 12.4278
614 1 7.08069 -0.0354993 14.2778
595 2 3.46325 -0.0302861 10.4458
1096 3 5.25692 1.72689 10.3017
1595 3 5.20816 0.00427722 12.4337
2096 1 3.7798 1.92913 12.4323
2614 1 3.62004 -0.142566 14.1157
2597 3 7.19467 -0.0549349 10.6518
3113 2 5.42952 1.43039 14.3979
1115 1 8.92767 1.81106 14.2894
3096 1 8.97104 1.92283 10.6979
3597 2 8.89144 0.277968 12.4765
35 1 13.9796 1.68788 12.5
615 1 14.1266 -0.173691 14.196
597 2 10.6666 0.178832 10.6102
1098 3 12.5162 1.66979 10.7271
1596 2 12.2957 0.0321224 12.5161
2097 1 10.6346 1.89123 12.426
2615 1 10.5831 0.0874395 14.2183
2598 3 14.4642 -0.111678 10.6437
3114 3 12.2379 1.78513 14.2763
282 1 17.798 1.64828 12.8451
801 1 18.037 -0.340309 14.2857
1116 3 15.9836 1.87846 14.4765
2845 3 18.1134 -0.149815 10.8906
3097 3 16.2395 1.57583 10.6807
3598 3 15.9135 -0.0603183 12.6008
618 3 -0.00514724 6.88343 14.2603
598 3 -0.182376 3.49542 10.6923
1099 1 1.60539 5.27853 10.4822
1598 3 1.8087 3.27362 12.4016
2099 1 -0.0244568 5.43577 12.3144
2616 3 0.0491685 3.40143 14.3311
2603 2 -0.100971 7.06413 10.3431
3115 1 1.80977 5.25978 14.3196
3603 2 1.66963 6.93967 12.2367
37 3 3.35074 5.29861 12.4159
619 3 7.10855 7.02255 14.2162
616 3 3.6829 3.32795 14.2017
603 2 3.49775 6.86872 10.4894
600 1 7.22292 3.63242 10.7233
1117 3 5.37359 5.32433 14.1392
1602 1 5.07347 7.03645 12.2527
2100 3 7.08095 5.21223 12.4708
2619 3 3.68617 6.9773 14.2462
2617 1 7.15328 3.53922 14.3217
2604 3 7.36858 7.10582 10.724
2600 2 3.47049 3.5716 10.5894
3099 3 5.43562 5.32044 10.547
3600 2 5.42506 3.57328 12.5772
1101 2 8.97859 5.39651 10.7723
1599 2 8.77459 3.56318 12.3132
3116 1 8.92244 5.27183 14.2741
3604 1 8.97707 6.83084 12.7916
38 2 10.8058 5.44155 12.3947
620 3 14.5916 6.95822 14.228
617 1 10.3992 3.59682 14.4126
604 3 10.7516 7.21035 10.5797
601 1 14.292 3.30179 10.8467
1118 1 12.5826 5.5467 14.3784
1604 3 12.3943 7.22927 12.3313
2102 3 14.4318 5.30816 12.5694
2620 2 10.7044 6.90874 14.4647
2618 3 14.2606 3.56756 14.1249
2606 2 14.4319 7.12925 10.873
2601 2 10.5665 3.5816 10.4353
3100 1 12.65 5.32576 10.8848
3601 3 12.5558 3.97799 12.7356
806 1 17.8986 7.09312 14.3603
786 3 17.9618 3.54874 10.844
1102 1 16.0714 5.1518 10.7285
1601 3 16.0593 3.51009 12.6489
2036 2 17.9424 5.23107 12.4558
2866 3 17.7186 3.458 14.4351
2853 1 17.8576 7.23245 10.672
3117 1 15.9698 5.18296 14.3199
3606 2 16.43 7.1974 12.6254
40 1 0.0947623 8.59371 12.1879
1119 1 1.79259 8.73328 14.305
3102 1 1.72589 8.90449 10.4346
41 3 6.99802 8.90817 12.3831
1104 1 5.27339 8.69597 10.8111
2103 1 3.36702 8.72546 12.4774
3118 3 5.24715 8.85089 14.1352
1120 3 8.86555 8.92929 14.1704
3103 3 8.93903 9.01283 10.8245
43 3 14.4034 8.82698 12.5694
1105 3 12.6201 8.96126 10.6991
2105 3 10.7479 8.87388 12.4903
3119 1 12.6126 8.70451 14.2668
290 3 17.8576 8.99314 12.3943
1121 1 16.194 8.9535 14.2192
3105 2 16.0371 8.87524 10.8007
623 2 -0.222714 13.8509 14.3168
606 3 -0.0125965 10.6074 10.6393
1107 1 1.86627 12.4479 10.5184
1605 3 1.80024 10.8771 12.3098
2106 2 -0.0629527 12.2065 12.4305
2621 2 0.241855 10.6754 14.0933
2610 1 -0.281829 13.9508 10.848
3120 1 1.84528 12.4543 14.2947
3610 3 1.64062 14.1866 12.5244
44 3 3.66268 12.441 12.6476
624 3 7.10465 14.1982 14.2713
621 2 3.48756 10.6662 14.0901
610 1 3.69706 14.1898 10.8419
607 1 7.13512 10.7573 10.6276
1122 2 5.36176 12.5527 14.0154
1610 2 5.3692 14.1658 12.3618
2108 1 7.06448 12.4864 12.3623
2624 2 3.71161 14.2679 14.0779
2622 1 7.10724 10.6281 14.0932
2612 3 7.17749 14.3668 10.8197
2607 1 3.5367 10.7918 10.8107
3106 3 5.37967 12.49 10.4447
3607 2 5.29196 10.6443 12.3179
1108 3 8.95642 12.43 10.7198
1607 2 8.98366 10.9039 12.4952
3121 2 8.75129 12.3988 14.3114
3612 1 9.0538 14.0624 12.38
46 2 10.7163 12.4523 12.596
625 1 14.5635 14.2819 14.0061
622 1 10.5326 10.6636 14.2518
612 1 10.8381 14.3093 10.9493
609 3 14.1451 10.6611 10.6629
1123 1 12.4024 12.5845 14.3062
1611 1 12.5065 14.2219 12.7607
2109 2 14.3237 12.5187 12.4618
2625 1 10.5052 14.2914 14.26
2623 2 14.1782 10.6837 14.302
2613 2 14.0928 14.2735 10.7294
2609 1 10.6673 10.8205 10.6858
3108 1 12.6788 12.4907 10.9373
3609 3 12.4072 10.6536 12.533
811 3 17.2863 14.4763 14.2381
794 1 17.7506 10.7309 10.7429
1110 3 16.111 12.56 10.8383
1608 1 15.9641 10.9536 12.5511
2043 3 17.8194 12.5506 12.6173
2871 1 17.711 10.8025 14.4871
2860 3 17.7609 14.2306 10.7435
3122 2 16.2454 12.4025 14.3158
3613 1 16.1552 14.4821 12.4046
47 1 -0.0311619 15.9346 12.1949
676 1 0.127675 17.5856 14.3254
1124 1 1.70141 15.7695 14.3796
2720 1 -0.129165 17.9041 10.6326
3109 1 1.59417 15.889 10.4665
3720 3 1.73658 17.5483 12.3452
49 1 6.98156 15.9823 12.3703
677 2 6.81475 17.8532 14.1395
658 1 3.62666 17.3918 10.6512
1111 1 5.24768 15.923 10.6349
1720 2 4.89358 17.5617 12.2957
2111 3 3.3323 15.863 12.5802
2739 3 3.53655 17.7266 14.2589
2722 1 6.98123 17.7181 10.768
3123 1 5.43843 16.0744 14.2336
1125 1 8.78741 16.0129 14.2865
3111 2 8.99069 15.8808 10.5742
3722 1 8.6182 17.6921 12.5113
50 2 14.0652 16.2742 12.4706
678 3 14.1358 18.068 14.0769
660 3 10.6525 17.8409 10.6021
1113 2 12.3462 16.1866 10.5076
1721 2 12.3492 17.8795 12.2757
2112 2 10.5937 16.1001 12.4322
2740 2 10.4666 18.0819 14.0308
2723 3 14.2477 17.9303 10.3946
3124 1 12.1416 16.0622 14.154
297 3 17.9892 16.3125 12.2176
926 3 17.5495 17.873 14.1577
1126 1 15.7661 16.2951 14.2628
2907 2 17.7744 18.0735 10.7168
3112 2 16.0994 15.9565 10.4134
3723 3 15.7156 17.8811 12.4078
1613 3 1.93756 0.0501441 15.9155
2114 1 0.0648043 1.70411 15.9675
2626 2 -0.16277 -0.0421234 17.7453
3125 2 1.8415 1.57436 17.6757
51 2 3.79922 1.794 15.7641
502 2 3.59211 -0.304853 17.7417
1128 1 5.40796 1.76736 17.6805
2115 2 7.09246 1.81842 16.0296
2628 1 7.15759 -0.0720185 17.7497
3614 2 5.44884 0.0137354 16.0405
1614 2 8.84912 -0.130604 15.9969
3127 1 8.91589 1.73672 17.9203
52 2 10.6132 1.90416 16.2677
504 1 10.5049 -0.103468 17.7032
1130 1 12.427 1.6636 17.8143
2116 2 14.1057 1.70896 16.1987
2630 3 14.323 -0.133502 17.8834
3615 2 12.6348 -0.147569 16.0488
1615 2 16.1178 -0.323164 15.9382
2051 1 17.7192 1.64404 15.9151
2501 3 17.7734 -0.0488351 17.73
3129 2 16.0398 1.56884 17.7969
53 2 -0.142946 5.08927 16.105
506 3 -0.0026484 3.4595 17.7496
1132 1 1.86562 5.4342 17.8827
1618 2 1.83714 7.0359 15.9347
2636 3 0.0298816 6.96905 17.7762
3616 2 1.87929 3.38063 16.1111
54 2 6.91172 5.51657 16.1403
508 2 6.93283 3.59633 18.0278
512 3 3.65021 7.0979 17.8377
1616 1 5.43401 3.54228 16.1545
2117 3 3.42453 5.29079 16.1578
2638 2 7.05322 7.06226 17.7945
2632 1 3.21029 3.62565 17.6798
3131 2 5.20392 5.05404 17.8166
3619 1 5.16618 7.07056 15.7995
1134 2 8.74097 5.57347 17.8314
1619 1 9.05711 7.21013 15.9756
3617 2 8.81509 3.5355 16.1808
55 3 14.2036 5.1449 16.2532
510 1 14.187 3.45412 18.099
514 2 10.6552 7.04747 17.8148
1617 3 12.3797 3.5884 16.0677
2118 3 10.7025 5.27335 16.1459
2640 1 14.1684 7.20936 17.8131
2634 1 10.7791 3.61457 18.2099
3133 3 12.4122 5.26643 17.8583
3620 3 12.4218 7.15269 16.1629
303 2 17.7257 5.3969 16.1853
819 1 17.9582 3.52289 17.7059
1136 2 16.1803 5.4276 17.8952
1620 1 15.9548 6.95197 16.1549
2511 1 17.7993 7.16135 17.7521
3618 3 15.9163 3.60761 16.268
2119 1 0.353051 8.98718 15.8161
3135 3 1.74643 8.78395 17.6784
56 1 3.47434 8.92215 15.9565
1138 3 5.40577 8.86947 17.7922
2120 1 6.77114 8.89104 15.9753
3137 2 8.95038 8.79497 17.7635
57 2 10.7703 8.97718 15.7454
1140 1 12.3462 8.91039 17.9039
2121 2 14.2693 8.852 16.0012
2056 2 17.8077 8.86858 16.1222
3139 1 15.872 8.90918 17.7479
58 3 0.0514552 12.2315 16.3012
516 3 -0.0280292 10.3818 17.8029
1142 1 1.77069 12.2831 17.7217
1623 2 1.67464 14.2182 15.844
2646 3 0.0135019 14.0664 17.7903
3621 1 1.82611 10.6854 16.0969
59 1 6.79926 12.4067 15.9875
518 2 7.03382 10.5321 17.6015
522 2 3.48768 14.0963 17.6904
1621 2 5.16424 10.6183 15.7992
2122 1 3.50312 12.5446 15.8892
2648 1 7.00043 14.183 17.7708
2642 2 3.61693 10.4367 17.8469
3141 2 5.35396 12.4393 17.6937
3624 2 5.34975 14.4021 16.0991
1144 2 8.74442 12.54 17.7679
1624 2 8.68807 14.1635 16.0487
3622 2 8.85915 10.5959 16.008
60 2 14.4689 12.485 15.9075
520 2 14.0077 10.8134 17.5583
524 1 10.6391 14.3725 17.8379
1622 3 12.4755 10.5673 15.8983
2123 1 10.506 12.4455 16.1329
2650 1 13.9125 14.2262 17.63
2644 2 10.5243 10.6525 17.7699
3143 2 12.2773 12.3349 17.4258
3625 1 12.4698 14.3681 15.718
308 3 17.7459 12.4698 16.4169
829 1 17.8607 10.6468 17.6794
1146 1 15.823 12.342 17.9286
1625 3 15.9055 14.5029 16.1288
2521 2 18.1296 14.2978 17.7021
3623 1 15.9692 10.691 16.0384
1738 2 1.72289 17.5413 16.0414
2124 2 -0.181765 16.0154 16.0165
2751 1 -0.0967247 17.712 17.9204
3145 2 1.73962 16.0366 17.9148
61 1 3.60706 16.0857 16.1679
690 2 3.50815 17.8062 17.9123
1148 2 5.32323 16.0215 17.8107
2125 2 7.14103 16.0637 15.9465
2753 1 7.11325 17.8531 17.9303
3739 3 5.36106 17.7586 16.0701
1739 2 8.77177 17.8278 15.7453
3147 1 8.82729 16.0777 17.8856
62 3 10.5912 16.2171 15.9106
692 1 10.6847 18.0682 17.8147
1150 2 12.3233 16.0866 17.9592
2126 2 14.061 16.0194 16.0794
2755 1 14.3473 17.6732 17.7059
3740 2 12.2872 17.7355 15.8172
1740 2 15.9626 17.7822 15.8818
2061 2 17.7752 16.112 15.9366
2938 1 17.6392 17.9706 17.7655
3149 2 15.9711 16.1203 17.8354
501 2 -0.0602757 -0.198567 21.2177
63 1 -0.0366924 1.677 19.5059
1127 3 1.76708 1.83412 21.23
3626 3 1.83681 -0.182215 19.6828
503 3 6.85569 0.207766 21.2915
64 1 7.16268 1.80437 19.5922
1626 3 5.15117 -0.11327 19.4177
2127 3 3.45808 1.91339 19.4724
2627 3 3.55672 -0.196658 21.3065
3126 3 5.01956 1.88507 21.2676
1129 1 8.75825 1.81733 21.188
3627 2 8.7934 -0.347788 19.4685
505 3 13.9201 -0.179263 21.2592
65 2 14.527 1.6104 19.5701
1627 2 12.2829 -0.149752 19.5145
2128 1 10.6575 1.54446 19.5864
2629 1 10.6693 -0.258682 21.0847
3128 1 12.5813 1.81277 21.3303
814 1 17.8503 -0.184037 21.388
313 1 17.6065 1.34733 19.5919
1131 2 15.9129 1.56195 21.4222
3628 2 16.0324 -0.358425 19.8779
511 1 -0.215027 6.91417 21.6029
1628 2 1.67472 3.52569 19.66
2129 3 -0.162263 5.07649 19.7329
2631 1 -0.228162 3.31708 21.5303
3130 2 1.74342 5.22084 21.4334
3631 1 1.64555 7.11806 19.7239
507 1 3.52618 3.88872 21.2958
513 3 7.16766 6.95913 21.3273
66 3 3.58862 5.50875 19.5633
1133 3 5.50523 5.50134 21.385
1631 1 5.43564 7.27737 19.5424
2130 1 6.75742 5.28244 19.5244
2637 3 3.50156 7.12401 21.5174
2633 3 6.92811 3.39285 21.2406
3629 3 5.13572 3.53269 19.5482
1629 2 8.78183 3.85981 19.6359
3132 3 8.97605 5.30725 21.6693
3632 1 8.85445 7.02228 19.5125
509 3 10.6883 3.47514 21.2206
515 2 14.149 6.86118 21.4665
67 3 10.655 5.47761 19.6544
1135 1 12.4442 5.28399 21.3534
1632 2 12.289 7.00241 19.6805
2131 3 14.3874 5.13931 19.5752
2639 3 10.5981 6.91462 21.6058
2635 3 14.1623 3.6423 21.3903
3630 2 12.5604 3.65608 19.7464
824 1 17.6927 6.97908 21.3482
1630 1 16.0693 3.43373 19.4017
2316 2 18.0764 5.47358 19.3397
2506 3 17.7532 3.35766 21.2502
3134 3 16.0712 5.18488 21.553
3633 1 16.1782 6.94372 19.7225
68 1 0.00239319 8.88114 19.5215
1137 3 1.39729 8.86988 21.4394
69 2 7.18205 8.73127 19.4147
2132 2 3.42858 8.8825 19.7978
3136 2 5.39933 8.82145 21.4383
1139 3 8.94952 8.98632 21.3148
70 3 13.9903 8.69373 19.7346
2133 2 10.7042 8.78904 19.5771
3138 1 12.2565 8.8167 21.3898
318 3 17.7739 8.92225 19.576
1141 2 15.922 9.01293 21.65
521 1 0.0747833 14.2852 21.4811
1633 3 1.71047 10.8246 19.5617
2134 3 -0.211447 12.5596 19.4973
2641 1 -0.300918 10.8048 21.463
3140 2 1.51259 12.2755 21.3261
3636 1 1.74894 14.2776 19.5518
517 2 3.48769 10.644 21.326
523 3 6.99332 14.4499 21.277
71 1 3.61739 12.4504 19.6695
1143 2 5.40318 12.504 21.3024
1636 2 5.14661 14.1122 19.639
2135 1 6.84278 12.3651 19.3168
2647 1 3.46445 14.1508 21.2769
2643 1 7.14154 10.4191 21.4039
3634 2 5.28888 10.678 19.6786
1634 2 8.72076 10.8567 19.3676
3142 2 8.83387 12.5652 21.4312
3637 2 8.83158 14.2476 19.7382
519 1 10.4641 10.7844 21.3799
525 3 14.2993 14.3884 21.1415
72 1 10.6371 12.3552 19.6292
1145 2 12.4711 12.5114 21.3405
1637 1 12.3701 14.3229 19.5389
2136 1 13.9218 12.2991 19.4885
2649 2 10.6675 14.1327 21.2496
2645 2 14.1171 10.7372 21.3762
3635 3 12.5684 10.5893 19.6463
834 2 17.7311 14.3776 21.3329
1635 3 15.7286 10.3669 19.6246
2321 1 17.791 12.4049 19.5489
2516 1 18.0027 10.6889 21.3132
3144 3 16.004 12.4207 21.1554
3638 2 15.8456 14.2181 19.3542
689 1 0.118933 17.7116 21.4199
73 2 0.0287582 15.8271 19.5459
1147 3 1.67191 15.9459 21.4083
3751 1 1.68779 17.7208 19.4505
691 2 7.06728 17.7839 21.2888
74 3 7.03916 16.1167 19.5292
1501 2 5.27283 17.6197 19.5372
2137 3 3.47557 16.018 19.6516
2752 3 3.61078 18.0233 21.4239
3146 1 5.13294 16.1105 21.3163
1149 1 8.81272 16.113 21.3544
3752 1 8.82389 17.9994 19.5903
693 1 14.1716 17.7056 21.2245
75 2 14.1512 16.0879 19.3161
1502 1 12.2118 17.701 19.6627
2138 3 10.3346 16.0798 19.5735
2754 3 10.6822 17.8048 21.4523
3148 3 12.3535 15.9641 21.4787
939 3 18.0286 17.8838 21.19
323 1 17.8473 15.9943 19.474
1151 2 16.1716 16.2637 21.064
3753 3 15.8939 17.9424 19.4284
1638 3 1.74416 0.15256 23.0894
2139 1 -0.100315 1.62941 23.2775
2651 2 -0.0869678 0.0255835 24.8481
3150 2 1.89403 1.58506 24.8455
526 1 7.19973 0.119929 25.1287
77 1 5.232 1.63272 24.7103
76 2 3.51269 1.65853 23.1299
2140 3 7.23584 1.89353 23.1499
3640 2 3.505 0.0050756 24.821
3639 3 5.22602 0.0501595 23.0514
1152 1 9.07853 1.96439 24.8379
1639 3 8.70334 0.121327 23.026
78 1 10.9824 1.52927 23.1117
1640 2 10.5537 -0.0287616 24.8884
2142 1 14.4329 1.65698 22.9583
2141 3 12.6724 1.74242 24.9808
2652 1 14.3799 -0.0713482 25.1819
3641 3 12.5407 -0.125354 23.3147
1641 2 15.8561 -0.0929706 23.2127
2326 1 17.8411 1.8792 22.9861
2526 2 17.8311 -0.135065 24.9178
3151 1 16.2857 1.78084 24.8343
528 3 0.0249826 6.79777 24.8046
80 1 1.91571 5.20972 25.01
79 2 -0.27843 5.29427 23.1375
1645 1 1.67443 6.79817 23.1122
3643 3 -0.0907846 3.40614 25.0226
3642 3 1.77603 3.34537 23.1985
527 3 3.46264 3.68331 24.9022
81 1 7.02317 5.44936 23.0718
1153 1 5.35306 5.28585 24.9464
1646 3 3.64579 6.9392 24.7125
1643 2 7.29685 3.40446 25.1016
1642 3 5.4531 3.57797 23.0154
2143 3 3.59419 5.30503 22.8898
2654 2 7.16582 7.12681 24.9328
3647 3 5.38317 7.24423 23.0925
1647 1 8.7629 7.40737 23.2757
2144 1 9.01234 5.33155 24.9984
3644 3 9.05306 3.45967 22.9216
529 3 14.1999 7.27401 24.4723
82 1 14.3547 5.21319 23.1812
1644 2 12.4015 3.61737 23.1246
2145 1 10.6172 5.40087 23.157
2653 2 10.8664 3.38633 24.9237
3152 2 12.5526 5.44209 24.7393
3649 3 10.6294 7.00833 24.8627
3648 1 12.2491 7.20794 23.2047
3646 3 14.1996 3.59235 24.6766
841 2 17.8771 6.77661 24.7591
329 3 18.0542 5.35092 22.8979
83 1 16.1164 5.08435 24.9128
1648 2 16.286 7.14419 23.0442
3893 2 18.056 3.43625 24.9714
3645 3 16.2483 3.5137 23.2496
1154 2 2.05899 8.8867 24.8109
2146 2 -0.0709642 8.89747 23.0667
84 1 3.5967 8.9364 23.0251
2148 2 7.22989 8.95228 23.2078
2147 3 5.30977 8.81677 24.7636
3153 3 9.03052 9.26087 25.0072
86 3 12.4914 9.25454 24.8751
85 3 10.4994 9.01598 23.2587
2149 3 14.0792 9.16038 22.9901
1155 1 16.0855 8.76236 24.8121
2333 3 17.7758 8.85284 23.0816
87 3 0.112633 12.5785 23.1661
1653 2 1.68068 14.452 23.2994
1649 3 0.0895159 10.8373 25.054
2150 2 1.78613 12.6428 24.9082
2656 1 -0.0888115 14.33 24.913
3650 2 1.77941 10.6941 23.0722
531 3 7.15498 14.1229 24.9509
88 3 6.8512 12.447 23.0946
1650 2 5.20886 10.6882 23.112
2151 2 3.39281 12.624 23.0595
2655 2 3.41784 10.6863 24.6751
3154 1 5.17681 12.6167 24.8965
3655 1 3.51209 14.4213 24.9694
3654 3 5.29794 14.2472 22.8904
3652 3 7.09298 10.6872 24.8138
89 1 8.84337 12.4553 24.8624
1654 1 9.0068 14.3142 22.9497
3651 3 8.76945 10.6962 23.1016
530 1 10.7995 11.0248 24.9758
90 2 14.3157 12.5427 22.8495
1156 3 12.8392 12.7443 24.6286
1655 3 10.6237 14.3228 24.9655
1652 1 14.3982 10.7277 24.9261
1651 2 12.2923 10.6878 23.2572
2152 3 10.6066 12.5078 23.1127
2657 2 14.3924 14.283 24.9182
3656 1 12.4803 14.3047 23.0283
337 1 17.7201 12.4597 23.0066
1837 3 17.8174 10.8368 24.9759
1656 1 16.0263 14.125 22.9373
2153 2 16.0051 12.5878 24.8907
2531 2 17.7777 14.2543 24.7341
3653 2 16.0681 10.655 23.1469
1513 2 1.66167 17.7335 23.0581
2154 2 -0.118481 16.0713 23.2071
2776 1 0.00729491 18.01 24.8931
3155 1 1.50995 16.2024 24.9187
714 2 6.81022 17.8489 24.906
92 1 5.32126 15.9011 24.6355
91 2 3.45788 15.9213 23.2678
2155 3 7.06589 16.0511 23.0314
3765 2 3.77475 17.7613 25.0076
3764 3 5.22446 17.9479 23.0063
1157 1 8.90978 15.9654 24.9851
1514 1 8.87576 17.7326 23.1732
93 2 10.4483 16.0536 23.2425
1515 3 10.5491 17.8705 24.9231
2157 2 14.0709 16.0729 23.0174
2156 2 12.3088 16.0816 24.7882
2777 1 14.2462 17.6694 24.8633
3766 1 12.3668 17.998 23.1373
1516 1 16.0606 17.8606 23.0687
2341 3 17.7668 16.1142 23.0007
2963 1 17.8567 18.0909 24.9153
3156 3 16.2754 16.098 24.8392
94 1 0.00085339 1.68351 26.5803
3657 1 1.44038 0.0428457 26.3512
533 1 5.67757 0.289719 26.776
1159 3 3.4962 1.76246 26.7789
2159 1 7.3171 1.66577 26.8006
1658 3 8.85675 -0.228144 26.8322
97 3 14.307 1.64163 26.8007
2659 3 12.6317 0.119693 26.9476
3158 1 10.5881 1.70791 26.7704
344 1 17.9518 1.71961 26.7525
3660 3 15.9458 -0.0876753 26.9744
536 2 1.67741 3.41115 26.6801
1162 2 -0.223087 5.10184 26.9538
1664 3 1.89443 6.99859 26.5006
1661 3 5.34369 3.49582 26.4155
2162 2 3.54356 5.3428 26.6917
2665 3 5.37048 7.16924 26.7209
3161 1 7.1644 5.47489 26.4972
2662 3 9.03702 3.42085 26.8505
3666 3 8.88843 7.12106 26.6487
542 2 12.698 6.97636 26.4637
100 3 10.725 5.18375 26.62
1165 1 14.3528 5.24735 26.5171
3663 2 12.6773 3.56641 26.8607
539 2 16.0532 3.32901 26.6441
1349 1 17.8953 5.42286 26.552
1667 2 16.2193 7.0475 26.4064
2165 1 0.112803 8.99406 26.7636
103 1 7.06883 9.00075 26.7129
3164 1 3.55329 8.96595 26.5032
1168 3 10.7594 8.91211 26.6037
2168 2 14.2709 8.98018 26.5873
2352 1 18.1883 8.73814 26.6454
2668 2 1.69279 10.5116 26.7617
3167 3 0.169391 12.3985 26.7546
3672 2 1.76625 14.5649 26.6466
548 3 5.49485 14.3792 26.5442
106 3 3.62983 12.7947 26.8399
1171 3 7.2102 12.5938 26.6373
3669 2 5.40881 10.7213 26.2947
545 2 8.98484 10.6108 26.9348
1673 2 9.06527 14.2341 26.8123
1670 2 12.6557 10.6159 26.8447
2171 3 10.9937 12.5032 26.6299
2674 1 12.6475 14.2321 26.6842
3170 3 14.4176 12.2998 26.6373
2671 3 16.3248 10.4495 26.8181
3417 1 17.7953 12.4647 26.8192
3675 2 16.1708 14.213 26.6403
109 3 -0.328585 16.1195 26.5103
3782 2 1.70472 17.5446 26.802
721 1 5.32849 17.7788 26.7675
1174 3 3.64498 16.1202 26.8412
2174 2 7.2828 16.0446 26.6233
1533 1 8.66508 17.8977 26.6491
112 3 14.2659 15.938 26.607
2784 1 12.6121 17.7792 26.4971