ITEM: TIMESTEP
5000
ITEM: NUMBER OF ATOMS
4000
ITEM: BOX BOUNDS pp pp pp
-1.8702977671278376e-02 3.5752762977671054e+01
-1.8702977671278376e-02 3.5752762977671054e+01
-1.8702977671278376e-02 3.5752762977671054e+01
ITEM: ATOMS id type x y z
1 2 -0.000235476 1.79415 1.86859
1563 2 0.0848034 -0.137636 -0.032007
2064 2 1.6962 1.80529 -0.179271
3561 3 1.71034 -0.0837474 1.7055
564 3 3.40646 1.64174 1.7493
565 2 6.9224 1.80761 1.76022
1565 3 7.1217 0.0312961 -0.0698091
2065 2 3.50889 -0.0723956 0.00959514
3061 3 5.51902 1.82948 -0.0422306
3562 2 5.32849 -0.0672993 1.95853
566 1 10.3426 1.84164 1.58542
1070 2 10.7321 0.04418 0.184263
3063 3 8.76722 0.192741 1.53668
3062 3 8.81161 1.89002 -0.124337
567 3 14.2162 1.88108 1.97691
2566 1 14.3473 0.0430838 0.0798694
3064 2 12.5093 1.85727 0.0227763
3563 2 12.5501 0.00620028 1.81514
2 2 17.8148 0.0398723 -0.077055
3 1 15.98 0.0324414 1.65662
3066 3 17.9147 1.69105 1.6235
3065 3 16.1766 2.01527 -0.16977
4 1 1.48111 5.56152 -0.138498
5 1 1.56358 3.46009 1.78807
6 2 1.59743 7.29943 1.74062
1071 1 -0.11601 5.2125 1.80898
3067 2 -0.0836498 3.36002 -0.217922
3565 2 -0.07181 7.36236 -0.1124
7 3 5.31297 5.2484 0.241096
8 1 3.21362 7.17055 0.0747272
1072 2 7.16777 5.43841 1.69033
1075 2 5.46578 7.03165 1.7188
1074 2 3.30796 5.33023 1.92075
1567 2 7.20692 7.07749 -0.230198
2570 2 7.08183 3.61586 0.126365
2569 3 3.67753 3.63443 -0.131871
3569 3 5.13573 3.32647 1.73934
9 2 9.04852 5.62304 -0.00898271
10 3 8.60526 3.39545 1.77927
1077 1 10.8749 7.16272 -0.0177064
1076 2 10.8142 5.43915 1.88065
1568 2 9.07455 7.09773 1.82322
3068 3 10.4641 3.78165 0.0350456
11 3 12.5018 5.57319 -0.104702
12 3 14.3895 3.57469 -0.106377
570 2 12.4079 3.40578 1.75951
1571 3 14.2908 6.98404 0.164824
1570 1 14.238 5.33493 1.87442
1569 2 12.5485 6.91912 1.87197
572 1 16.2853 3.59001 1.62711
1081 2 16.047 7.08388 1.95544
1079 1 17.6051 5.37594 1.95436
1078 2 16.2586 5.55716 -0.0906369
1573 1 18.0813 3.59087 0.081346
2070 3 17.88 7.27013 -0.222016
575 2 1.98052 10.814 1.85987
1082 2 1.74514 9.19482 0.00267643
1574 3 -0.0114635 8.93587 1.76146
3070 3 -0.23082 10.8129 -0.222508
576 1 3.3633 10.7237 -0.0624559
1085 3 5.29819 9.0735 -0.0839793
1083 3 5.046 10.8273 1.58494
1577 3 7.24964 10.7242 -0.0548727
1576 2 6.99121 8.9479 1.84423
1575 1 3.50788 8.89215 1.76138
14 3 10.6276 10.6037 -0.336621
1087 3 9.08249 10.6624 1.87658
1086 1 8.75403 8.75291 0.0134427
2071 1 10.9684 8.88478 1.39417
580 1 12.7045 10.8412 1.56894
1088 3 14.3763 10.783 -0.253719
2073 2 12.5894 8.66523 -0.0505045
2074 1 14.4013 8.80507 1.76554
15 1 17.8336 8.98526 1.75903
1581 2 16.2264 11.0455 1.58395
2076 1 18.0896 10.8564 0.0384628
2075 3 16.0113 8.83106 -0.1118
2079 3 1.68167 12.5468 0.0403822
2078 2 1.8332 14.2195 1.88109
2077 2 -0.165875 12.3767 1.63413
2572 1 0.1173 14.2437 -0.109221
2082 3 5.4445 14.3322 1.85648
2081 1 3.67137 12.7618 1.65444
2080 3 5.49213 12.7284 -0.0518189
2576 2 7.29524 14.5012 0.024809
2575 3 7.25788 12.2773 1.82329
3071 3 3.43338 14.4327 -0.23503
1583 2 8.70785 14.1131 1.72893
2084 2 10.7029 14.21 -0.0985432
2579 1 10.9257 12.2449 1.79681
3073 2 8.97372 12.481 -0.247411
2085 3 12.4528 14.1247 1.62232
2580 2 14.4085 12.497 1.59233
3074 2 12.4287 12.5958 -0.0207863
3574 3 14.1908 14.3146 -0.050874
581 2 18.0349 12.6658 1.63425
1089 2 18.067 14.4782 -0.102132
2583 2 16.2246 14.2705 1.71197
3075 2 16.2582 12.9032 -0.075762
16 1 -0.260516 17.8628 0.0132838
2086 1 1.59612 17.86 1.82015
2584 2 -0.0452695 15.7702 1.74203
3076 3 1.62325 16.1928 -0.088174
17 2 5.38068 16.15 0.0996263
1090 3 3.57917 17.859 0.270364
2585 1 7.30638 17.8331 0.0888274
3079 1 5.47579 17.6233 1.6445
3078 2 7.29717 15.9534 1.89791
3077 1 3.5123 15.8389 1.69671
18 2 9.03695 16.0543 -0.0945479
1585 1 10.6676 17.8544 0.0999212
3080 1 10.6007 15.7424 1.62308
3578 1 9.08189 17.7066 1.68668
19 3 12.4359 16.0209 -0.0944156
2088 2 14.3611 17.5668 -0.0521035
3081 3 14.4914 15.8773 1.69899
3581 2 12.3834 17.7741 1.7532
20 1 16.3148 16.1552 -0.16984
1586 1 18.0201 16.1721 1.8583
3083 2 16.1368 18.0322 1.48481
3082 2 17.9057 18.0406 0.0194113
584 1 2.02456 1.9622 7.38466
1564 3 0.144848 -0.153266 3.4432
2588 2 1.72215 -0.244129 5.37714
2563 3 1.72726 1.94739 3.52207
3084 1 0.112955 -0.0578933 7.18444
3583 3 0.162789 1.62417 5.53342
22 1 5.34252 1.64634 7.18345
1069 3 3.56086 -0.201885 3.71647
1566 1 7.22333 0.0562767 3.77237
2089 2 5.4482 0.159851 5.46726
2590 3 3.47733 -0.0786903 7.14759
2564 2 5.33461 1.73256 3.59353
3085 2 7.03151 0.0159358 7.05989
3585 3 3.51234 1.75048 5.41653
3584 3 6.91623 1.92108 5.34767
586 2 8.75252 2.00469 7.30647
2066 1 10.6095 -0.0889222 3.80303
2593 2 8.91087 0.111032 5.46153
2565 2 9.07412 1.75194 3.87487
3086 1 10.4798 0.134772 7.29643
3586 2 10.6192 1.96487 5.42314
23 3 12.4184 1.82016 7.18624
24 2 14.205 0.0720941 7.02819
25 1 14.5081 1.77304 5.44387
2568 3 14.4535 0.0932692 3.50479
2567 3 12.5103 2.09444 3.64215
3087 3 12.574 0.0952303 5.16148
568 3 17.937 -0.134493 3.53242
588 1 16.0754 1.97909 7.26788
1587 3 17.816 0.112128 7.01108
3088 3 16.2135 0.256848 5.16241
3588 3 18.0603 1.97823 5.38918
3564 3 16.3498 2.04734 3.5589
27 1 1.87222 5.49192 7.22187
28 3 1.85717 7.21059 5.22606
589 3 -0.0334161 5.38475 5.34403
2067 2 -0.150042 3.53879 3.57108
3090 1 1.71798 3.69402 5.2325
3590 2 0.0529517 7.02462 7.40173
3589 1 0.0439782 3.50396 7.14628
3567 1 0.137968 7.19453 3.64415
3566 3 1.62581 5.33746 3.69163
29 3 3.67605 3.54998 7.05202
593 1 3.77892 7.01766 7.41919
592 1 6.86279 5.38171 5.27221
591 2 6.94726 7.13027 7.37895
590 2 3.76092 5.27905 5.4198
1095 1 5.29118 5.35822 7.45369
1094 1 5.3504 7.05621 5.30007
1073 1 3.47009 7.05806 3.61024
2068 2 7.30166 7.08842 3.64891
2069 3 3.68807 3.40764 3.58735
3593 1 5.2871 3.63408 5.33824
3592 2 6.92842 3.65858 7.10894
3570 2 5.38323 5.45206 3.36769
3568 1 7.00709 3.55735 3.47957
31 1 8.67327 3.75415 5.1425
569 1 10.7759 6.94611 3.75977
594 2 10.4502 5.18985 5.50599
1097 2 8.81737 5.46071 7.24274
1590 1 8.96192 6.91993 5.37517
1589 3 10.8498 7.06438 7.13013
3594 1 10.6777 3.41997 7.38942
3572 3 10.6601 3.5333 3.40798
3571 1 8.99698 5.49564 3.56362
33 3 12.4263 3.53498 5.5377
35 1 14.2573 3.54911 7.02182
571 1 12.5788 5.25052 3.69478
595 1 14.4041 7.14698 7.01985
1100 2 14.3963 5.50566 5.34712
1099 1 12.5047 5.28252 7.03709
1592 1 12.4496 7.21624 5.44229
1572 2 14.3161 7.15422 3.51618
3069 3 14.2692 3.53246 3.63461
573 3 16.2877 5.39339 3.62018
1080 2 17.9452 3.63084 3.5853
1595 1 16.465 7.18659 5.32571
1594 3 16.1414 5.3781 7.1696
2094 1 17.9935 7.0028 7.23544
2092 1 17.8681 3.6278 7.36701
2571 3 17.9561 7.13704 3.45087
3092 2 18.0478 5.21897 5.31388
3595 3 16.2627 3.77232 5.57187
13 2 -0.155361 10.9747 3.76115
597 2 -0.067901 10.7526 7.35642
596 2 1.98751 10.6226 5.40611
574 2 1.70338 9.22556 3.58932
1102 1 1.69909 9.01162 7.38623
1101 3 0.217181 8.89512 5.57429
38 2 3.46041 10.7948 7.47681
578 1 3.48832 10.6314 3.56057
577 1 5.29691 8.82455 3.61882
1106 2 7.15782 10.7743 7.23195
1104 3 5.37222 10.6694 5.29735
1103 3 3.63537 8.92639 5.51829
1084 1 7.33356 10.4241 3.75194
1597 2 7.01842 8.83637 5.49811
1596 3 5.23953 9.02971 7.31091
39 3 10.5322 10.7315 7.15726
599 1 8.94025 10.5542 5.30967
579 1 11.0323 10.6727 3.41856
1107 2 8.96781 8.88609 6.86471
1578 2 9.28574 8.8341 3.57853
2097 2 10.8829 8.90502 5.29484
1108 2 12.5733 10.5994 5.44956
1598 2 12.6463 8.67393 7.11333
1579 2 12.5618 8.95539 3.28341
2072 3 14.3173 10.7952 3.36246
2099 2 14.3778 10.7477 7.2435
2098 1 14.4194 9.042 5.14709
1599 1 16.0406 9.08411 6.96525
1580 1 16.1717 8.86201 3.40042
2100 2 16.1035 10.8723 5.57554
3093 2 17.9731 10.6116 7.17464
3597 1 17.8323 8.86611 5.45324
3573 3 17.8254 10.9111 3.68069
1110 3 0.131909 14.0846 7.12277
1582 2 1.92603 12.526 3.66419
2103 2 1.99411 12.5211 7.23853
2102 1 1.793 14.2091 5.57728
2101 1 0.0355384 12.4466 5.26506
2573 3 -0.0121592 14.0993 3.52178
1112 1 7.06434 14.3765 7.15562
1600 3 5.37067 12.5028 7.18074
2104 3 5.36512 14.3243 5.5057
2083 1 3.67085 14.6189 3.70527
2601 1 7.04676 12.2151 5.42217
2600 3 3.51752 12.5386 5.4608
2599 2 3.52684 14.4271 7.22308
2577 2 7.17682 13.986 3.79381
2574 3 5.17916 12.356 3.795
2604 3 9.04229 14.036 5.49043
2603 3 10.9023 14.0916 7.18339
2602 1 10.7566 12.3982 5.35554
2578 2 9.1468 12.4187 3.36157
3097 1 8.89071 12.6413 7.33496
3072 1 10.9451 14.0657 3.44726
602 2 14.3255 14.3196 7.23197
1603 3 12.4268 12.2824 7.2395
2605 1 14.422 12.369 5.23565
2581 2 12.7146 12.3098 3.5535
3098 1 12.8581 14.116 5.40115
3575 1 14.2109 14.269 3.49393
1114 3 18.18 12.4165 5.62183
1584 2 17.9737 14.2844 3.65698
2582 1 16.4234 12.4352 3.66899
3100 3 16.0034 14.305 5.15944
3099 1 16.0376 12.6629 7.37422
3599 2 18.3302 14.5248 6.90711
582 2 -0.282962 17.7065 3.57744
1605 1 1.71449 17.8791 5.24129
1604 2 1.4253 16.3089 7.1438
3104 2 -0.313706 16.0245 5.22514
3103 2 -0.191068 17.8118 7.45421
3576 2 1.7783 16.1375 3.73125
2087 1 3.58014 17.8069 3.62992
2607 2 5.42244 17.6545 5.26768
2586 3 7.40763 17.8203 3.48918
3107 3 7.14648 17.9354 7.03266
3106 3 5.28715 16.2689 7.20642
3105 1 3.40655 17.9444 6.99733
3602 1 3.42983 16.1186 5.38149
3601 2 7.19715 16.0257 5.37442
3577 2 5.6149 16.1073 3.48495
1091 3 10.7443 17.8891 3.61409
2107 3 8.81414 16.2723 7.05088
2608 1 8.93961 17.787 5.31828
3109 3 10.6667 17.7385 7.01408
3603 3 10.7536 15.7387 5.45683
3579 1 9.01745 15.8103 3.85599
41 1 14.284 15.9824 5.4945
2610 3 12.564 17.6651 5.39563
2609 3 14.3751 17.8441 7.2199
2587 1 14.4115 17.9475 3.41981
3604 3 12.4768 15.6751 7.03797
3580 1 12.7287 16.162 3.40056
583 2 15.9476 16.2364 3.53326
1606 3 17.733 18.1057 7.17675
2109 2 16.1205 16.0221 7.28325
3112 1 16.188 17.7487 5.32551
3110 3 17.8588 16.2281 5.47753
3582 3 17.8607 17.9703 3.35242
21 3 0.173998 1.69414 8.99548
604 3 0.112034 -0.080361 10.8747
2110 1 1.9125 1.83501 10.964
2589 3 1.76337 -0.0723829 8.89969
585 1 7.02771 1.76625 8.84087
1092 2 5.47917 0.10628 8.93876
1608 1 7.32788 -0.066269 10.5711
1607 1 3.65728 -0.0600829 10.6762
2111 2 5.32621 1.91253 10.7314
2591 2 3.65882 1.67072 9.07944
1116 3 10.7627 -0.18232 10.9246
2612 3 8.87604 1.54599 10.8554
2592 1 10.7027 1.85027 9.06975
3587 1 9.01845 0.183432 8.85369
587 2 14.4345 1.67642 8.95702
1609 1 14.2593 0.124354 10.8028
2090 3 12.5268 0.113044 8.85248
2613 3 12.4157 1.7015 10.6975
26 1 16.2087 0.207672 8.83073
2594 1 17.9465 1.77259 8.71945
3116 1 15.7739 1.68621 10.8133
3115 3 17.8993 0.10446 10.6045
1093 3 1.51216 7.17743 8.99873
2091 2 1.84634 3.69705 8.85374
2615 2 0.0590292 3.61202 10.6814
3118 2 -0.135223 7.18708 10.5491
3117 2 1.68216 5.45465 10.7217
3089 2 -0.00251659 5.22297 8.90836
30 2 5.35176 3.64265 8.98479
45 3 7.16308 7.10981 10.6972
1096 1 3.2997 5.4102 9.1836
2112 1 7.15224 3.59455 10.7847
2616 3 3.52298 3.47132 10.6573
3091 2 7.31527 5.18268 9.06109
3608 1 3.58412 7.13594 10.8428
3607 1 5.50892 5.31601 10.412
3591 2 5.13995 7.03265 9.12124
46 1 10.7856 7.24624 10.7501
1098 3 10.7643 5.59848 9.07351
1591 2 8.98424 3.48738 9.08092
1588 2 8.75687 7.22651 8.81735
2113 1 10.8693 3.76491 10.5441
3609 1 8.93209 5.39958 10.7343
32 1 12.4588 7.18714 8.81473
34 1 12.7355 3.48215 8.85776
36 2 14.3613 5.48828 8.85086
609 1 14.4425 7.01801 10.7526
3119 1 14.2724 3.73754 10.6414
3611 2 12.6056 5.36309 10.5593
1120 2 17.8046 3.50305 10.7477
1615 1 17.5887 7.08093 10.6894
1593 1 18.0153 5.17703 9.13557
2093 1 16.3097 7.12031 8.91592
2595 1 15.9585 3.65836 8.8662
3612 2 16.2051 5.35252 10.4956
48 3 1.63118 8.8777 10.8369
2095 2 -0.134992 8.99681 9.03015
2596 3 1.58215 10.518 9.08729
3120 2 -0.0415204 10.9411 10.7345
37 2 3.67401 8.83365 8.94764
49 3 5.28016 8.81718 10.7355
612 2 7.20808 10.6536 10.5282
1105 1 5.13316 10.9791 8.98668
2096 3 7.32924 8.91856 8.99605
3121 3 3.51728 10.6428 10.7372
613 2 9.12667 9.11342 10.7034
598 3 10.8312 8.86184 8.70847
3613 1 10.6029 10.8053 10.3708
3596 2 8.90574 10.8576 8.79308
50 1 14.5099 10.7494 10.6548
614 1 12.5178 9.08653 10.5866
2598 1 12.5112 10.7366 8.86519
2597 3 14.2858 8.72038 8.91725
51 2 18.1234 10.727 10.5708
600 1 18.2358 8.88723 8.94536
1122 1 16.1196 9.29174 10.6372
1109 2 16.2027 10.7764 8.78819
616 3 0.135949 14.1786 10.8771
601 2 0.114337 12.402 8.9174
1123 3 1.81394 12.5337 10.6594
3094 2 1.79154 14.3086 8.84672
1124 3 5.58822 12.8109 10.7128
1111 3 5.24947 14.6048 8.88595
1619 2 7.31299 14.3977 10.4738
1618 3 3.65354 14.4562 10.9006
1601 3 7.03106 12.5124 8.88684
3095 3 3.67509 12.61 9.02331
617 2 10.6323 14.4638 10.5378
1125 1 8.95989 12.5294 10.6453
3096 1 8.974 14.3613 8.71708
3598 1 11.0095 12.427 9.05453
1126 1 14.2926 14.4226 10.951
1113 3 12.5619 14.2777 9.02163
1620 2 12.6638 12.59 10.6372
1602 2 14.4743 12.367 9.06726
1621 1 16.3628 12.5561 10.6952
3126 2 17.966 14.5903 10.5076
3102 1 16.1823 14.3978 8.7757
3101 1 18.1175 12.4411 8.85511
1623 1 0.139949 17.8602 10.8662
2119 1 1.85338 15.9745 10.9671
2606 1 1.7483 18.1231 8.81959
3600 2 -0.0325972 15.9197 9.06974
40 2 7.20028 16.2726 8.8561
619 2 3.68274 17.8571 10.8195
1127 2 7.31413 18.058 10.7989
2120 2 5.41046 16.2601 10.9225
2106 3 3.51291 16.1804 8.79442
2105 1 5.2895 17.8213 9.12005
1624 1 10.5692 17.7515 10.7611
2108 2 10.6919 16.0762 8.76656
2625 2 9.02511 16.1885 10.6692
3108 2 8.83192 18.0291 8.93769
603 2 14.2822 16.0352 8.93939
1115 3 12.5798 17.6752 8.87506
2626 2 12.3933 16.123 10.6113
3620 2 14.3642 17.7901 10.7674
2628 2 16.0675 16.2208 10.5094
2611 2 18.0018 16.2001 8.56197
3127 3 18.0495 17.9428 10.8007
3111 1 15.9361 17.8192 8.82506
42 1 -0.000685238 1.69824 12.5884
2121 1 -0.035384 0.0095288 14.2116
2629 3 1.87386 1.76558 14.3627
3113 2 1.76381 -0.148982 12.5174
43 2 3.80246 1.81947 12.4373
605 1 6.97465 1.85395 12.4212
1625 3 7.06184 -0.121103 14.363
2123 1 3.43279 0.033567 14.2121
3128 1 5.5035 1.7936 14.2713
3605 2 5.66265 0.0579431 12.3819
606 1 10.7613 1.66981 12.2541
1627 1 10.7334 -0.267469 14.4956
3129 2 9.24969 1.76355 14.413
3606 2 8.85935 0.0837663 12.6107
1117 1 14.4526 1.82742 12.7505
2632 3 14.2839 -0.212251 14.4411
3131 2 12.4924 1.69878 14.2546
3114 1 12.23 -0.103074 12.71
44 3 16.3648 -0.0857336 12.3219
501 2 17.8429 -0.133383 14.1773
2614 2 18.0126 1.76121 12.4349
3132 2 16.2239 1.72522 14.0687
607 1 1.69968 3.60764 12.4254
1119 3 1.69001 7.02981 12.3132
1118 2 -0.0588457 5.34671 12.5548
2634 3 -0.0904727 7.17542 14.0717
2633 2 -0.0635063 3.60241 14.2739
3624 3 1.61982 5.4146 14.3212
60 1 7.21001 7.15298 14.2184
608 2 5.33529 3.53921 12.4949
1612 3 7.06613 5.2902 12.5781
1611 1 5.44585 7.23596 12.4779
1610 1 3.56827 5.30226 12.3332
2128 3 7.27669 3.42269 14.3879
2126 1 3.61954 3.66245 14.4266
3136 3 3.71206 7.08819 13.9984
3626 3 5.50343 5.23907 14.1772
1613 2 11.0819 5.36268 12.4993
2114 2 8.69858 6.91793 12.5436
3137 1 10.8482 3.64548 14.2282
3629 1 9.08889 5.33433 14.2025
3628 1 10.8106 7.13014 14.0468
3610 2 9.08241 3.51519 12.5048
610 3 12.7839 3.51922 12.5073
1614 3 14.2914 5.45793 12.6903
2617 1 12.572 7.25007 12.4936
3138 3 14.4002 3.32919 14.4816
3631 2 14.1745 7.27958 14.3089
3630 2 12.583 5.28111 14.3779
47 3 17.9195 5.28558 12.4283
65 3 15.946 5.28027 14.2289
1138 1 17.9188 3.48448 14.1013
1121 1 15.9521 3.66442 12.3528
2618 2 16.1353 7.17501 12.4126
3140 3 17.9237 7.05794 14.2785
67 1 1.65197 9.032 14.1654
611 2 1.73971 10.5863 12.397
2115 1 -0.0726235 8.73807 12.2477
2636 2 0.126249 10.6612 14.3113
69 3 7.22214 10.7181 14.0876
70 1 5.4913 8.96338 14.1338
1616 1 5.76138 10.8265 12.1247
2116 3 3.55386 8.94129 12.4258
2619 2 7.23344 8.96172 12.4241
3633 3 3.63477 10.6168 14.2145
71 3 9.05725 8.79561 14.182
2117 1 8.92136 10.8011 12.4956
2620 2 10.8604 8.95507 12.3572
3141 2 10.7052 10.803 13.9819
510 2 12.3643 8.9003 14.3187
1617 1 12.6775 10.7055 12.1762
3122 1 14.2532 8.8287 12.5016
3635 1 14.1454 10.7478 14.1378
511 1 15.6973 8.87824 14.2783
615 3 17.7162 9.14679 12.4691
1639 1 17.7679 10.7522 14.2745
2118 3 16.1421 10.6979 12.4174
513 1 0.113133 14.0867 14.1224
514 3 1.75733 12.3547 14.3103
2621 2 0.0103153 12.4464 12.5574
3123 2 1.84734 14.3031 12.5427
72 3 7.26875 14.2448 14.2038
515 1 5.32512 12.6521 13.9809
516 1 3.61979 14.5589 14.1659
3125 2 7.09556 12.6176 12.4606
3124 3 3.45487 12.3975 12.3544
3614 2 5.59543 14.3615 12.4632
73 2 10.6987 14.0884 13.9478
1145 3 8.91654 12.5012 14.1251
3616 2 10.8633 12.4497 12.1519
3615 3 8.92266 14.4024 12.2768
1147 2 12.5055 12.4558 14.1853
1146 3 14.3473 14.2935 14.0703
2622 1 12.3866 14.303 12.3245
3617 1 14.5439 12.3389 12.5352
1149 3 16.0865 12.6019 14.3579
1622 1 17.9266 12.2821 12.3586
3146 3 17.8929 14.1789 14.2738
3618 2 16.0884 14.4861 12.2655
52 2 -0.0419562 15.9661 12.5224
518 1 0.121795 17.7924 14.2463
1150 3 1.75565 15.9806 14.1432
2623 3 1.93398 17.806 12.6655
53 2 3.6878 15.9954 12.5294
618 3 7.08943 16.2602 12.2323
1151 3 3.78384 17.7635 14.3403
1642 3 5.62049 15.9757 14.2367
2142 3 7.19443 17.8889 14.2218
2624 1 5.34534 17.8629 12.5881
54 2 10.9044 16.1168 12.4514
1643 3 8.96353 16.0341 14.123
2649 2 10.7329 17.9257 14.1884
3619 1 8.94297 17.9249 12.5255
55 1 12.5831 17.8064 12.6846
620 2 14.2899 16.178 12.5267
1646 3 12.441 16.1307 14.292
1644 1 14.1893 17.8935 14.2279
56 2 16.0057 17.8272 12.297
1647 3 16.1383 15.9454 14.2772
2627 1 17.8479 16.2343 12.4938
3644 1 17.845 18.0121 14.2984
57 3 1.84005 0.0925528 15.924
621 3 0.00033884 1.75483 15.8884
1128 3 0.0276333 -0.190106 17.6963
2122 1 1.74329 1.80225 17.6264
58 1 5.38528 -0.163625 16.1521
1132 2 7.04261 -0.141647 17.7132
1131 1 7.22811 1.59313 15.8701
1130 3 3.5442 -0.128384 17.895
1129 3 3.68643 1.7139 16.0973
2630 2 5.52892 1.7207 17.9198
1133 1 10.6293 1.61731 16.3136
1626 1 10.5011 -0.28593 17.9602
2631 2 8.76415 1.77952 17.6881
3621 1 8.97513 -0.148059 15.946
59 1 12.5099 -0.017602 15.8017
1134 2 14.3266 1.56152 16.2814
2124 1 14.2403 -0.0420367 17.7542
3130 3 12.2533 1.49821 17.9824
502 3 16.1889 -0.238804 16.1226
3133 3 16.0823 1.71917 17.8898
3623 3 17.6627 -0.140995 17.9798
3622 3 17.9532 1.74266 15.9263
503 2 1.89315 3.66639 16.218
504 2 1.61767 7.21177 15.9729
1628 1 0.180702 5.20934 16.0599
2125 3 0.0350627 3.41384 17.8664
3134 1 0.32803 7.04747 17.7624
3625 2 1.95285 5.27403 17.7891
61 3 5.42521 3.42187 16.0708
505 2 3.39488 7.2338 17.6071
1135 1 7.17709 6.9567 17.6216
1631 2 5.1926 7.0561 15.8402
1630 1 3.48344 5.37529 15.9159
1629 1 7.31951 5.32293 15.8022
2127 1 3.71269 3.52023 17.8309
3135 2 7.09955 3.65615 17.8297
3627 2 5.45132 5.23478 17.6694
62 3 8.95277 5.1888 17.7117
63 1 10.7561 7.13619 17.6794
506 3 9.02037 3.47066 15.9148
1632 2 10.7919 5.45005 16.0855
2129 3 8.91715 7.29739 15.9425
2635 2 10.5766 3.58301 17.6947
64 1 12.3455 5.20515 17.8206
1137 2 14.2986 6.85856 17.714
1136 2 12.4212 3.56508 16.2852
2131 3 14.3312 5.21397 16.143
2130 1 12.4716 7.19322 16.0401
3139 1 14.206 3.52546 17.8151
66 1 17.8439 5.28341 15.8564
507 2 16.2193 5.24381 17.866
1140 2 17.8509 3.48861 17.9406
1139 1 16.0446 3.4415 16.1747
1634 3 17.8377 6.95028 17.6126
1633 1 16.1075 7.02198 15.8503
508 2 2.08825 8.95199 17.7441
1141 3 1.88563 10.6188 15.8965
2132 2 0.0875289 8.89175 15.8706
3632 3 0.0864601 10.5354 17.6401
68 3 3.6532 10.6045 17.5062
509 1 7.27669 10.7558 17.9577
1142 2 5.51008 8.72758 17.6487
1635 1 5.39538 10.6179 15.8983
2134 2 7.28854 9.05434 15.7796
2133 3 3.60732 8.91669 15.8726
1143 3 8.91325 8.7682 17.8432
1636 1 9.12455 10.5363 16.0356
2637 2 10.8011 8.88082 16.0621
3634 1 10.7704 10.4231 17.7951
1144 3 12.6915 10.5388 16.1248
1638 3 12.7533 8.70269 18.0474
1637 3 14.3972 10.6347 17.8032
2638 1 14.4255 8.76285 16.1573
512 1 17.8905 9.12683 16.024
1640 2 16.035 8.84467 17.5055
2135 2 15.6325 10.8958 15.7918
2639 1 17.6333 10.7485 17.6798
2137 2 0.307345 14.2588 17.866
2136 2 1.92601 12.3047 17.5926
2641 3 1.9133 14.3703 15.854
2640 3 0.169292 12.4221 16.1854
2140 2 7.33358 14.1509 17.8224
2139 2 3.79517 14.198 17.7622
2138 2 5.49438 12.424 17.7476
2643 3 5.38775 14.2479 16.0323
2642 1 3.63683 12.6126 15.7279
3142 1 7.27811 12.1857 16.042
2141 1 9.08352 13.9969 15.9822
2645 2 9.05824 12.2957 18.0414
2644 2 10.9435 14.2815 17.7914
3143 3 11.0232 12.289 15.9446
2647 3 12.3021 14.1778 15.7409
2646 1 12.6036 12.369 17.7423
3145 1 14.049 14.3943 17.6459
3144 2 14.181 12.5402 15.8504
517 2 17.4576 14.3411 17.7755
1148 1 17.9014 12.4777 16.1257
3148 3 16.0974 14.3257 15.9564
3147 3 15.6896 12.4827 17.7848
2648 2 1.83776 17.8111 16.0588
3150 1 1.80022 15.9434 17.6479
3149 1 0.207761 16.1233 15.9941
3636 1 0.0487889 17.8754 17.8844
1641 1 3.51766 17.8043 17.8383
2143 1 7.24052 17.6967 17.8633
3640 1 5.55187 17.8755 16.0436
3639 3 7.4138 16.0075 16.0578
3638 2 5.55535 15.9398 17.6888
3637 2 3.71348 16.1447 16.1518
74 3 8.8866 18.0224 15.9439
519 1 10.328 17.8381 17.7413
3642 3 8.99902 16.0182 17.8144
3641 1 10.5949 15.9324 15.87
75 1 12.6035 16.2223 17.6532
76 3 12.4804 17.8937 15.921
1645 3 14.1569 17.7281 17.7863
3643 2 14.304 16.0038 15.8438
77 3 16.1686 16.1753 17.9783
2144 3 17.7227 15.9816 16.1307
2650 1 17.8452 18.0236 17.8539
3645 3 16.0784 17.6724 15.9893
520 3 -0.208827 0.042729 21.4899
78 2 0.0845718 1.54384 19.7379
2145 2 1.72819 1.92342 21.2913
3151 3 2.05032 -0.0227964 19.7606
521 2 3.7103 0.0565746 21.5368
80 1 3.42108 1.82019 19.5545
79 1 7.16111 1.66889 19.6562
2147 3 5.34189 1.87225 21.2598
2146 3 6.88699 -0.0162785 21.2648
2651 3 5.19585 -0.0919527 19.555
81 3 10.6204 1.83378 19.6493
1648 2 10.5622 0.0308548 21.3347
2652 2 8.66962 1.75154 21.3688
3152 2 8.87024 -0.25643 19.6052
522 1 14.3076 1.49989 19.4052
1649 3 14.4232 -0.0852811 21.4077
2653 3 12.5467 1.86762 21.6763
3646 3 12.5238 -0.135834 19.6829
82 2 17.7922 -0.076584 21.5156
2654 2 17.915 1.69391 19.4726
3153 3 16.074 1.69431 21.3643
3647 1 16.0473 -0.0217486 19.6506
523 1 0.331999 5.44932 19.4037
84 2 1.80544 7.45928 19.6489
83 3 0.102226 7.12038 21.2289
1650 3 -0.0577623 3.76425 21.2761
3155 1 1.90149 5.27523 21.5417
3154 3 1.81574 3.66502 19.6727
524 3 3.4559 5.23261 19.698
525 2 7.24217 5.32402 19.5818
526 2 3.45998 7.23267 21.4166
1153 2 7.17587 7.08304 21.1588
1152 2 5.27629 7.04419 19.5206
2655 2 3.73247 3.52897 21.3624
3156 2 7.16561 3.48778 21.4943
3649 1 5.39916 3.62765 19.5376
3648 1 5.42506 5.44765 21.2143
86 3 10.7014 6.87911 21.3405
85 1 8.94112 3.35497 19.5214
1155 2 10.8965 5.37082 19.5214
1154 1 8.94922 6.96779 19.5452
2656 2 10.5515 3.6429 21.5051
3650 1 8.86588 4.99806 21.4081
527 2 12.3928 7.03124 19.5338
88 3 12.4879 5.22219 21.4313
87 2 12.4927 3.34116 19.5771
1156 2 14.2398 5.32337 19.782
2148 2 13.9542 7.14439 21.4503
2657 3 14.3316 3.37459 21.4198
528 2 17.8954 3.5825 21.5292
89 2 15.8304 5.20072 21.3532
1157 3 16.1134 7.19847 19.6667
3158 1 17.671 5.1876 19.6092
3157 1 17.5593 6.849 21.7181
3651 2 16.2387 3.34375 19.7052
529 2 1.93704 8.89425 21.4341
530 2 1.9992 10.6674 19.4559
1158 3 -0.00631906 8.83922 19.4857
3652 2 0.0173757 10.9399 21.7463
531 1 5.20878 8.69042 21.3698
532 3 5.2723 10.4282 19.3531
533 1 7.01035 10.5325 21.1067
1159 2 3.64543 8.78751 19.347
1651 1 7.12423 8.71393 19.4576
3653 1 3.76697 10.5986 21.3915
90 1 8.96126 10.8518 19.8458
1161 3 8.84517 8.77398 21.5121
1160 2 10.8274 10.8 21.5288
1652 3 10.502 8.91681 19.6915
534 2 12.4546 10.5619 19.7435
1162 1 12.4082 8.92963 21.4217
1654 3 14.4415 10.7318 21.689
1653 2 14.3521 9.01951 19.8264
1656 3 15.8619 10.6507 19.6075
1655 1 15.8544 8.88998 21.5395
3159 2 17.5565 10.7672 21.3939
3654 2 17.6406 8.95004 19.7859
1660 3 0.287715 14.1663 21.2129
1659 3 1.98039 14.2467 19.6238
1658 1 1.92465 12.3984 21.0251
1657 1 0.334303 12.3028 19.4451
1163 2 5.27487 14.2307 19.5733
1661 2 3.58691 14.1399 21.4833
2151 2 7.19039 12.5134 19.7609
2150 1 5.67621 12.3946 21.5201
2149 2 3.81777 12.2645 19.3684
3160 2 7.29199 14.3562 21.3049
1662 1 9.03741 14.1458 19.6901
2153 1 8.92065 12.6665 21.6849
2152 1 10.8937 12.5701 19.7146
2658 3 10.943 14.4088 21.518
2155 3 14.1914 12.4478 19.8398
2154 2 12.5432 14.4147 19.5357
2660 3 14.2783 14.4177 21.5829
2659 1 12.5282 12.5342 21.7382
535 3 17.2874 12.4255 19.7256
1164 2 17.6924 14.1961 21.6757
2156 2 15.7932 14.2708 19.612
2661 1 16.0635 12.3732 21.5253
1165 2 0.072832 17.9103 21.6046
2157 2 1.78334 17.7293 19.788
2662 3 0.384236 15.9624 19.6097
3161 3 1.63321 16.1067 21.4443
1664 2 6.96184 17.6903 21.3333
1663 3 3.83838 17.8586 21.4594
2664 3 3.64658 16.0898 19.4338
2663 3 6.98932 15.9548 19.4804
3163 3 5.25253 16.0414 21.3212
3162 3 5.40002 18.0268 19.5586
536 3 10.7991 18.0002 21.3994
2665 3 10.9217 16.1285 19.6172
3164 3 9.06821 17.7372 19.6841
3655 3 9.02038 16.0088 21.481
2666 3 12.3237 18.1348 19.4848
3166 1 14.1232 16.3045 19.815
3165 3 14.1667 17.9305 21.5654
3656 2 12.5054 16.2621 21.2744
92 2 15.8974 16.1651 21.4339
91 1 17.7783 17.8432 21.4153
1166 2 17.5411 15.8783 19.8751
3167 2 16.0456 17.7991 19.6484
93 3 1.91408 1.97465 24.7954
1665 1 1.50664 0.347894 23.0637
2667 2 0.0806246 0.00785005 24.9731
3168 1 -0.200797 2.08902 23.0869
2158 2 5.42999 0.0495206 23.4221
2670 2 3.52352 0.114628 24.8382
3170 1 6.88664 1.82982 23.1196
3169 1 3.80007 1.99331 23.0566
3659 2 7.02715 -0.112582 25.2212
3658 1 5.40747 1.85953 24.8626
537 3 8.31873 1.73735 24.9869
2671 3 8.39606 0.103302 22.8938
3171 1 10.4826 0.0234519 25.0429
3660 1 10.6562 1.4355 23.2335
2673 1 12.2921 -0.0528808 23.0901
3663 1 14.2895 1.63032 23.3784
3662 3 13.9811 -0.0162961 25.1098
3661 1 12.2343 1.71675 25.1265
539 3 15.9597 1.67783 25.02
1167 2 17.9826 -0.169911 25.1922
1668 1 17.5819 1.63602 23.2541
2160 1 15.9521 -0.01267 23.4281
99 3 1.87149 5.07469 24.9374
98 1 1.63077 7.1225 23.2948
97 3 0.0822027 7.17169 24.8939
96 2 0.0189216 5.48819 23.1804
3173 1 1.7441 3.64077 23.0044
3172 2 -0.0910535 3.61502 24.6955
540 1 3.32941 6.95342 25.0779
541 3 5.36952 6.97319 23.155
542 3 7.1922 5.2659 23.2774
543 2 5.15965 5.36711 24.9472
101 1 6.97362 6.96566 24.865
100 2 3.54007 5.38927 23.0436
2675 1 7.04503 3.65888 24.9741
3175 3 3.7008 3.59297 24.8578
3665 2 5.40734 3.6845 23.1961
546 1 9.27086 7.07937 23.1807
547 1 8.93784 5.60161 25.014
102 2 10.5701 5.25485 23.2897
1170 2 10.6162 7.22093 24.9971
3177 2 10.5856 3.45702 24.921
3666 1 8.64027 3.41232 23.3596
548 1 14.4677 5.30437 23.3095
549 3 12.4388 5.15087 25.2202
105 1 14.2431 3.524 25.1829
1670 2 12.4652 7.11327 23.4004
3179 1 12.3573 3.52428 23.2926
3667 2 14.2731 7.06751 25.1929
1172 1 16.4148 5.27381 25.2322
1672 2 17.8232 3.35586 24.8418
1671 3 15.8575 7.23221 23.262
2678 2 17.7312 7.07974 24.8809
2677 2 17.7632 5.20988 23.2868
3668 1 15.9013 3.61271 23.2346
550 2 0.0691709 8.90331 23.207
106 1 1.87569 10.6054 23.352
1175 2 1.88463 8.85318 24.8955
3669 2 -0.0732253 10.6537 24.7298
108 2 5.35932 10.538 23.1514
1180 3 6.97226 10.6903 24.9226
1178 3 7.03631 8.71381 23.2396
1177 3 3.71458 8.62465 23.346
1176 2 5.48412 8.65873 24.9101
3670 3 3.74344 10.8671 24.9963
551 1 10.6024 10.6393 25.068
552 2 8.77031 10.5606 22.9661
1181 1 9.00221 8.89906 24.9668
1674 3 10.8435 9.01202 23.3185
1182 3 12.6097 10.5876 23.5744
1676 2 12.5684 8.81145 25.2272
1675 2 14.1661 8.88358 23.3695
2163 1 14.4643 10.7562 25.2473
1183 1 15.8949 8.79599 25.3319
1677 2 16.2087 10.6013 23.5644
2165 1 17.8533 10.7128 25.0425
3671 1 17.9449 8.78612 23.3455
555 1 0.0479649 14.5041 25.141
1184 3 1.89671 14.2496 23.3328
1678 1 1.72711 12.4951 25.1437
2166 1 -0.0860081 12.5844 23.3659
113 2 7.11368 14.2552 24.7679
1185 3 5.33265 12.5782 25.1011
2170 3 5.20178 14.3511 23.2563
2169 2 3.36263 12.2014 22.9777
2168 3 3.48554 14.2855 25.148
2167 1 7.01613 12.4334 23.2733
1680 1 10.5437 13.9024 25.108
2171 2 10.6717 12.2203 23.2564
2682 1 8.97427 14.2043 23.2938
2681 2 8.77172 12.3598 25.0488
114 3 14.3474 14.3593 25.0062
1681 2 12.6454 12.1635 25.4489
2684 2 14.5189 12.178 23.5627
2683 3 12.4747 13.9937 23.4189
557 2 17.6117 12.8064 23.3761
2173 3 15.8581 14.5233 23.3504
2685 2 16.1324 12.6012 25.0934
3183 1 17.9413 14.5003 25.0128
1684 3 1.89944 16.1245 25.1108
1683 3 2.01345 17.833 23.4703
2688 1 0.0670866 16.0859 23.3266
2687 1 0.0328256 17.91 25.1098
2175 2 7.06658 17.7227 24.8838
2174 1 5.42303 17.5594 23.4056
2689 1 3.88009 17.9651 25.4677
3187 1 5.34633 16.0361 24.83
3186 3 7.16071 16.0981 23.1037
3185 1 3.53696 16.0158 23.0647
1687 3 8.88662 17.9665 23.1112
1686 2 8.8665 15.9571 24.8791
2177 2 10.5567 17.6953 25.0598
3675 2 10.6864 15.9833 23.0522
2178 1 14.2009 17.9347 24.7433
2690 1 12.0452 17.8537 23.3889
3188 1 12.2748 16.239 24.9359
3676 2 14.0123 16.1029 23.231
1187 3 17.712 16.1341 23.1519
1186 3 17.7054 17.85 25.3689
1689 3 15.9745 16.1459 24.9667
3189 1 15.8891 17.7282 23.2871
1188 1 -0.293993 0.136255 28.4731
2180 3 1.87333 1.66868 28.7981
2668 1 1.75447 0.198932 26.7897
3657 3 -0.370065 1.93575 26.9642
559 3 6.98512 0.0122179 28.7314
94 3 6.91796 1.91084 27.0018
1189 1 3.49361 -0.0494669 28.6187
1666 1 5.12905 0.249496 26.9924
2181 1 5.08894 1.85733 28.6253
2669 3 3.52259 1.93805 26.6115
560 3 10.6446 -0.106168 28.9551
95 2 8.7462 -0.20236 26.9161
2182 1 8.78398 1.69153 28.8944
2672 2 10.3271 1.66413 26.8448
538 1 14.2118 1.7385 26.6808
1667 1 12.1555 -0.136425 26.7503
2184 3 12.3502 1.58052 28.5471
2183 1 14.1026 0.323152 28.7054
2159 3 18.1076 1.60517 26.905
3193 2 16.1802 1.82199 28.353
3679 1 17.6658 -0.109764 28.5683
3664 3 16.1493 -0.059011 26.9127
1168 3 1.68142 3.37893 26.7648
1669 2 1.75227 7.32028 26.8479
2186 2 0.141422 6.92602 28.6069
2185 3 -0.106571 3.72075 28.641
2674 3 0.0249066 5.4123 26.7441
3194 2 1.78501 5.0556 28.4668
544 3 3.35726 5.39335 26.9175
563 1 7.19791 7.14389 28.4298
1691 3 7.03922 3.57665 28.7671
1690 1 3.51274 3.52457 28.4363
2676 2 7.08363 5.50276 26.7511
3196 2 3.41467 7.02612 28.6436
3195 3 5.34255 5.32491 28.7662
3176 1 5.38903 3.6805 26.8141
3174 1 5.07784 7.11451 26.9868
545 1 10.6844 5.21175 26.7715
1171 2 8.80493 3.67812 26.72
1169 1 9.11864 7.26119 26.9732
2694 3 10.6382 3.39135 28.6742
3197 1 9.0488 5.26351 28.5854
3681 1 10.6115 6.826 28.7323
104 1 12.4179 3.4456 26.693
103 3 14.4121 5.55491 27.1993
2695 3 14.3672 3.5674 28.5567
3178 3 12.4327 6.99367 26.6401
3684 1 14.287 7.38951 28.8145
3683 3 12.3636 5.34551 28.7499
622 1 17.9898 3.40269 28.4498
1004 1 17.9346 7.01853 28.6826
1174 2 16.3117 7.13355 26.9457
1173 3 18.1834 5.19475 27.0155
3180 3 16.1679 3.67782 26.7601
3685 2 16.2678 5.47472 28.6429
1673 2 0.01845 8.93272 26.7489