ITEM: TIMESTEP
5000
ITEM: NUMBER OF ATOMS
4000
ITEM: BOX BOUNDS pp pp pp
6.0888167509183688e-02 3.5787301832490613e+01
6.0888167509183688e-02 3.5787301832490613e+01
6.0888167509183688e-02 3.5787301832490613e+01
ITEM: ATOMS id type x y z
563 1 -0.226635 0.161488 0.228207
1064 3 1.73022 1.76423 0.137507
1563 1 1.64581 0.161955 1.9066
2064 2 0.00182027 1.87554 1.78751
1 3 3.40496 1.9248 2.0385
2565 2 3.56576 0.143977 0.150591
3064 3 5.34495 1.94517 0.223742
3564 3 5.20444 0.189974 1.90498
565 1 7.19291 0.157339 -0.0944027
1066 2 8.8873 2.08684 -0.243136
1564 1 9.00661 -0.027978 1.82003
2065 3 7.37746 1.81597 1.89016
2 2 10.5463 1.7988 1.96547
2567 1 10.5028 0.107896 0.0687939
3066 3 12.4891 1.8677 -0.000583209
3565 2 12.349 0.182668 2.03422
567 3 14.2506 0.189683 -0.0413144
1068 2 16.1104 1.86253 -0.233677
1565 1 16.2277 0.216971 1.67435
2066 3 14.1278 1.78172 1.87651
3 3 0.208095 5.32773 2.1674
2569 3 0.153674 3.95347 0.214116
3068 2 1.90533 5.42004 0.243082
3566 1 1.8833 3.34637 1.94245
569 2 3.51805 3.68146 -0.153427
1070 2 5.14221 5.31759 0.211339
1566 3 5.15868 3.74083 1.94699
2067 1 3.37528 5.37912 1.87726
4 1 6.98198 5.75161 2.12685
2571 3 6.9119 3.60065 0.239713
3070 3 8.99945 5.4799 0.295192
3567 2 9.00052 3.54312 1.75669
571 3 10.4233 3.53474 0.0375949
1072 3 12.4638 5.19003 0.120247
1567 3 12.2281 3.3119 1.74708
2068 2 10.821 5.30237 2.11268
5 2 14.5492 5.56236 1.92155
2573 2 14.3883 3.64542 0.142907
3072 3 16.0659 5.38974 0.0725662
3568 2 16.0296 3.48173 1.84888
573 1 -0.0286665 7.14032 0.0793523
1074 2 1.76001 9.10229 0.153759
1568 2 1.74045 7.40022 1.90166
2069 1 0.0201723 8.8978 1.85612
6 2 3.79302 8.74796 2.01236
2575 3 3.51821 7.34646 0.175579
3074 2 5.54586 8.63915 0.289499
3569 1 5.1769 7.10359 2.14081
575 3 7.28506 7.17334 0.46575
1076 1 8.88436 8.86415 0.543735
1569 2 8.96056 7.20857 2.28308
2070 3 7.08361 9.14581 2.22093
7 3 10.85 8.85997 1.95378
2577 3 10.6871 7.03496 0.171757
3076 1 12.5447 8.82963 0.0839342
3570 2 12.5819 6.93772 1.87366
577 1 14.5263 7.5025 0.15393
1078 2 16.3349 8.96512 -0.0452874
1570 2 16.2616 7.15857 1.6337
2071 3 14.5847 9.01021 1.74044
8 3 0.0709006 12.3085 1.60372
2579 1 -0.127744 10.7558 -0.0995089
3078 3 1.99676 12.5241 -0.198329
3571 2 1.76366 10.7724 1.81562
579 2 3.65612 10.6233 0.039555
1080 3 5.14294 12.5619 0.0916175
1571 1 5.15597 10.6633 1.86326
2072 1 3.53516 12.4816 1.82144
9 3 6.9426 12.3026 1.86412
2581 3 7.09562 10.4351 0.143865
3080 2 9.0626 12.4089 0.16972
3572 3 8.96336 10.922 1.89114
581 2 10.7817 10.6278 0.209006
1082 3 12.5762 12.6339 0.259871
1572 1 12.6387 10.8883 1.89315
2073 2 10.8685 12.5026 2.02439
10 3 14.4564 12.3993 1.83605
2583 1 14.6727 10.8318 0.193435
3082 3 16.3188 12.736 0.0331508
3573 1 16.4866 10.7223 1.8324
583 3 -0.245832 14.3332 -0.137589
1084 2 1.63569 16.2287 0.190941
1573 3 1.57398 14.1769 1.45802
2074 1 -0.0915601 16.2147 1.56521
11 1 3.31674 16.2226 1.84419
2585 1 3.7681 14.4876 -0.0116853
3084 2 5.35664 16.2774 0.019889
3574 3 5.19776 14.2732 1.80166
585 1 7.3145 14.3334 0.21857
1086 3 9.32068 15.9152 0.0974973
1574 1 8.87253 14.1607 2.2481
2075 1 7.10434 15.9397 1.82496
12 3 10.989 16.0654 1.9628
2587 3 10.815 14.2445 0.158543
3086 3 12.6467 16.0608 0.143782
3575 2 12.9177 14.5224 2.00883
587 2 14.4208 14.3602 0.047919
1088 3 16.0104 16.1354 0.119986
1575 2 16.2049 14.4792 1.78278
2076 2 14.5446 16.3389 1.97476
13 3 -0.203446 1.75052 5.38135
2564 3 0.0773797 0.154373 3.62779
3063 1 1.68498 1.80467 3.69706
3576 2 1.78159 -0.0919069 5.54186
564 2 3.5348 0.213218 3.5788
1065 2 5.41273 1.91982 3.77375
1576 3 5.16173 -0.158347 5.42854
2077 1 3.68781 1.76466 5.26681
14 1 6.92799 1.77265 5.66973
2566 1 7.24716 0.178052 3.79189
3065 2 8.78013 1.92868 3.68104
3577 3 8.89512 0.28047 5.36405
566 2 10.6457 0.298971 3.7053
1067 1 12.3843 1.88824 3.6634
1578 3 12.54 0.234384 5.51279
2079 3 10.681 1.84756 5.53224
16 3 14.4418 2.1334 5.24747
2568 2 14.2983 0.250219 3.64755
3067 1 16.0814 1.67371 3.58353
3579 2 16.2779 0.139964 5.39901
568 3 -0.00929231 3.49534 3.59666
1069 2 1.77773 5.41856 3.82309
1579 3 1.61744 3.39452 5.64046
2080 1 -0.203682 5.42967 5.50352
17 1 3.34284 5.36093 5.65101
2570 3 3.71397 3.80606 3.97568
3069 2 5.44291 5.56078 4.23363
3580 1 5.39658 3.58238 5.70846
570 3 7.09691 3.74054 3.54234
1071 3 8.78514 5.20741 3.7113
1581 1 8.81571 3.33569 5.36688
2082 1 7.30617 5.27123 5.54513
19 3 10.7002 5.05662 5.29219
2572 2 10.7454 3.40182 3.56375
3071 3 12.7247 5.58965 3.65408
3582 1 12.4288 3.49632 5.19763
572 1 14.157 3.62688 3.43909
1073 2 15.9905 5.25406 3.6271
1582 1 16.3256 3.51726 5.5037
2083 1 14.3505 5.54334 5.42607
20 2 -0.124542 8.86883 5.4274
2574 3 -0.262404 7.12343 3.77509
3073 3 1.67792 9.06592 3.56695
3583 3 1.79825 7.12554 5.47691
574 2 3.67019 6.98934 3.90008
1075 2 5.25297 9.10192 3.85814
1584 2 5.36789 7.2213 5.78943
2085 1 3.46191 8.923 5.37285
22 1 6.90266 9.01346 5.20664
2576 2 7.13232 7.32897 3.87821
3075 2 8.984 9.03366 3.67241
3585 2 9.0401 7.17253 5.33409
576 1 10.9773 7.12316 3.69557
1077 2 12.8092 9.00954 3.55641
1585 2 12.6385 7.33285 5.49383
2086 3 10.8439 9.04637 5.20375
23 2 14.4384 8.92212 5.27976
2578 1 14.4704 7.30222 3.54881
3077 2 16.2487 9.03277 3.67076
3586 2 16.1324 7.06599 5.30223
578 1 -0.142128 10.7018 3.35788
1079 3 1.73642 12.3796 3.57782
1587 1 1.83778 10.6675 5.61019
2088 3 0.0291288 12.2603 5.48679
25 3 3.22388 12.4891 5.36704
2580 1 3.4837 10.6814 3.59125
3079 1 5.02243 12.6272 3.50503
3588 3 5.26825 11.0029 5.4309
580 3 7.0246 10.8458 3.84248
1081 1 8.96664 12.7602 3.72352
1588 3 8.99633 10.977 5.44094
2089 1 7.01511 12.6439 5.65696
26 2 10.9282 12.4495 5.39175
2582 1 10.7252 10.5988 3.60617
3081 3 12.8602 12.5087 3.64247
3589 2 12.6871 10.6834 5.48573
582 1 14.4286 10.7812 3.87182
1083 3 16.1503 12.7083 3.67948
1590 1 16.4286 10.8874 5.5255
2091 2 14.3309 12.5143 5.45447
28 3 -0.198027 16.0897 5.3738
2584 3 -0.0903308 14.251 3.44471
3083 2 1.62839 16.2489 3.698
3591 1 1.44968 14.4409 5.15465
584 3 3.27734 14.3458 3.42224
1085 1 5.32323 16.0899 3.54117
1591 1 5.28585 14.3696 5.34531
2092 1 3.50363 15.9511 5.1962
29 1 7.34525 16.1931 5.52025
2586 3 7.15989 14.3824 3.81507
3085 3 8.9247 16.185 3.75625
3592 2 9.11804 14.3779 5.474
586 2 10.7043 14.3654 3.81256
1087 2 12.7341 15.9764 3.69975
1593 2 12.7191 14.1216 5.6468
2094 1 10.9711 15.9947 5.49249
31 3 14.3647 16.1453 5.41329
2588 2 14.4756 14.607 3.61124
3087 2 16.19 16.1639 3.55586
3594 3 16.1626 14.3884 5.31262
588 3 -0.130861 -0.0851112 7.32068
1089 1 1.87883 1.67724 7.24233
1594 2 1.92574 -0.0323602 8.89712
2095 3 0.0211845 1.82349 8.88509
1577 1 3.46781 0.0917041 7.31409
2078 2 5.53674 1.59073 7.3438
2596 1 5.23353 -0.0625045 9.31216
3095 2 3.63395 1.80563 8.83593
33 2 7.39913 1.39226 9.01747
2589 3 6.93765 -0.227726 7.1793
3088 3 8.82449 1.57731 7.31072
3596 3 9.1002 -0.123342 8.84642
15 3 12.4645 2.1532 7.06032
596 3 12.8001 0.237944 8.85623
1097 2 10.7155 1.86757 9.13753
3578 1 10.7667 0.344076 7.15182
589 3 14.2079 0.103868 7.10569
1090 2 16.0847 1.82474 7.10794
1597 2 16.1272 0.0250181 9.25004
2098 2 14.5612 2.01173 8.81304
1580 1 -0.0135046 3.66741 7.14361
2081 2 1.70802 5.24518 7.1601
2599 3 1.79613 3.70622 8.95399
3098 3 0.117258 5.26257 8.92645
36 1 3.41665 5.35048 9.02847
2590 3 3.62391 3.45283 7.21765
3089 3 5.29203 5.25878 7.45793
3599 1 5.58841 3.34268 9.12683
18 3 8.92294 5.1356 7.02197
599 2 8.92676 3.45592 8.84933
1100 1 7.16584 5.36266 8.96633
3581 2 7.06015 3.61706 7.32174
590 1 10.5444 3.45964 7.51853
1091 2 12.5316 5.21915 6.96298
1600 1 12.6174 3.64589 8.92686
2101 2 10.4387 5.38019 9.04815
1583 2 14.3796 3.68602 7.31533
2084 2 15.9851 5.4385 7.16546
2602 2 16.1892 3.58741 9.00364
3101 2 14.4912 5.44003 8.89987
39 1 0.0558385 8.78609 9.03789
2591 1 0.0977701 7.09896 7.19327
3090 3 1.58875 8.95631 7.22106
3602 1 1.8537 6.93317 9.11713
21 2 5.35739 9.03029 7.13684
602 2 5.53068 7.13444 8.89935
1103 2 3.45545 8.82793 8.88257
3584 1 3.45869 7.21269 7.20356
591 1 7.33209 7.08041 7.17513
1092 2 8.80604 9.00956 6.77429
1603 1 9.02014 7.03176 8.80203
2104 3 7.61878 8.76231 8.69126
1586 1 10.6133 7.42323 6.9544
2087 2 12.4269 8.92031 7.1986
2605 1 12.58 6.94204 9.07592
3104 3 10.5901 8.94179 8.61624
42 1 14.4587 9.14376 8.93529
2592 3 14.3166 7.51785 7.30768
3091 1 16.3681 9.02799 7.07267
3605 2 16.3045 7.17195 9.05183
24 3 1.70365 12.5177 7.28885
605 1 1.81943 10.7609 8.72669
1106 3 -0.180412 12.6059 9.20035
3587 3 -0.0315409 10.6875 7.33746
592 2 3.46118 10.9225 7.12392
1093 1 5.16699 12.5251 7.14991
1606 1 5.48145 10.559 8.84779
2107 1 3.65435 12.7761 9.03637
1589 3 7.05292 10.6726 7.09019
2090 2 8.93237 12.4892 7.04838
2608 1 8.96029 10.7749 8.93359
3107 3 7.15681 12.5073 8.81047
45 3 10.7766 12.348 8.87188
2593 2 10.8567 10.8978 7.21365
3092 3 12.7647 12.4505 7.29927
3608 1 12.4916 10.419 9.02164
27 2 16.2967 12.4545 7.37557
608 2 16.2448 10.8398 9.24398
1109 1 14.5942 12.5689 9.19437
3590 2 14.5677 10.8275 7.23168
593 1 -0.115358 14.3302 7.18557
1094 3 1.64209 16.143 7.02228
1609 3 1.51734 14.2552 9.06365
2110 2 0.102427 15.9178 9.15759
1592 3 3.4343 14.4039 7.36338
2093 3 5.30224 16.0692 7.27177
2611 2 5.3136 14.2755 9.13792
3110 3 3.45179 16.0584 8.99166
48 3 7.0725 16.0923 9.04173
2594 3 7.01328 14.4535 7.25152
3093 2 9.17645 16.178 7.41914
3611 3 8.99242 14.3216 8.86124
30 3 12.4919 16.2731 7.16439
611 1 12.7459 14.1889 9.14671
1112 1 10.6129 15.9162 9.05126
3593 2 10.8132 14.3595 7.30102
594 2 14.5016 14.2947 7.39786
1095 3 16.228 16.2914 7.11661
1612 1 16.2734 14.3964 8.94982
2113 3 14.1788 16.1859 8.85121
32 3 0.0819724 1.77632 12.547
2595 3 0.053255 -0.0105161 10.6901
3094 1 1.91928 1.90256 10.8985
3595 3 1.62734 0.0504214 12.4703
595 3 3.67931 -0.120362 10.9407
1096 2 5.32034 1.57414 10.7312
1595 3 5.3064 -0.118177 12.3573
2096 1 3.54422 1.81556 12.5308
34 1 7.16001 1.73249 12.4109
2597 3 7.33554 -0.305845 10.7451
3096 1 9.10356 1.71896 10.6793
3597 3 8.98828 0.11838 12.6807
597 2 10.7899 0.0684761 10.7596
1098 1 12.4165 2.03881 10.4775
1596 2 12.5127 -0.147024 12.5348
2097 2 10.7443 1.86445 12.3018
35 1 14.2353 1.81265 12.5827
2598 3 14.319 0.185782 10.8138
3097 3 16.0713 1.99155 10.7973
3598 2 16.045 -0.176109 12.6663
598 3 0.168776 3.6886 10.8718
1099 2 1.84077 5.45362 10.7536
1598 3 2.02365 3.70221 12.5225
2099 2 -0.0247908 5.37979 12.5928
37 2 3.57183 5.2267 12.4027
2600 2 3.63532 3.65264 10.7913
3099 3 5.49541 5.30782 10.7623
3600 2 5.24998 3.49614 12.3665
600 1 7.18221 3.48929 10.7371
1101 3 8.83874 5.43521 10.7615
1599 2 9.09119 3.79852 12.5987
2100 2 7.12984 5.35284 12.399
38 2 10.8798 5.67618 12.4549
2601 1 10.8232 3.64583 10.7563
3100 1 12.5643 5.43268 10.8912
3601 2 12.3873 3.62188 12.3666
601 3 14.3555 3.763 10.6089
1102 1 16.0716 5.47682 10.6074
1601 2 16.0041 3.77144 12.5033
2102 1 14.3128 5.24297 12.722
40 3 0.0671408 8.90529 12.5274
2603 2 -0.0363999 6.98551 10.7463
3102 3 1.91248 8.7505 10.8046
3603 1 1.67138 7.11269 12.3805
603 3 3.59745 7.19788 10.741
1104 1 5.37972 9.07512 10.5979
1602 3 5.2661 7.11754 12.7018
2103 3 3.41309 8.84498 12.5871
41 3 7.22799 8.98602 12.5692
2604 3 7.24643 7.13199 10.7994
3103 2 8.93855 8.91547 10.5928
3604 1 9.00798 7.23998 12.2287
604 2 10.6371 7.192 10.6614
1105 1 12.4759 8.73272 10.7451
1604 3 12.7712 7.10972 12.4944
2105 3 10.9343 8.95481 12.56
43 1 14.504 9.0255 12.5784
2606 2 14.3787 7.56308 10.7166
3105 1 16.038 8.91198 10.7227
3606 1 15.9167 7.2778 12.9005
606 3 0.152751 10.7843 10.8885
1107 3 1.67639 12.5942 10.8014
1605 2 1.79669 10.6658 12.6228
2106 1 0.0804446 12.3255 12.7223
44 1 3.60857 12.4949 12.7746
2607 3 3.64686 10.8598 10.5913
3106 1 5.37834 12.5314 10.6138
3607 1 5.03708 10.5344 12.5239
607 3 7.11096 10.6549 10.6735
1108 1 8.93127 12.5391 10.6613
1607 1 9.16803 10.5125 12.5063
2108 1 7.23806 12.5271 12.3805
46 3 10.8538 12.2788 12.6346
2609 3 10.5467 10.5852 10.5972
3108 1 12.4902 12.762 10.7623
3609 1 12.6015 10.6657 12.3833
609 3 14.3564 10.8001 10.7393
1110 2 16.1885 12.7815 10.8696
1608 1 15.988 10.9048 12.5124
2109 2 14.3117 12.3289 12.5314
47 2 -0.126243 15.5913 12.5519
2610 3 -0.042327 14.0632 10.9339
3109 1 1.71675 15.8868 10.9023
3610 3 1.79466 14.2203 12.6453
610 2 3.75325 14.3547 10.8946
1111 1 5.48366 15.9879 10.841
1610 2 5.47267 14.0543 12.4158
2111 2 3.6603 16.1576 12.5692
49 1 7.17 15.987 12.4094
2612 1 7.29749 14.3701 10.7753
3111 2 8.97543 16.2801 10.7675
3612 2 9.05272 14.2655 12.5251
612 2 10.5667 14.4143 10.5708
1113 2 12.5809 16.0514 10.8324
1611 1 12.4211 14.2968 12.2346
2112 2 10.8217 16.2506 12.4632
50 3 14.4208 16.032 12.621
2613 1 14.4667 14.5074 10.7008
3112 3 16.1538 16.1631 10.6715
3613 2 16.2834 14.4688 12.675
613 1 -0.0876749 0.249654 14.346
1114 1 1.68953 1.79049 14.3325
1613 2 1.83005 0.290222 15.9738
2114 3 -0.231418 1.975 16.2634
51 1 3.75217 1.90382 15.8374
2614 2 3.4665 0.0932837 14.3659
3113 2 5.45856 1.72381 14.3224
3614 2 5.46378 -0.0600907 15.9365
614 1 7.56241 0.045083 14.5207
1115 1 9.06453 1.86463 14.227
1614 1 9.1871 0.0528105 16.0475
2115 2 7.36477 1.82543 16.2711
52 3 10.7679 1.76586 16.0963
2615 3 10.63 0.046227 14.202
3114 2 12.5719 1.672 14.2016
3615 2 12.4063 -0.142953 16.1898
615 3 14.3718 -0.150534 14.4315
1116 1 16.1455 1.62957 14.4615
1615 2 16.1305 0.197668 16.4451
2116 3 14.2979 1.81061 16.2379
53 1 -0.0196303 5.20983 16.0687
2616 2 0.146299 3.60644 14.2814
3115 3 1.69938 5.59483 14.3558
3616 1 2.01095 3.97339 16.1666
616 1 3.85429 3.78002 14.3618
1117 2 5.53928 5.45898 14.2884
1616 1 5.51053 3.6493 16.0045
2117 1 3.65412 5.48789 16.1881
54 3 7.27068 5.3364 16.1412
2617 1 7.03398 3.57677 14.1071
3116 2 8.81815 5.38037 14.4026
3617 1 8.78885 3.43405 16.2071
617 2 10.7171 3.59831 14.2081
1118 2 12.6872 5.61336 14.2409
1617 3 12.5312 3.55181 15.8293
2118 1 10.7671 5.41236 16.2031
55 1 14.3895 5.37804 16.0433
2618 3 14.2764 3.3945 14.2152
3117 2 15.9425 5.3336 14.1782
3618 3 15.9232 3.59472 16.0563
618 2 -0.268835 7.07855 14.2931
1119 1 1.7782 8.70236 14.5023
1618 2 1.74723 7.1575 16.1287
2119 3 -0.073911 9.06108 16.071
56 3 3.44304 8.83175 16.2261
2619 1 3.58239 6.97894 14.3
3118 1 5.24983 8.84209 14.4082
3619 1 5.44049 7.10786 16.0031
619 3 7.49104 7.19736 14.3213
1120 2 9.03119 8.93657 14.291
1619 3 9.1607 7.21018 15.9088
2120 3 7.2904 9.05646 15.763
57 1 10.7996 9.18771 16.2119
2620 2 10.8419 7.06514 14.2063
3119 3 12.8142 8.91462 14.3878
3620 2 12.379 7.1385 16.0087
620 1 14.4173 6.98475 14.3875
1121 1 16.034 8.95815 14.4108
1620 1 16.1028 7.10077 16.2589
2121 2 14.4473 8.70646 16.3085
58 3 0.0221577 12.7167 16.2109
2621 3 0.173816 10.7109 14.4173
3120 3 1.69226 12.5252 14.5264
3621 1 1.68762 10.8528 16.3373
621 3 3.24348 10.7511 14.4208
1122 3 5.33227 12.469 14.447
1621 3 5.29622 10.828 15.9894
2122 3 3.5181 12.4563 16.1179
59 1 7.39101 12.4774 16.0494
2622 3 7.07015 11.0043 14.2837
3121 2 9.13159 12.4217 14.3693
3622 1 8.98593 10.8262 16.0618
622 3 10.8617 10.446 14.3646
1123 1 12.5276 12.5584 14.2874
1622 2 12.7846 10.4822 16.1986
2123 1 10.9926 12.3792 15.8761
60 1 14.0051 12.6568 16.1667
2623 2 14.3523 10.7274 14.5163
3122 2 16.1747 12.5595 14.3729
3623 3 16.2001 11.0602 16.2978
623 3 -0.170867 14.1743 14.4392
1124 1 1.84596 16.0396 14.367
1623 3 1.84428 14.6278 16.2453
2124 3 -0.055504 16.0608 16.089
61 3 3.63058 16.1112 16.0931
2624 2 3.63766 14.2406 14.4221
3123 3 5.46985 16.1932 14.2151
3624 1 5.27661 14.3905 16.168
624 2 7.1715 14.1767 14.2369
1125 2 8.86249 16.0265 14.2966
1624 1 9.21521 14.2484 15.9285
2125 1 7.13046 16.0491 16.0634
62 2 10.7991 16.1796 16.0178
2625 1 10.8334 14.2932 14.249
3124 1 12.582 16.0755 14.3327
3625 1 12.3047 14.454 16.0499
625 3 14.2271 14.1523 14.3261
1126 1 16.1853 16.2057 14.2866
1625 2 15.9814 14.2175 16.1508
2126 3 14.2697 15.836 15.9467
501 1 0.0741838 -0.0656666 21.3699
63 3 0.168371 1.83743 19.7254
1127 1 2.08183 1.87871 21.5144
2626 3 -0.0189906 0.0886937 17.9138
3125 1 2.10389 2.04253 17.7081
3626 2 1.87052 0.146887 19.5406
502 2 3.83213 0.0280081 18.248
1128 2 5.44667 1.67697 17.8102
1626 3 5.62335 -0.0343953 19.5433
2127 1 3.68122 1.93455 19.6996
2627 3 3.74122 0.0334592 21.395
3126 1 5.36026 2.03222 21.3382
503 3 7.16687 0.150782 21.3844
64 1 7.21985 2.02045 19.6772
1129 2 8.90524 1.90653 21.7061
2628 1 7.34026 0.0134735 17.7442
3127 3 8.96922 1.62828 17.856
3627 3 8.98266 -0.11564 19.6832
504 3 10.6871 -0.0522553 17.8185
1130 1 12.6135 1.90333 17.7776
1627 2 12.4997 0.030872 19.7912
2128 3 10.6643 1.61166 19.8981
2629 3 10.6717 0.178207 21.6039
3128 1 12.5885 1.68696 21.5831
505 2 14.3775 0.0417938 21.659
65 2 14.2162 1.76518 19.7524
1131 2 16.0998 1.76992 21.4575
2630 3 14.1483 -0.0915308 18.0363
3129 1 16.2339 1.97992 18.0918
3628 3 16.0676 0.0157727 19.8392
506 3 0.0545485 3.48534 17.9975
1132 2 2.097 5.35409 17.9874
1628 3 2.00013 3.61677 19.522
2129 1 0.0665083 5.38807 19.606
2631 1 0.251646 3.40863 21.471
3130 2 1.8202 5.54536 21.2158
507 2 3.64357 3.7066 21.4456
66 1 3.75735 5.59557 19.7044
1133 1 5.45203 5.48126 21.6062
2632 1 3.84298 3.35348 17.7972
3131 3 5.53693 5.42788 17.744
3629 2 5.33729 3.73987 19.73
508 1 7.09453 3.61591 17.8681
1134 3 9.15378 5.40555 17.7814
1629 3 9.23934 3.54315 19.8211
2130 3 7.144 5.50792 19.6341
2633 3 7.13709 3.65937 21.221
3132 1 8.93346 5.32827 21.3717
509 3 10.9926 3.59107 21.6471
67 3 10.9721 5.23519 19.894
1135 2 12.6612 5.4799 21.5407
2634 3 10.6658 3.41516 17.7472
3133 3 12.6093 5.16365 17.8467
3630 2 12.3162 3.24092 19.7208
510 1 14.2024 3.41539 18.0868
1136 2 16.0676 5.25695 17.9326
1630 3 16.3233 3.58995 19.8154
2131 2 14.3058 5.2612 19.6355
2635 2 14.3913 3.50068 21.4991
3134 3 15.8435 5.4442 21.4661
511 2 0.0159919 6.93019 21.4086
68 1 -0.004151 9.05196 19.8934
1137 3 1.99331 8.839 21.4479
2636 2 -0.0964734 7.3754 17.944
3135 1 1.84446 9.16185 17.8428
3631 3 1.81961 7.20666 19.5154
512 3 3.62646 7.16113 17.9238
1138 3 5.44505 8.89414 17.8989
1631 3 5.61424 7.12198 19.4243
2132 1 3.60775 8.94359 19.6898
2637 1 3.82627 7.11197 21.2966
3136 3 5.47516 8.99284 21.5443
513 1 7.31463 7.07519 21.5208
69 1 7.21663 9.00383 19.5768
1139 2 8.86859 8.94228 21.4925
2638 1 7.54397 7.25329 17.542
3137 2 8.96809 9.10066 17.7809
3632 3 9.10491 7.18538 19.4941
514 1 10.8125 7.19329 17.8414
1140 2 12.6132 9.09052 17.9347
1632 3 12.524 7.10351 19.6559
2133 3 10.793 8.84543 19.6976
2639 1 10.669 7.25782 21.2871
3138 3 12.7015 8.91833 21.379
515 1 14.4502 7.33424 21.4789
70 3 14.5195 9.14425 19.7589
1141 3 16.1202 9.20818 21.53
2640 1 14.2343 7.30609 17.9179
3139 1 16.1168 9.18547 17.9419
3633 2 15.8448 7.06514 19.6445
516 1 0.0489754 10.7384 17.9229
1142 1 1.8922 12.4609 17.7911
1633 2 1.83994 10.7417 19.6677
2134 2 0.0262957 12.517 19.4864
2641 1 0.228908 10.7827 21.3904
3140 1 1.80485 12.4316 21.4647
517 3 3.75531 10.7521 21.3453
71 2 3.52958 12.7012 19.401
1143 3 5.55625 12.6823 21.2676
2642 2 3.60647 10.8951 18.1345
3141 2 5.50613 12.3674 17.9477
3634 2 5.50164 10.5846 19.472
518 2 7.15807 10.5633 17.892
1144 2 9.09299 12.6212 17.8657
1634 1 8.93105 10.9671 19.4177
2135 2 7.36019 12.6473 19.4676
2643 3 7.41086 10.4876 21.3954
3142 2 8.9955 12.3688 21.165
519 3 10.9104 10.854 21.2983
72 3 10.7773 12.5555 19.6146
1145 2 12.4719 12.6347 21.3398
2644 3 10.8023 10.7982 17.8093
3143 2 12.5311 12.6441 17.8023
3635 1 12.6542 10.7127 19.7464
520 2 14.2461 10.9891 17.9338
1146 3 16.1105 12.6517 18.1711
1635 3 16.3232 10.856 19.666
2136 1 14.1178 12.6951 19.5908
2645 3 14.47 10.8388 21.6093
3144 3 16.0666 12.6328 21.3511
521 3 0.0557997 14.4032 21.618
73 1 0.271045 16.3194 19.9237
1147 3 2.12148 15.9237 21.8455
2646 2 0.080148 14.2301 18.0095
3145 1 1.87936 16.2949 18.081
3636 3 1.72352 14.4482 19.8118
522 3 3.72897 14.3667 17.8318
1148 1 5.51296 16.1933 17.9012
1636 3 5.57669 14.5296 19.4538
2137 2 3.55541 16.0515 19.7513
2647 1 3.62219 14.2359 21.1287
3146 3 5.75692 15.9652 21.2832
523 3 7.42684 14.1206 21.5416
74 1 7.459 16.1526 19.4984
1149 2 8.97357 16.1988 21.2944
2648 1 7.16961 14.2397 17.8222
3147 2 9.05706 16.16 17.7268
3637 1 9.03943 14.3087 19.5767
524 1 10.5396 14.3552 17.9205
1150 3 12.5385 16.1552 17.8135
1637 1 12.6597 14.5137 19.75
2138 3 10.808 16.2161 19.7343
2649 1 10.9209 14.335 21.6987
3148 3 12.6969 16.2749 21.4781
525 1 14.2965 14.3961 21.3715
75 3 14.3337 16.1768 19.587
1151 3 16.2389 16.18 21.6326
2650 2 14.1615 14.3769 17.9764
3149 1 15.8536 16.1 17.956
3638 3 16.0984 14.2749 19.9012
1638 2 1.61057 0.00643692 23.2237
2139 3 0.202299 1.79686 23.3627
2651 1 -0.206316 0.00473431 25.0555
3150 3 1.74198 1.70221 25.1011
526 1 3.46388 0.143891 24.8496
77 2 3.77709 1.87159 23.2087
1152 2 5.21263 1.63304 24.9977
3640 2 5.34407 -0.12112 23.3425
1640 1 8.75187 -0.182097 23.1784
2141 2 7.10139 1.7686 23.1241
2652 3 7.19544 0.22207 25.148
3151 2 9.05048 1.8654 24.9582
527 3 10.5462 0.0389588 24.8833
79 2 11.0134 1.87303 23.1464
1153 3 12.6705 2.02018 24.9929
3642 2 12.3628 0.0701393 23.3709
1642 1 16.034 0.147209 23.3757
2143 2 14.2197 1.86276 23.1254
2653 3 14.2145 0.0982696 25.0438
3152 3 16.084 1.53962 25.0125
528 3 0.0837779 3.57105 25.1306
81 1 0.159396 5.40871 23.3191
1154 1 1.9682 5.55651 25.1157
3644 1 1.85274 3.59157 23.2853
1644 2 5.43681 3.53449 23.248
2145 3 3.69176 5.2742 23.4239
2654 1 3.81024 3.44486 25.2476
3153 1 5.41098 5.5943 25.1949
529 1 7.06341 3.51528 25.0227
83 2 7.39874 5.36316 23.2851
1155 1 8.99863 5.52561 24.9782
3646 3 8.81407 3.60746 23.3252
1646 2 12.6786 3.62965 23.12
2147 1 10.8105 5.32758 23.2565
2655 1 10.7766 3.7664 24.8847
3154 1 12.8257 5.21223 25.1045
530 1 14.4479 3.63933 25.1531
85 3 14.3952 5.6301 23.1605
1156 3 16.1738 5.49205 24.9734
3648 1 16.1178 3.51325 23.2927
1648 1 2.18783 7.09009 23.3235
2149 1 0.300886 8.90125 23.2662
2656 1 0.163367 7.34679 25.1037
3155 1 1.91173 9.16417 25.1222
531 1 3.64917 7.33949 25.1538
87 2 3.53415 9.18449 23.2445
1157 1 5.45155 9.06103 25.1499
3650 3 5.52201 7.03178 23.3711
1650 3 9.28893 7.18784 23.05
2151 2 7.32099 8.96101 23.3153
2657 2 7.34062 7.21674 24.8742
3156 2 8.93 8.99188 25.0219
532 3 10.9417 7.1099 25.1297
89 3 10.9781 8.98299 23.0989
1158 3 12.6408 8.9545 25.0984
3652 3 12.4006 7.14178 23.3016
1652 1 16.0885 7.41433 23.4044
2153 3 14.3206 8.87382 23.1832
2658 3 14.2942 7.16323 24.9045
3157 1 16.1829 9.08383 25.0296
533 1 0.311701 10.6773 24.7919
91 2 -0.0545143 12.4784 23.3099
1159 1 2.1339 12.506 25.0454
3654 2 1.94867 10.8434 23.2769
1654 1 5.60162 10.7988 23.0797
2155 3 3.89169 12.3536 23.1744
2659 2 3.96589 10.7253 24.917
3158 3 5.52507 12.4126 25.1441
534 2 7.31048 10.6578 24.9605
93 1 7.50105 12.3425 22.9968
1160 1 8.9411 12.5552 25.0497
3656 2 9.25562 10.5296 23.0189
1656 1 12.476 10.9225 23.2409
2157 1 10.6289 12.4094 23.2771
2660 2 10.8616 10.5717 25.0889
3159 2 12.4391 12.5414 25.2966
535 3 14.2522 10.8149 24.9823
95 3 14.154 12.6339 23.2938
1161 2 16.1296 12.4103 25.2231
3658 1 16.2295 10.9211 23.127
1658 1 2.18047 14.1038 23.268
2159 3 0.198943 15.733 23.2228
2661 2 0.1803 14.2983 24.9698
3160 3 1.92789 16.1874 25.0397
536 2 3.85423 14.575 24.9648
97 1 4.01781 16.189 23.3768
1162 3 5.59802 16.0779 24.9821
3660 2 5.51497 14.0863 23.0665
1660 3 9.03158 14.2436 23.4216
2161 3 7.3456 16.2086 23.0973
2662 3 7.14427 14.083 25.0722
3161 3 8.82993 16.0495 24.9836
537 1 11.0837 14.3601 25.3185
99 3 10.744 15.8998 23.2516
1163 3 12.643 16.3391 24.8707
3662 2 12.6453 14.4207 23.0972
1662 3 16.0926 14.3206 23.6092
2163 1 14.3448 15.9583 23.3304
2663 2 14.2255 14.1919 25.1426
3162 3 16.1952 16.1618 25.1071
76 2 -0.18073 1.5861 26.7405
3639 1 2.05463 0.0497797 26.7894
1639 2 5.20716 0.27961 26.8962
2140 2 3.51484 1.65551 26.8125
78 1 7.20719 1.86718 26.8423
3641 1 8.78588 0.298944 26.9597
1641 1 12.2859 0.0063733 26.8273
2142 3 10.5295 1.7399 26.7966
80 3 14.2735 1.63609 26.792
3643 3 16.0826 0.0323454 26.8868
1643 1 1.99562 3.46601 26.7564
2144 2 0.248463 5.4624 26.66
82 2 3.57232 5.3969 26.8486
3645 1 5.34894 3.55297 26.8331
1645 1 8.87842 3.57577 26.6214
2146 3 7.371 5.31566 26.7421
84 1 10.6717 5.19072 26.8054
3647 1 12.7076 3.55574 27.1327
1647 2 16.2247 3.59921 26.8851
2148 2 14.5968 5.39709 26.8028
86 3 0.113787 9.09111 26.9001
3649 2 1.94574 7.20664 26.8977
1649 3 5.44518 7.23137 26.8572
2150 1 3.68019 9.07829 27.0885
88 1 7.25554 8.91744 26.6712
3651 2 9.14783 7.12128 26.8411
1651 2 12.7056 7.39428 26.7378
2152 1 10.6646 8.95158 26.8071
90 1 14.3741 9.12112 26.7899
3653 3 16.0035 7.47247 26.5399
1653 3 2.11468 10.7469 26.7736
2154 3 0.253474 12.4114 26.4143
92 2 3.79618 12.5844 27.0301
3655 1 5.55213 10.8924 26.8275
1655 2 9.12182 10.806 26.8015
2156 3 7.40259 12.6306 26.8421
94 1 10.6533 12.3972 26.845
3657 1 12.6528 10.5633 26.7098
1657 2 16.3856 10.7041 26.9301
2158 2 14.3622 12.5307 26.8949
96 1 0.0806393 16.059 26.6506
3659 3 2.13496 14.2156 26.5126
1659 2 5.80406 14.4738 26.8075
2160 1 3.81696 16.1374 26.6104
98 1 7.23282 15.942 26.9095
3661 3 9.14424 14.3681 26.9664
1661 2 12.8913 14.5126 26.6974
2162 3 10.9146 16.1644 26.8651
100 3 14.4496 16.3077 26.7286
3663 1 15.9157 14.3879 26.6959
538 1 -0.159966 -0.0382538 28.6337
1164 1 1.59859 1.64717 28.4886
1663 3 1.67513 -0.00348296 30.5011
2164 2 -0.161126 1.79928 30.3778
101 3 3.61903 1.74619 30.3936
2664 1 3.6196 0.141438 28.9007
3163 3 5.39044 1.86559 28.743
3664 2 5.53912 0.0659813 30.5567
539 1 7.09238 0.154511 28.7002
1165 3 8.99734 2.25377 28.7089
1664 1 8.79875 -0.0103662 30.5883
2165 2 7.30831 2.12012 30.294
102 2 10.7513 1.72179 30.478
2665 2 10.7239 0.0386253 28.7306
3164 3 12.3912 1.70961 28.4868
3665 2 12.7654 0.26239 30.4493
540 2 14.4271 0.0891053 28.9426
1166 1 16.3606 2.04369 28.6932
1665 3 16.3322 0.0568834 30.5085
2166 1 14.4334 1.97411 30.4142
103 3 -0.305776 5.30654 30.1698
2666 2 0.190676 3.45706 28.4386
3165 1 1.71159 5.29221 28.5577
3666 3 1.62318 3.54952 30.5967
541 3 3.50184 3.49505 28.6805
1167 3 5.36816 5.41277 28.6037
1666 2 5.43138 3.88002 30.2863
2167 3 3.3735 5.18015 30.2129
104 1 7.10135 5.59804 30.4147
2667 1 6.99873 3.71202 28.5972
3166 3 9.0783 5.52186 28.7482
3667 1 9.05482 3.80462 30.56
542 3 10.7874 3.58848 28.8402
1168 1 12.5853 5.52039 28.4213
1667 1 12.6056 3.55288 30.2669
2168 3 10.7768 5.77783 30.2885
105 1 14.3101 5.39996 30.2753
2668 1 14.5068 3.46795 28.6938
3167 1 16.0509 5.61603 28.5825
3668 3 16.2695 3.68906 30.3154
543 1 -0.0540028 7.38681 28.396
1169 2 1.84161 9.12355 28.6647
1668 3 1.81701 7.31488 30.0907
2169 3 0.0661511 9.1235 30.4535
106 1 3.75159 9.04366 30.4189
2669 1 3.69778 7.28846 28.5685
3168 3 5.52417 8.90342 28.6942
3669 1 5.67281 7.43457 30.2934
544 1 7.41972 6.90977 28.5566
1170 1 9.1019 9.12291 28.8144
1669 3 8.95024 7.46501 30.6139
2170 3 7.38978 9.18955 30.4591
107 1 10.8618 9.08744 30.3872
2670 2 10.9702 7.3926 28.5473
3169 2 12.5952 8.89883 28.7934
3670 3 12.8007 7.13009 30.2158
545 3 14.5948 7.37359 28.499
1171 1 16.2155 8.90501 28.6236
1670 3 16.3332 7.34132 30.3417
2171 3 14.3864 8.89641 30.4979
108 3 -0.00437133 12.683 30.1142
2671 1 0.000135962 10.839 28.7285
3170 1 2.12317 12.7995 28.8189
3671 1 1.81793 10.9206 30.3668
546 3 3.65848 10.8065 28.6232
1172 3 5.51049 12.6744 28.7206
1671 1 5.42746 10.8611 30.3141
2172 3 3.89127 12.5133 30.2854
109 3 7.47682 12.3595 30.6193
2672 2 7.37384 10.7946 28.563
3171 1 9.11543 12.4303 28.5681
3672 2 9.18828 10.6792 30.5434
547 3 11.055 10.6598 28.4503
1173 3 12.446 12.4917 28.5087
1672 1 12.6925 10.7783 30.5232
2173 2 10.7787 12.419 30.2776
110 2 14.3969 12.6059 30.4055
2673 2 14.2317 10.7127 28.5653
3172 1 16.1245 12.3987 28.5372
3673 3 16.2336 10.7604 30.5697
548 3 0.00773125 14.2441 28.2777
1174 3 1.89258 15.8842 28.3897
1673 2 1.94597 14.4872 30.3719
2174 1 0.168978 16.1113 30.3234
111 3 3.98295 16.1029 30.5306
2674 1 3.9883 14.3762 28.7813
3173 1 5.55092 16.2026 28.5728
3674 3 5.68975 14.3706 30.3419
549 3 7.36405 14.2279 28.6694
1175 3 9.0722 16.1289 28.5497
1674 1 9.24995 14.432 30.3259
2175 3 7.26526 16.0464 30.5117
112 2 11.1594 16.1779 30.3001
2675 2 10.9694 14.3439 28.554
3174 2 12.6879 16.2216 28.4949
3675 1 12.5683 14.1017 30.5513
550 1 14.2193 14.2921 28.4875
1176 1 16.0085 16.1391 28.9233
1675 1 16.1603 14.3238 30.4319
2176 1 14.3202 16.0067 30.5188
113 3 -0.075723 1.84947 34.0371
2676 2 -0.0419438 0.339012 32.3575
3175 1 1.82138 2.04528 32.2983
3676 1 1.67826 0.0392745 33.8341
551 3 3.47601 0.105746 32.1335
1177 1 5.54949 2.01314 31.9823
1676 3 5.45016 0.136459 33.7856
2177 2 3.69298 1.92922 33.7707
114 2 7.07462 2.05113 33.9346
2677 3 6.99424 0.0432129 32.2399
3176 1 9.02925 1.95929 32.2572
3677 2 8.95962 0.15251 33.7059
552 1 10.9132 0.120806 32.0562
1178 3 12.5256 1.91629 32.1872
1677 2 12.3958 0.080446 34.1031
2178 2 10.621 1.89401 34.0434
115 1 14.4514 2.01335 33.8845
2678 2 14.5328 0.054018 32.1993
3177 2 16.0229 1.9627 31.9322
3678 1 16.1933 0.107421 33.8083
553 1 -0.0662768 3.76388 32.2757
1179 1 1.5278 5.53934 31.8933
1678 1 1.84017 3.75518 33.9989
2179 2 0.13634 5.42696 33.966
116 3 3.49142 5.51689 33.9715
2679 2 3.95506 3.80864 32.3346
3178 3 5.45897 5.40759 32.086
3679 3 5.55276 3.79298 34.0707
554 2 7.26552 3.79183 32.0836
1180 1 9.11354 5.6564 32.3125
1679 3 8.80563 4.04542 34.1487
2180 1 7.00296 5.49775 34.0125
117 1 10.642 5.61528 34.1119
2680 3 10.6401 3.68024 32.403
3179 3 12.3593 5.5509 32.2561
3680 1 12.3539 3.64784 34.1138
555 3 14.0444 3.87161 32.1978
1181 3 15.915 5.50154 32.0057
1680 1 15.9996 3.74569 33.7122
2181 3 14.1887 5.49397 34.2216
118 1 0.548276 9.25673 34.0194
2681 2 0.108335 7.35316 32.0116
3180 3 2.06796 8.90955 32.1008
3681 1 1.91355 7.23888 34.0158
556 3 3.35331 7.03689 32.1136
1182 2 5.54149 9.01411 32.2417
1681 1 5.34726 7.12658 34.2206
2182 1 3.52591 8.93992 33.7484
119 2 7.12277 8.92794 34.0768
2682 2 7.13653 7.25607 32.1793
3181 1 9.12103 8.88325 32.3034
3682 1 8.93825 7.25811 34.2743
557 2 10.8577 7.38334 32.0616
1183 2 12.567 9.06423 32.1823
1682 2 12.4023 7.27802 34.0203
2183 1 10.7256 8.83108 34.2193
120 1 14.4813 8.86787 34.2193
2683 1 14.0964 7.10299 32.2852
3182 2 16.2077 9.01609 32.1902
3683 2 16.0999 7.09705 33.8133
558 3 0.21433 10.7732 32.0271
1184 2 1.80346 12.8437 31.977
1683 1 2.2172 10.7892 34.027
2184 1 -0.0354963 12.3469 33.9089
121 3 3.69714 12.6858 33.7768
2684 3 3.75742 10.9924 32.016
3183 3 5.55367 12.6054 32.245