ITEM: TIMESTEP
5000
ITEM: NUMBER OF ATOMS
4000
ITEM: BOX BOUNDS pp pp pp
1.2977011598428589e-01 3.5604289884015515e+01
1.2977011598428589e-01 3.5604289884015515e+01
1.2977011598428589e-01 3.5604289884015515e+01
ITEM: ATOMS id type x y z
563 1 0.321816 0.174138 0.0132421
1064 3 2.04713 1.86573 0.160154
1563 2 1.99953 0.069787 1.79937
2064 2 0.143568 2.02655 1.86299
1 3 3.78483 2.05825 1.71948
565 1 7.24234 0.275307 0.347284
2065 2 7.48086 1.93199 2.10206
2565 3 3.91997 0.244967 0.062259
3064 1 5.50183 2.0367 0.168176
3564 2 5.51734 0.0664146 1.98208
2 2 10.7239 1.97551 1.87715
1066 2 9.11218 1.82601 0.140338
1564 1 9.01459 0.200176 2.03949
2566 1 10.789 0.205872 0.0450864
567 2 14.3475 0.215431 0.199538
2066 2 14.3056 1.9136 1.82871
3066 2 12.6689 1.9433 0.189541
3565 2 12.4914 0.15076 1.98997
751 3 17.9076 0.237818 -0.0287424
1068 3 15.8855 1.88981 0.0130926
1565 2 16.2426 0.255481 1.81354
2001 1 17.7862 2.03044 2.05796
3 1 0.20169 5.53168 1.90665
573 1 -0.0331762 7.38215 0.0310394
1568 3 2.00659 7.24362 1.88808
2569 3 0.100795 3.69547 0.0691211
3068 3 1.91489 5.42035 0.0581689
3566 3 1.91428 3.79448 2.03852
4 3 7.26524 5.64119 2.18402
569 3 3.68966 3.83773 0.140079
577 1 7.20112 7.21771 0.108716
1070 3 5.47112 5.57073 0.115351
1566 3 5.48922 3.64064 2.00799
2067 1 3.81795 5.37034 1.96408
2576 3 3.68312 7.14735 0.168757
2571 3 7.17463 3.81725 0.392417
3570 3 5.46995 7.20479 2.01866
570 3 10.9182 3.89352 0.0705941
1570 2 9.07132 7.21672 1.92334
2068 1 10.7305 5.591 1.95947
2578 1 10.6115 7.36145 0.171628
3070 3 9.04815 5.4288 0.262069
3567 1 9.21545 3.70435 2.05179
5 3 14.2879 5.40305 1.87466
581 2 14.4951 7.28023 0.285398
1072 3 12.493 5.72112 0.0903992
1567 1 12.4324 3.68525 1.85126
2573 3 14.2863 3.8124 0.215991
3572 2 12.5024 7.4647 1.82998
253 2 17.8422 5.41728 1.89589
761 3 18.0379 7.23245 0.0763828
1572 2 16.1204 7.30751 1.98922
2819 1 17.7543 3.66604 0.216339
3072 1 16.0725 5.45995 0.0878962
3568 3 16.1077 3.67486 1.99432
1074 3 1.96816 8.86488 0.050401
2069 2 0.144789 9.04728 1.78641
2574 1 0.0808336 10.7926 0.0645802
3569 3 1.91061 10.8634 1.73248
6 1 3.60748 9.06521 1.86469
575 1 3.68477 10.7471 0.0748234
1569 2 5.41119 10.8374 1.84245
2070 1 7.09312 8.96468 1.98712
2579 1 7.00979 10.6544 0.122414
3074 3 5.31513 9.00438 0.142802
7 3 10.5577 8.97264 2.03284
578 1 10.7585 10.7417 -0.00321296
1076 2 9.02995 9.07233 0.0827332
3571 1 9.01735 10.8926 2.0077
1571 3 12.5016 10.7473 1.8824
2071 2 14.3734 8.99583 1.96922
2582 2 14.281 10.8182 0.198581
3076 3 12.4385 9.08993 0.182116
1078 1 16.2779 8.9292 -0.00105055
2006 3 17.8835 8.94355 1.93646
2825 2 17.913 10.6745 0.144645
3573 1 16.1563 10.8153 1.81891
8 1 0.117887 12.6862 1.95948
583 2 0.0909808 14.1463 0.0729481
1573 2 1.86109 14.3246 1.91387
3078 2 1.9165 12.5687 0.0747651
9 2 7.32734 12.6599 1.90686
585 1 7.15798 14.4184 0.0313886
1080 1 5.52997 12.6782 0.12669
2072 1 3.6194 12.5445 1.81383
2585 1 3.86639 14.2744 0.203311
3574 2 5.5224 14.4631 1.92762
1574 1 9.11276 14.3398 1.85842
2073 2 10.7339 12.6037 1.6056
2586 3 10.7991 14.6479 0.0787216
3080 1 8.98443 12.5187 0.293149
10 2 14.3726 12.5315 1.89407
587 1 14.3848 14.3003 0.0944694
1082 1 12.6717 12.6687 0.0848826
3575 3 12.4632 14.1985 1.89375
258 1 18.0429 12.5288 1.8198
771 3 17.8327 14.3128 0.129616
1575 2 16.0245 14.4311 1.81654
3082 2 15.9615 12.4285 0.164298
626 1 0.00875781 17.8741 0.446729
1084 1 1.85362 15.9175 0.221503
1688 1 1.84581 17.8768 1.86807
2074 2 0.146129 16.1154 2.11449
11 2 3.65063 16.1923 1.89168
630 3 7.28592 17.9892 -0.055538
2075 3 7.3553 16.2931 1.83162
2691 2 3.69971 17.8792 0.200321
3084 1 5.42364 16.1323 0.254126
3690 1 5.41194 18.055 1.88966
12 1 10.8392 16.0794 2.11977
1086 1 8.95089 16.02 0.123333
1690 1 9.17625 17.7458 1.96053
2693 3 10.8148 17.9236 0.137397
634 3 14.3921 17.95 0.113058
2076 2 14.2867 16.2103 1.86547
3086 3 12.5088 15.9716 0.116111
3692 1 12.5919 17.9466 1.87602
876 2 17.8643 17.8554 -0.00760768
1088 1 16.0447 16.0939 0.0419624
1692 2 16.1784 17.8427 1.75854
2011 2 17.8075 16.2063 1.80122
13 3 0.323651 1.73527 5.35547
588 3 0.116336 0.109261 7.22472
1089 3 1.83583 1.99335 7.30936
2564 3 0.334504 -0.0316646 3.50615
3063 2 1.82407 1.96432 3.55677
3576 1 1.83348 0.0757176 5.30414
14 3 7.16981 1.74113 5.4159
564 1 3.72882 0.185192 3.55577
1065 2 5.51638 1.88905 3.65092
1577 1 3.70393 -0.0287072 7.21428
1576 2 5.64938 -0.0912333 5.50773
2078 3 5.4223 1.8566 7.18261
2077 2 3.79608 1.90642 5.35877
2589 1 7.29123 -0.0352324 7.12172
2567 1 7.24089 0.151141 3.67615
566 2 10.7742 0.27394 3.63367
2079 3 10.9439 1.99835 5.30977
3065 2 9.05866 1.90255 3.74927
3088 1 8.89344 1.94832 7.30513
3578 2 10.7996 0.220128 7.09211
3577 2 9.13281 0.165496 5.5169
15 2 12.6001 1.99167 7.10551
16 2 14.2414 1.95185 5.45754
589 2 14.395 0.220798 7.17865
1067 2 12.4573 1.9743 3.48891
1578 2 12.6154 0.276964 5.57815
2568 1 14.5021 0.179003 3.75397
263 3 17.9671 1.83654 5.48169
776 3 17.9166 0.0190032 7.24631
1090 1 16.2053 1.90827 7.20025
2815 2 17.9979 0.0294219 3.76199
3067 1 16.1662 1.96366 3.77559
3579 2 16.155 0.173219 5.40003
568 2 0.1635 3.77869 3.55008
1069 1 2.02826 5.6173 3.61614
1580 3 0.112125 3.6645 7.20414
1579 2 1.97523 3.51776 5.44332
2081 2 1.95031 5.39025 7.27407
2080 2 0.212258 5.3329 5.48334
2591 2 0.261074 7.26731 7.16221
2575 1 -0.0941326 7.26042 3.68578
3583 2 1.80976 7.29217 5.44924
17 2 3.53038 5.33287 5.41901
571 1 7.27894 3.73724 3.82497
592 3 7.2164 7.27636 7.20813
576 3 3.66136 7.26355 3.68205
1585 3 5.34474 7.15407 5.60481
2082 3 7.31934 5.48306 5.67954
2590 1 3.73125 3.54863 7.14269
2580 2 7.30065 7.46175 3.73898
2570 1 3.62632 3.55844 3.73671
3069 1 5.44132 5.5464 3.67518
3089 3 5.37014 5.25655 7.27783
3586 1 3.58808 7.26649 7.0851
3581 1 7.18976 3.64274 7.09832
3580 1 5.5232 3.55278 5.37099
18 1 10.7178 5.25532 5.38295
19 3 8.97708 5.53656 7.33782
590 2 10.682 3.74351 7.1807
579 3 10.835 7.20194 3.59959
1071 3 8.87622 5.54955 3.7914
1587 1 10.6739 7.17219 7.1206
1581 2 8.93858 3.64866 5.62806
2572 1 10.8897 3.75147 3.59255
3587 3 9.02444 7.37189 5.65879
572 3 14.2728 3.6926 3.72445
1091 2 12.5483 5.3762 7.16511
1589 3 12.5399 7.09678 5.57185
1583 1 14.513 3.71172 7.24202
2083 2 14.4184 5.48937 5.53884
2593 1 14.2241 7.24511 7.26029
2583 1 14.2983 7.23803 3.67375
3071 2 12.5072 5.49995 3.62215
3582 1 12.6667 3.80248 5.29917
757 1 17.8542 3.84093 3.77728
1073 1 16.0882 5.41521 3.54567
1768 3 17.8039 3.79801 7.08062
1582 2 16.0734 3.81269 5.35397
2084 1 15.8616 5.58919 7.30874
2017 1 18.053 5.50812 5.3953
2841 1 17.8635 7.15643 7.32097
2826 2 17.8261 7.20968 3.57422
3589 3 16.1125 7.27605 5.40225
20 2 0.111931 9.05264 5.43652
574 2 0.00372394 10.9232 3.51198
1584 2 1.81784 10.7596 5.25621
3073 2 1.78472 9.055 3.66841
3090 3 1.88339 8.91306 7.07774
3584 3 0.112502 10.8263 7.17447
21 3 5.46167 9.07124 7.26354
22 2 7.13821 9.10468 5.43811
591 2 3.80347 10.777 7.00653
580 1 7.19504 10.8947 3.62203
1075 2 5.41849 9.03852 3.69361
1588 3 7.39328 10.8317 7.30063
2085 2 3.57159 9.15704 5.36985
2577 3 3.74802 10.9086 3.587
3585 1 5.45958 10.7202 5.30969
1092 1 8.94405 9.05974 7.00785
1586 1 8.93228 10.8725 5.44185
2086 1 10.8906 9.05559 5.28006
2592 3 10.6172 10.9365 7.13678
2581 2 10.8039 10.8986 3.74586
3075 1 9.04043 8.9711 3.7409
23 2 14.2381 8.92594 5.42546
582 3 14.3089 10.6654 3.78761
1077 1 12.6082 9.02469 3.65923
2087 1 12.4997 9.02297 7.30614
3590 2 14.4768 10.79 7.32883
3588 2 12.4875 10.7607 5.52469
270 2 17.839 8.82283 5.42717
764 1 17.7743 10.6743 3.75657
1590 2 16.1571 10.7137 5.33099
3091 1 16.1814 8.91255 7.13886
3077 1 16.0222 9.00358 3.68457
3835 1 17.8044 10.6299 7.18705
24 3 1.84441 12.3998 7.27018
593 2 0.121871 14.268 7.33097
1079 2 1.92709 12.4781 3.66975
2088 3 0.114286 12.6032 5.45121
2584 1 0.219041 14.3723 3.66839
3591 2 2.02147 14.2641 5.55262
25 1 3.90585 12.6574 5.454
584 1 3.64995 14.4421 3.54782
1093 3 5.55205 12.597 7.28044
1592 2 3.77391 14.3702 7.24507
1591 1 5.36698 14.3655 5.39268
2089 1 7.23969 12.7383 5.37578
2594 2 7.25376 14.4487 7.24333
2587 1 7.24582 14.3979 3.77937
3079 2 5.38349 12.6785 3.53953
26 1 10.8248 12.7213 5.4444
586 1 10.7927 14.3589 3.88102
1081 1 9.05499 12.6297 3.66116
2090 2 8.86575 12.6715 7.09977
3593 3 10.7697 14.3865 7.27454
3592 3 8.97051 14.424 5.56886
594 2 14.3658 14.3592 7.2953
1593 2 12.6318 14.3257 5.58425
2091 1 14.3092 12.5791 5.45636
2588 2 14.4034 14.3363 3.78817
3092 3 12.6152 12.5748 7.08585
3081 2 12.5391 12.4986 3.67876
27 3 16.1908 12.4116 7.21093
781 1 17.9097 14.3522 7.1673
1083 1 16.231 12.4493 3.66477
2025 2 17.9882 12.433 5.32931
2835 3 17.7754 14.439 3.63209
3594 3 16.3289 14.3404 5.41593
28 3 0.220962 16.019 5.48207
651 2 0.120405 17.8732 7.27736
1094 3 1.77669 16.036 7.39052
2690 2 -0.0450453 17.8867 3.86688
3083 3 1.93169 16.2606 3.67261
3701 1 1.77702 17.8991 5.59269
29 3 7.05958 16.2116 5.48329
629 3 3.68964 17.8735 3.67135
1085 3 5.38863 16.3244 3.649
1704 2 3.60529 17.9875 7.42704
1703 1 5.23923 18.0558 5.71136
2093 3 5.46043 15.9889 7.2869
2092 1 3.66839 16.0958 5.43645
2715 2 7.25479 17.7136 7.14864
2695 3 7.19463 17.8784 3.66734
632 2 10.6207 17.8256 3.93064
2094 2 10.8598 16.1689 5.42013
3093 1 9.03315 16.2664 7.20118
3085 3 8.98601 16.1242 3.78613
3704 3 10.9041 17.9135 7.29609
3703 2 9.03291 18.0066 5.48117
30 1 12.6551 16.1464 7.22959
31 1 14.4083 15.965 5.49765
653 2 14.4162 17.8467 7.36191
1087 3 12.6354 16.1293 3.74143
1706 1 12.7947 17.8237 5.47176
2698 3 14.3711 17.8123 3.63976
278 3 17.9001 16.075 5.316
901 1 17.87 17.7763 7.11367
1095 2 16.1016 16.0833 7.22265
2878 1 17.8612 17.9597 3.585
3087 1 15.9757 16.1986 3.53963
3707 3 16.0793 17.8978 5.49206
1594 2 1.95878 0.0744615 9.12514
2095 1 0.0907506 1.69119 9.02946
2595 2 0.176593 0.0574762 10.7963
3094 2 1.97709 1.83387 10.9416
33 2 7.20049 1.94385 9.02855
595 2 3.72171 -0.0176125 10.7935
1096 1 5.58314 1.87007 10.839
2597 3 7.33132 0.0560718 10.8939
2596 2 5.41977 0.0569544 9.03109
3095 3 3.79195 1.75441 9.08225
596 2 10.8202 0.133293 10.6839
1097 3 10.8051 1.93658 8.918
3096 1 8.96261 1.90212 10.6271
3596 2 9.0949 0.123963 9.01284
597 2 12.629 0.197524 8.77707
1098 1 12.5331 1.89922 10.6531
2098 2 14.4911 2.15235 8.94631
2598 2 14.2566 0.267172 10.7561
1597 1 15.9562 0.220856 9.00322
2032 1 17.7682 1.79683 9.07312
2845 1 17.7266 0.00141551 10.9395
3097 2 15.9953 1.93983 10.7743
598 3 0.0606072 3.72287 10.9033
1099 1 1.97452 5.42219 10.5371
2603 3 0.237228 7.22498 10.8776
2599 3 1.93927 3.58767 9.0184
3098 1 0.29015 5.49792 9.12119
3602 2 1.98034 7.16806 9.0333
36 3 3.64175 5.44603 8.94515
605 3 3.75774 7.29256 10.6848
604 1 5.42741 7.25304 8.83143
600 2 7.24786 3.6553 10.753
1100 3 7.10995 5.43861 8.94533
2606 1 7.27573 7.27148 10.8378
2600 2 3.50534 3.58181 10.7578
3099 1 5.52555 5.31306 10.8553
3599 2 5.34402 3.64595 8.94967
606 2 10.7983 7.13295 10.7332
599 2 8.92082 3.69763 9.07264
1101 3 8.89634 5.55577 10.8083
1605 1 9.0723 7.29816 9.0742
2100 3 10.7364 5.56607 9.03343
2601 3 10.7584 3.54152 10.6224
601 1 14.2623 3.60521 10.8434
1600 2 12.5937 3.70503 8.96481
2609 1 14.2141 7.29463 10.6251
2608 1 12.5313 7.1484 8.90916
3101 2 14.2954 5.44491 9.06133
3100 3 12.6032 5.49141 10.8201
786 2 17.8762 3.55022 10.7284
1102 2 16.0378 5.36342 10.7114
2853 1 17.8593 7.18335 10.7081
2602 3 16.1856 3.7432 9.05571
3348 1 17.9264 5.448 9.06844
3608 2 16.2155 7.18793 8.88237
39 1 0.197054 8.93521 8.91437
603 3 0.30085 10.6964 10.7589
602 3 1.91259 10.6658 8.91323
3102 1 1.91302 8.89399 10.6009
607 1 7.3706 10.8116 10.7202
1104 1 5.33499 8.98345 10.797
1103 3 3.74743 9.08566 8.90117
1603 3 5.50079 10.745 9.0872
2104 3 7.30937 9.0416 9.10148
2604 1 3.56591 10.726 10.7635
2607 2 10.897 10.8196 10.9441
2605 3 9.14145 10.7085 9.13565
3104 1 8.99846 8.94851 10.8831
3103 1 10.8655 9.18145 9.02571
42 1 14.3432 9.05842 8.95804
609 2 14.2126 10.7297 10.9103
1105 1 12.5473 9.10259 10.9252
3606 3 12.6903 10.8397 8.9968
289 2 17.8327 8.97242 9.00353
792 1 18.0555 10.7762 10.638
608 3 16.148 10.715 9.0577
3105 3 16.1301 9.02831 10.8837
1107 2 2.02305 12.5725 10.7386
1106 3 0.126378 12.4237 8.95137
1609 1 1.88853 14.3441 8.93674
2610 1 0.28219 14.0894 10.7731
610 3 3.66903 14.354 10.837
2107 3 3.71405 12.3467 8.91707
2612 1 7.26999 14.2317 10.7965
2611 1 5.33792 14.2843 9.09607
3107 3 7.16948 12.4962 8.97345
3106 1 5.24372 12.5756 10.9753
45 3 10.6253 12.6433 9.04312
611 3 10.8196 14.3137 10.7949
1108 2 8.94612 12.6159 10.771
3611 2 8.97047 14.2992 8.99314
612 2 12.6407 14.2764 8.97632
1109 3 14.3465 12.5496 8.99768
2613 3 14.2685 14.3204 10.801
3108 1 12.5642 12.5118 10.8135
1293 3 18.0197 12.5152 9.00091
1110 1 16.0161 12.4944 10.9462
1612 3 16.1843 14.0299 9.15029
2860 1 18.0586 14.1605 10.8322
1719 3 1.99026 17.9829 9.21752
2110 2 0.0407094 16.3521 9.079
2721 3 0.249775 17.7864 10.974
3109 3 1.87947 16.036 10.7901
48 2 7.09597 16.0162 9.01511
659 1 3.77403 17.9467 10.8087
1111 3 5.44481 16.1029 10.7607
2724 1 7.10991 17.8448 10.7775
2722 3 5.59251 17.885 8.92666
3110 3 3.73016 16.1938 8.9541
661 3 10.8707 17.7873 10.7506
1112 1 10.6603 16.0519 9.11242
3111 3 8.93749 16.112 10.7884
3723 3 8.92404 17.8575 9.09273
663 2 12.5445 17.8931 9.07011
1113 3 12.4989 16.0344 10.7094
2113 2 14.5552 15.9042 9.09865
2727 1 14.3099 17.8287 10.7086
1725 2 16.1843 17.7456 8.98988
2047 3 17.9006 16.0729 9.08709
2908 3 17.9695 17.8154 10.7947
3112 3 16.2955 15.9119 10.6921
32 2 0.224799 1.96463 12.6225
613 3 0.196955 0.164317 14.3491
1114 2 1.83982 2.06268 14.3615
3595 2 1.95108 0.198436 12.6391
34 2 7.22969 2.00285 12.5417
614 1 7.32654 0.469119 14.4063
1595 2 5.50083 0.263979 12.4463
2096 2 3.69938 1.89822 12.7263
2614 1 3.57606 0.078552 14.3659
3113 3 5.65466 2.07308 14.4338
1115 2 9.13221 1.96944 14.2618
2097 2 10.7925 1.99209 12.4724
2615 2 10.7964 0.13597 14.3442
3597 1 9.192 0.17232 12.4733
35 2 14.3303 1.95277 12.5235
615 3 14.3671 0.224456 14.3026
1596 3 12.5204 0.0841652 12.4651
3114 1 12.6706 1.95948 14.4617
282 2 17.7967 1.69251 12.5253
801 2 17.8777 0.102441 14.1682
1116 2 16.1175 1.86326 14.4202
3598 1 15.8552 0.31568 12.4805
618 1 0.158219 7.13727 14.3604
1598 2 1.94454 3.66425 12.4776
2099 2 0.124699 5.39314 12.4785
2616 1 0.337045 3.77369 14.3585
3115 2 1.92391 5.36612 14.4211
3603 3 1.91446 7.26062 12.5096
37 2 3.73508 5.29092 12.4563
620 1 7.40206 7.18289 14.3631
616 1 3.60392 3.71 14.41
1117 1 5.48602 5.46432 14.3619
1604 2 5.54657 7.18405 12.4039
2101 1 7.11894 5.39651 12.6059
2620 1 3.67143 7.19664 14.305
2617 1 7.39947 3.86484 14.2375
3600 1 5.37603 3.48816 12.3949
38 1 10.8461 5.52443 12.4886
617 2 10.7565 3.71775 14.1315
1599 1 8.92993 3.61335 12.5084
2621 3 10.7066 7.14312 14.3568
3116 1 9.20382 5.42978 14.2417
3605 3 8.85117 7.23033 12.5478
622 2 14.4655 7.09744 14.3465
1118 1 12.7372 5.45654 14.3784
1607 3 12.6247 7.26678 12.6886
2102 3 14.2508 5.28737 12.4401
2618 1 14.2316 3.47088 14.3576
3601 3 12.4208 3.61685 12.5507
806 3 17.977 7.3061 14.3328
1601 1 16.1915 3.66152 12.6585
2036 3 17.6746 5.57492 12.5882
2866 2 17.8083 3.61174 14.2785
3117 2 15.9571 5.39657 14.2206
3609 3 15.8908 7.14863 12.4858
40 1 0.187089 9.1072 12.6586
1119 3 1.88241 9.00145 14.367
1602 1 1.91925 10.6227 12.4961
2619 2 0.083126 10.815 14.4227
41 2 7.11849 9.14007 12.6539
619 3 3.83057 10.7343 14.4898
2103 3 3.63108 9.02796 12.5955
2622 3 7.30927 10.6971 14.3692
3118 1 5.34089 8.87121 14.3228
3604 2 5.28724 10.7713 12.4472
621 3 10.7086 10.556 14.2691
1120 2 9.05655 8.96989 14.3126
1606 1 8.91185 10.6103 12.4908
2105 2 10.7911 8.86567 12.5583
43 3 14.3421 9.00127 12.6168
2623 3 14.3617 10.5798 14.4064
3119 1 12.6225 9.0384 14.2342
3607 2 12.416 10.7427 12.702
290 1 17.8932 8.9504 12.5216
1121 2 16.1683 8.8688 14.3907
1608 1 16.0593 10.8069 12.4202
2870 1 17.9846 10.726 14.3007
623 1 0.0793051 14.1389 14.1884
2106 2 0.119215 12.2975 12.4451
3120 3 1.9485 12.4764 14.2603
3610 1 1.78667 14.2172 12.5364
44 3 3.74182 12.4737 12.7193
624 3 7.13569 14.2693 14.3337
1122 1 5.44097 12.4203 14.2352
1610 1 5.42682 14.2897 12.4873
2108 2 7.13766 12.4805 12.5076
2624 2 3.71787 14.4989 14.193
46 2 10.8694 12.6 12.5958
2625 3 10.8445 14.2801 14.2823
3121 2 9.06481 12.6275 14.2918
3612 1 8.82499 14.2146 12.5797
625 2 14.2884 14.1414 14.2233
1123 1 12.4951 12.3968 14.4084
1611 1 12.4489 14.3302 12.6753
2109 3 14.3168 12.3668 12.6279
811 1 18.1021 14.2601 14.3482
2044 2 17.9057 12.4602 12.5737
3122 2 16.2413 12.3678 14.2997
3613 1 16.1855 14.1622 12.6154
47 3 0.088099 16.0427 12.4283
676 2 0.122426 17.9364 14.2135
1124 3 1.75529 15.9517 14.3252
3720 2 1.88188 17.8917 12.7494
49 2 7.15349 15.9996 12.5953
678 1 7.41972 17.7127 14.4795
1721 3 5.61018 17.8008 12.7192
2111 2 3.75424 16.1677 12.5086
2740 1 3.59969 17.807 14.3572
3123 1 5.31618 16.0349 14.509
1125 1 8.9039 15.9016 14.3869
2112 3 10.8826 16.0569 12.5189
2741 3 10.8416 17.8673 14.3211
3724 3 9.09873 17.7988 12.532
50 3 14.4544 15.9523 12.4392
680 3 14.6102 17.8018 14.2938
1724 1 12.669 17.8175 12.5759
3124 1 12.5415 16.0462 14.3258
297 3 18.036 15.9378 12.526
926 2 18.0198 17.9614 14.3166
1126 2 16.254 16.0517 14.4621
3726 1 16.1516 17.8035 12.5566
1613 1 1.8145 0.263796 16.0216
2114 2 0.0620707 2.01562 16.1476
2626 1 0.169612 0.272967 17.9888
3125 1 2.09779 2.07051 17.772
51 2 3.75547 1.93873 16.0877
502 3 3.66968 0.133402 17.7511
1128 1 5.61425 1.96887 17.9968
2115 1 7.41039 1.94117 16.1046
2628 2 7.19296 0.352588 18.0108
3614 2 5.48673 0.151069 15.9249
52 1 10.8535 1.92288 16.0457
503 3 10.8477 0.107624 17.9003
1614 2 9.06468 0.165307 16.1232
3127 1 9.31386 1.94413 17.8153
1130 2 12.5076 2.05704 17.8767
2116 3 14.3188 1.83323 16.2233
2630 1 14.4001 0.0443186 17.8832
3615 3 12.5619 0.09055 16.1934
1615 2 16.3396 -0.164622 16.1471
2051 1 18.018 1.88246 15.9883
2501 3 17.923 0.160469 17.9983
3129 3 16.2263 1.8604 17.9245
53 1 0.191172 5.42669 16.1316
506 2 0.14442 3.72574 17.8501
1132 1 1.91294 5.45484 18.039
1618 2 1.80955 7.03528 16.1276
2636 3 0.115673 7.15661 17.8966
3616 3 1.88287 3.69726 16.2093
54 1 7.28061 5.29451 16.2616
508 3 7.29595 3.73819 18.0712
513 1 3.65863 7.15475 17.7699
1616 3 5.50923 3.62658 16.1256
2117 3 3.70682 5.46169 16.1115
2640 1 7.32384 6.88977 17.9464
2632 2 3.81832 3.69098 17.8726
3131 3 5.3501 5.46416 17.9605
3620 3 5.66501 7.14117 16.2577
515 1 10.9372 7.01495 17.9526
1134 2 9.16071 5.40909 17.8736
1620 3 9.00973 7.36428 16.1609
2118 2 10.8911 5.42118 16.2344
2633 2 10.9044 3.76343 17.9257
3617 2 9.25051 3.73523 16.1437
55 3 14.4058 5.43288 16.1361
510 1 14.2901 3.57528 17.8524
1617 3 12.4507 3.7567 16.1245
2644 1 14.3093 7.22241 17.9467
3133 2 12.6754 5.40711 17.9953
3622 2 12.4662 7.20286 15.8693
303 2 17.9273 5.45708 15.9598
819 3 17.8784 3.64931 17.9593
1136 2 16.1214 5.33116 17.8481
1622 1 16.1537 7.14561 16.1347
2511 2 17.9188 7.02461 17.7707
3618 3 16.0405 3.57955 16.1792
511 2 0.0192357 10.7372 17.7508
2119 1 0.0658741 9.08803 16.0451
3135 3 1.72177 8.98243 17.7323
3619 1 1.85946 10.8698 16.1306
56 3 3.50359 8.8132 16.1
516 1 7.15863 10.5902 18.0205
1138 3 5.44379 9.07296 17.9162
1619 3 5.46233 10.7188 16.1893
2120 3 7.24194 8.938 16.108
2638 1 3.55759 10.5389 17.7766
57 3 10.9342 9.03948 16.1863
2641 3 10.8075 10.795 17.8155
3137 1 9.00728 8.85616 17.9547
3621 1 8.85588 10.8041 15.9332
519 3 14.4075 10.6971 17.9193
1140 2 12.6316 8.86107 18.0986
1621 3 12.7215 10.7461 16.1866
2121 3 14.215 8.92842 16.105
825 2 17.901 10.673 17.9468
2056 2 17.9134 9.06261 16.3421
3139 2 16.0388 8.91426 17.7364
3623 1 16.2572 10.7951 16.1006
58 2 -0.0929266 12.6032 16.0383
1142 2 1.79766 12.5665 17.8742
1623 2 1.77471 14.1163 15.9988
2646 2 0.19526 14.4019 17.8021
59 1 7.08606 12.5382 16.0803
522 2 3.53873 14.1458 17.8853
2122 1 3.70198 12.667 16.1263
2648 2 7.05487 14.1987 17.8812
3141 3 5.41526 12.4303 17.9851
3624 3 5.41385 14.3407 16.1812
523 2 10.9231 14.2326 17.733
1144 1 8.82631 12.5268 17.8854
1624 3 8.89448 14.2278 16.1353
2123 1 10.6689 12.4047 15.9471
60 1 14.3337 12.4456 16.0857
2650 2 14.3062 14.3189 17.805
3143 2 12.7659 12.4257 17.7944
3625 1 12.5953 14.4595 16.1182
308 2 17.9537 12.4658 16.1173
1146 2 16.257 12.4875 17.7982
1625 1 16.4019 14.2795 15.9009
2521 2 17.9202 14.4889 17.6979
1738 3 1.82482 17.9227 16.0022
2124 2 0.24042 15.9475 15.8957
2751 2 0.0472081 17.6189 17.9127
3145 1 1.89446 15.9956 17.7877
61 2 3.38696 15.8607 16.1923
691 3 3.49628 17.9489 17.8974
1148 3 5.5 16.0864 18.0145
2125 3 7.11556 16.103 16.1575
2755 1 7.41379 17.626 17.9046
3740 3 5.38803 17.7541 16.2422
62 2 10.7265 15.9856 16.0572
693 1 10.719 17.846 17.8219
1740 1 9.17311 17.8558 16.1181
3147 1 8.83163 15.9472 17.9841
1150 2 12.6428 16.1184 17.8402
2126 2 14.3394 16.0332 15.8788
2759 1 14.481 17.8363 17.8454
3742 1 12.4675 17.7712 16.1165
1742 1 16.212 17.9288 16.1805
2061 1 17.9116 16.2703 16.1062
2938 3 17.8975 18.0366 18.0418
3149 3 16.0709 16.0689 17.7061
501 1 0.0849075 0.182149 21.5173
63 3 0.0641183 2.07845 19.7116
1127 1 1.85067 1.97196 21.439
3626 1 1.73768 0.226054 19.4876
504 3 7.30486 0.40967 21.4508
64 2 7.552 1.97642 19.7484
1626 1 5.28857 -0.0206549 19.6351
2127 2 3.68678 1.81936 19.579
2627 3 3.51085 0.160258 21.4269
3126 2 5.47762 1.93137 21.2454
1129 1 9.18569 1.73283 21.4624
2128 2 10.9198 1.84674 19.6562
2629 2 10.7969 0.194864 21.4523
3627 1 9.06328 0.144086 19.6202
505 2 14.3167 -0.0439773 21.4056
65 3 14.3535 1.81809 19.6081
1627 2 12.6361 0.240105 19.5742
3128 3 12.5642 1.7821 21.5062
815 3 17.887 -0.038186 21.4578
313 3 17.9525 1.84844 19.8275
1131 3 16.1529 1.86213 21.4028
3628 3 16.0232 0.0248578 19.76
512 2 0.0843842 7.31954 21.1577
1628 3 2.01753 3.58759 19.747
2129 3 0.163062 5.35209 19.5968
2631 3 0.053955 3.77661 21.4506
3130 3 1.90655 5.39864 21.3459
3631 1 2.00393 7.4044 19.6332
507 3 3.8861 3.7437 21.3634
517 3 7.18163 7.35932 21.3941
66 1 3.68254 5.32034 19.7158
1133 3 5.56729 5.41923 21.4944
1632 3 5.26883 7.14066 19.5299
2130 1 7.36629 5.51496 19.6453
2639 3 3.65725 7.1051 21.4209
2634 1 7.33798 3.46788 21.4723
3629 3 5.56269 3.77316 19.7143
509 2 10.8554 3.52707 21.3703
67 1 10.8529 5.51915 19.482
1629 2 9.07142 3.74734 19.841
2642 2 10.8405 7.15482 21.4963
3132 3 8.99291 5.41237 21.5059
3633 2 9.11953 7.12427 19.7493
520 1 14.701 7.31975 21.4779
1135 3 12.641 5.49303 21.3274
1634 1 12.4617 7.25711 19.815
2131 2 14.445 5.33785 19.5686
2635 1 14.4093 3.64825 21.3847
3630 2 12.6377 3.73024 19.7733
826 3 17.7471 7.1932 21.3344
1630 3 15.9442 3.43195 19.5673
2316 2 17.9185 5.31126 19.7502
2507 1 17.9626 3.44596 21.6076
3134 3 16.2123 5.33687 21.4201
3635 1 16.1468 7.00086 19.5571
68 1 -0.0273581 9.12066 19.557
1137 1 1.94439 8.86953 21.4458
1631 1 1.77318 10.5876 19.4933
2637 1 0.227561 10.7723 21.5824
514 3 3.63709 10.7812 21.4245
69 1 7.17342 8.95845 19.6792
2132 1 3.54229 8.97516 19.6641
2643 1 7.10583 10.6186 21.3822
3136 2 5.39379 9.14882 21.2939
3632 2 5.24722 10.7832 19.5595
518 2 10.7406 10.7099 21.3639
1139 1 9.0162 9.0423 21.2853
1633 1 9.12582 10.7847 19.5445
2133 3 10.794 9.00386 19.6091
70 2 14.5911 8.92082 19.6406
2645 2 14.362 10.696 21.5666
3138 3 12.4744 8.95967 21.3811
3634 1 12.5015 10.8088 19.6913
318 1 18.0193 8.89551 19.4505
1141 3 16.2342 9.02051 21.2278
1635 1 16.0534 10.8772 19.5738
2514 2 17.7884 10.8008 21.1871
521 2 0.187842 14.248 21.4985
2134 3 0.0894127 12.4099 19.6087
3140 3 1.8719 12.56 21.4584
3636 3 1.8414 14.1361 19.6195
524 3 7.18972 14.3464 21.3796
71 2 3.52459 12.6861 19.6672
1143 3 5.47926 12.8532 21.396
1636 1 5.42852 14.258 19.5842
2135 2 7.25393 12.3516 19.6209
2647 2 3.50195 14.3354 21.4271
72 3 10.8174 12.5508 19.4758
2649 2 10.6974 14.2823 21.4243
3142 2 9.03019 12.5066 21.3144
3637 3 8.97923 14.2273 19.5863
525 2 14.4889 14.2778 21.2725
1145 3 12.7096 12.5673 21.3209
1637 1 12.4962 14.4805 19.4815
2136 2 14.4277 12.6486 19.4721
835 1 17.9241 14.3379 21.3409
2321 2 17.8934 12.6505 19.6625
3144 2 16.1161 12.4807 21.3135
3638 1 16.2381 14.5008 19.5916
690 2 0.0714891 17.7421 21.6154
73 2 0.209362 15.9575 19.5717
1147 1 1.88108 16.1022 21.4401
3751 2 1.61166 17.8267 19.6251
695 1 7.21495 17.8849 21.3493
74 3 7.17102 16.0451 19.6587
1502 1 5.42237 17.9446 19.5646
2137 3 3.52831 16.1819 19.6721
2754 1 3.65453 17.865 21.3938
3146 3 5.42583 16.0402 21.2032
1149 1 8.96567 16.1554 21.6484
2138 3 10.77 16.0672 19.3574
2757 1 10.9171 17.7356 21.2969
3753 3 8.97455 17.8326 19.5787
698 2 14.2428 17.7904 21.3659
75 2 14.1884 16.0098 19.5442
1504 1 12.5505 17.8296 19.681
3148 1 12.397 16.026 21.3123
941 2 17.6389 17.918 21.4595
323 3 18.0268 16.2401 19.4498
1151 2 16.2612 16.0625 21.3769
3755 1 16.0626 17.832 19.5275
1638 1 2.00452 0.0449785 23.1379
2139 3 0.19101 2.12943 23.2039
2651 3 0.144093 0.201836 24.8644
3150 3 1.96983 1.83389 24.7654
526 2 7.1445 0.132058 24.9904
77 3 5.42873 1.92598 24.9189
76 3 3.86318 1.88103 23.0241
2140 1 7.1829 1.98892 23.1728
3640 2 3.69546 -0.0999668 24.9406
3639 1 5.47955 0.052984 23.1261
78 2 10.9562 1.98579 23.2513
1152 1 8.91187 1.873 24.8505
1640 1 10.9176 0.129117 25.0678
1639 2 9.18415 0.207256 23.2594
2142 3 14.3934 1.69143 23.1974
2141 2 12.4907 1.79614 24.9244
2652 3 14.253 -0.0104078 25.0147
3641 2 12.4805 -0.0502933 23.1836
1641 1 16.0496 -0.0465725 23.1794
2326 3 17.8652 1.77564 23.2376
2526 3 17.8824 0.101737 24.9357
3151 3 16.0559 1.85778 24.8527
528 1 0.0795051 7.51197 24.8176
80 2 1.87185 5.52705 25.0428
79 3 0.126221 5.49959 23.3301
1645 3 1.88916 7.14647 23.1423
3643 1 0.196643 3.69315 24.9542
3642 2 2.10774 3.82852 23.0753
527 3 3.58046 3.71671 24.8356
81 3 7.25885 5.43263 23.1489
1153 2 5.48337 5.57006 24.7715
1648 1 3.74718 7.18011 24.8137
1643 2 7.30335 3.74604 24.9029
1642 3 5.55727 3.64415 23.2545
2143 1 3.77132 5.53102 23.287
2655 2 7.36826 7.32135 24.7081
3648 2 5.4493 7.53089 23.2648
1649 3 8.9145 7.5303 23.0635
2145 3 9.11945 5.64674 24.8392
2144 1 10.9935 5.43191 23.1424
2653 3 10.7446 3.77595 24.936
3650 3 10.8246 7.4394 24.863
3644 2 9.06628 3.6773 23.1939
530 1 14.3045 7.39018 25.0763
82 1 14.4393 5.40735 23.2883
1644 3 12.583 3.70223 23.2349
3152 3 12.456 5.41458 24.8772
3652 3 12.8601 7.08773 23.1611
3646 1 14.1866 3.71891 24.9618
841 2 17.7569 7.20691 25.0243
329 1 17.7179 5.35815 23.2173
83 3 16.1096 5.50897 25.0565
1651 1 16.0597 7.26236 23.2272
3893 3 17.7088 3.4868 24.9639
3645 1 16.0188 3.63514 23.2222
1154 2 1.99409 8.98153 25.0038
1646 1 0.279626 10.6862 24.9158
2146 2 0.146634 9.05307 22.9347
3647 1 2.0475 10.7509 23.2494
84 3 3.70596 9.07769 23.2433
1647 2 5.32411 10.8462 23.0031
2148 1 7.10126 9.16264 23.0037
2147 1 5.54128 9.18491 24.7931
2654 2 3.73059 11.0522 24.9523
3651 3 7.10858 10.9798 24.798
529 2 10.8814 10.9689 25.1667
85 1 10.6527 9.28897 23.2482
3153 1 8.96119 9.23396 25.1179
3649 3 9.022 10.9384 23.2133
86 1 12.4781 9.34096 24.8936
1652 3 14.3306 10.9182 25.0381
1650 2 12.4771 11.0928 23.4126
2149 2 14.3573 9.04954 23.2759
1155 3 16.1509 9.00408 25.0784
1835 3 17.9494 10.7306 25.1726
2333 1 17.943 8.94377 23.1954
3653 1 16.1667 10.6819 23.1458
87 2 0.106955 12.3945 23.1987
1653 3 1.97011 14.2995 23.2427
2150 3 1.79632 12.6327 25.13
2656 3 0.0781136 14.3378 25.0173
531 3 6.99576 14.3897 25.0302
88 3 7.17347 12.8013 23.1405
2151 2 3.65675 12.656 23.154
3154 3 5.39446 12.7189 24.9448
3655 1 3.79385 14.4854 24.9255
3654 1 5.35796 14.6081 23.214
89 3 9.08208 12.6375 25.009
1655 2 10.7569 14.291 25.0928
1654 1 9.03608 14.4303 23.2229
2152 1 10.6744 12.7302 23.1271
90 1 14.412 12.6523 23.1035
1156 2 12.5643 12.663 25.0889
2657 3 14.3161 14.235 24.8704
3656 3 12.4942 14.3412 23.1888
337 1 17.8387 12.4515 23.2163
1656 2 16.1708 14.5378 23.148
2153 3 16.1352 12.4758 25.0317
2531 1 17.9441 14.2993 25.0306
1513 3 1.82402 17.9786 23.153
2154 1 0.148143 16.1147 23.2704
2776 1 0.200199 17.9894 24.9724
3155 2 1.925 15.9607 25.0263
715 1 7.24548 17.7754 25.0175
92 3 5.31841 16.281 25.026
91 2 3.7334 16.1596 23.15
2155 2 7.16403 15.943 23.061
3767 3 3.53343 17.8182 24.8071
3766 1 5.40188 17.6433 23.0647
93 2 10.8439 16.1893 23.0784
1157 1 8.88837 16.236 24.8194
1515 1 8.81876 17.9392 23.0275
1516 3 10.676 17.7713 24.859
2157 1 14.3069 16.1389 23.0168
2156 1 12.4978 16.0023 24.7136
2778 1 14.3615 17.9182 24.9228
3769 2 12.587 17.9314 23.3175
1519 2 16.0146 17.7684 23.3097
2341 1 18.0626 16.2477 23.027
2963 3 17.8835 17.783 24.9779
3156 2 16.3212 16.0516 24.8599
532 3 0.187985 0.250473 28.47
94 3 0.224067 1.83074 26.5854
1158 2 1.97971 1.98442 28.4242
3657 2 1.92474 0.0497058 26.6462
533 3 5.40153 0.321942 26.6944
534 2 7.17034 0.151082 28.3644
1159 3 3.70886 1.94516 26.7255
2159 3 7.06646 2.00502 26.7001
2658 3 3.67029 0.274032 28.3564
3157 3 5.45257 1.8854 28.4766
1160 1 9.04015 1.99328 28.3352
1658 3 9.04838 0.257247 26.6684
2659 1 10.6496 -0.00611503 28.4275
3158 1 10.7928 1.95472 26.8278
535 3 14.2329 0.0300427 28.5262
97 3 14.2212 1.88499 26.5743
2660 3 12.4226 0.0715027 26.7042
3159 2 12.4209 1.79611 28.3932
845 3 17.6382 0.0450355 28.6178
344 1 17.6395 1.81311 26.92
1161 3 15.966 1.97246 28.4857
3660 1 15.8903 -0.0749046 26.7885
536 2 1.82335 3.65357 26.7741
540 2 0.137048 7.27258 28.2816
1162 3 0.236645 5.5293 26.6609
1664 3 1.94946 7.39273 26.5861
2661 1 0.174509 3.70652 28.4569
3160 3 2.06616 5.44088 28.4219
537 2 3.808 3.7555 28.4048
543 1 7.1904 7.17329 28.4758
1163 3 5.5137 5.53631 28.3719
1661 2 5.42378 3.87108 26.616
2162 1 3.68966 5.52555 26.614
2668 3 3.62103 7.35626 28.4521
2667 3 5.50311 7.20506 26.6917
2663 1 7.02436 3.89759 28.3424
3161 2 7.25361 5.71903 26.5002
538 3 10.8758 3.76152 28.475
99 1 10.7446 5.48933 26.68
2669 3 10.6741 7.28337 28.4536
2662 2 9.14895 3.76343 26.6068
3162 3 8.9985 5.54686 28.4008
3668 3 9.00188 7.3606 26.7182
545 3 12.628 7.37906 26.5597
546 3 14.3467 7.31169 28.6461
1165 3 14.2569 5.57099 26.6878
1164 1 12.5766 5.59126 28.6423
2664 1 14.1375 3.62454 28.3957
3663 3 12.5459 3.72268 26.6079
853 2 18.0068 7.15624 28.5572
539 2 15.8938 3.74219 26.821
1349 1 17.6988 5.3736 26.7675
1670 2 16.2616 7.28656 26.7706
2536 2 17.7635 3.60876 28.3966
3163 1 15.9212 5.54774 28.4072
1166 2 1.8151 8.9338 28.7346
2165 2 0.273992 9.0154 26.6823
2666 3 -0.0316826 10.799 28.4624
2665 3 1.92185 11.0107 26.7725
541 3 3.58025 10.8852 28.5461
103 2 7.26831 8.99297 26.667
2670 1 6.9305 10.7301 28.5776