ITEM: TIMESTEP
5000
ITEM: NUMBER OF ATOMS
4000
ITEM: BOX BOUNDS pp pp pp
1.0664547657121659e-02 3.5723395452342785e+01
1.0664547657121659e-02 3.5723395452342785e+01
1.0664547657121659e-02 3.5723395452342785e+01
ITEM: ATOMS id type x y z
1 3 0.0837772 1.91995 1.78294
1563 1 -0.0290003 0.137312 -0.0804958
2064 2 1.80023 1.97287 -0.00868701
3561 2 1.7836 0.193444 1.5439
564 1 3.57143 2.0362 1.67049
565 3 7.07606 1.79021 1.75601
1565 3 7.35052 0.114745 0.182448
2065 3 3.69225 0.0180483 0.224904
3061 2 5.40353 1.66518 0.0161273
3562 3 5.56515 -0.0613655 1.76172
566 2 10.7505 1.58858 1.62022
1070 3 10.8923 -0.114478 -0.299841
3063 1 9.14003 -0.0809815 1.67201
3062 3 8.89987 1.75323 -0.000448827
567 1 14.2403 1.76006 1.89597
2566 3 14.3508 -0.0455174 0.0191437
3064 2 12.6618 1.80583 0.258763
3563 2 12.5439 0.173642 1.79211
2 3 17.944 0.0189198 0.00421756
3 3 16.0807 -0.0104971 1.78577
3066 3 17.8408 1.59819 2.0305
3065 3 15.8874 1.86506 -0.152254
4 2 1.69001 5.53706 -0.0311462
5 2 1.71826 3.68677 1.81423
6 2 1.56538 7.44585 1.45853
1071 2 -0.155981 5.3089 1.75102
3067 3 -0.0345759 3.56702 -0.0796133
3565 1 -0.175762 7.32315 -0.129152
7 2 5.31267 5.53689 -0.0313455
8 3 3.52385 7.26064 -0.211339
1072 2 7.15633 5.45646 1.71053
1075 3 5.23512 7.3544 1.69209
1074 3 3.31237 5.63597 1.63036
1567 3 7.10871 7.13804 -0.0900913
2570 2 7.2958 3.52968 0.192376
2569 2 3.70495 3.73429 -0.0685175
3569 2 5.42305 3.65326 1.68355
9 2 9.12221 5.25484 0.0404995
10 1 9.01591 3.34371 1.76551
1077 3 10.6863 7.16222 0.0101857
1076 1 10.4866 5.35543 1.90198
1568 3 8.94651 7.21353 1.51278
3068 2 10.6395 3.51175 0.0231052
11 1 12.3334 5.22482 -0.160796
12 3 14.3029 3.65735 0.0824959
570 2 12.4232 3.59478 1.69667
1571 3 14.4587 6.90866 0.0294509
1570 1 14.2616 5.1063 1.92857
1569 1 12.7942 7.12295 1.76546
572 1 16.1681 3.43575 1.81466
1081 1 16.0131 7.14508 1.85745
1079 3 17.8762 5.58104 1.67675
1078 1 15.9879 5.19773 -0.020347
1573 1 17.9639 3.32291 -0.0921632
2070 2 18.0734 7.20795 -0.00360181
575 1 1.63797 10.7896 1.51502
1082 1 1.74057 9.12034 -0.0489751
1574 2 -0.324134 8.9437 1.64747
3070 2 -0.0647287 10.8743 -0.206796
576 1 3.65109 10.8793 -0.0505218
1085 2 5.32102 8.97058 -0.0934733
1083 2 5.36097 10.8474 1.69611
1577 1 7.07955 10.7047 0.045661
1576 3 7.16126 8.78203 1.7593
1575 1 3.61689 9.01781 1.6354
14 1 10.9026 10.7101 -0.202078
1087 1 9.08717 10.65 1.68732
1086 3 8.88313 8.90555 -0.0507398
2071 1 10.6927 8.78156 1.77167
580 2 12.5823 10.715 1.71392
1088 3 14.202 10.7179 -0.142798
2073 3 12.3735 8.97624 -0.00925196
2074 2 14.2252 8.81926 1.57285
15 1 17.785 8.74884 1.77524
1581 3 16.025 10.3424 1.7946
2076 3 17.9203 10.5694 0.10522
2075 3 16.1596 8.73983 -0.201974
2079 1 1.69796 12.7975 -0.0782856
2078 3 1.70673 14.1978 1.90751
2077 2 0.0441122 12.6242 1.78097
2572 1 -0.233378 14.3427 -0.0189151
2082 2 5.19155 14.2563 1.77528
2081 2 3.59508 12.5721 1.88189
2080 2 5.54779 12.5787 0.120318
2576 3 7.28695 14.1 -0.187987
2575 2 7.39581 12.7696 1.77341
3071 2 3.34613 14.4004 0.121645
1583 2 9.14905 14.2918 1.76123
2084 1 10.8706 14.2534 -0.170119
2579 1 10.7641 12.4208 1.65437
3073 3 9.00464 12.3304 -0.18316
2085 2 12.5588 14.4028 1.84383
2580 1 14.4312 12.3676 1.92401
3074 3 12.5545 12.6521 -0.0506716
3574 1 14.2579 14.281 0.116855
581 3 17.7258 12.4792 1.79147
1089 1 17.7428 14.2762 0.107129
2583 1 16.1491 14.2736 1.75781
3075 2 15.8307 12.3839 0.0461192
16 1 0.138622 17.9976 0.228083
2086 1 1.96297 17.9965 2.1074
2584 2 0.0122548 16.114 1.8996
3076 2 1.70013 16.3204 0.0755064
17 2 5.27476 16.0137 0.121099
1090 3 3.70356 17.6496 -0.0263239
2585 3 7.37187 17.7655 -0.165066
3079 1 5.42948 17.7017 1.73563
3078 1 7.3251 16.0721 1.82934
3077 2 3.42788 16.2114 1.89327
18 3 9.10703 15.9064 0.0508619
1585 2 10.7204 17.824 -0.0615881
3080 1 10.6875 16.0726 1.67727
3578 3 9.0347 17.8787 1.71049
19 1 12.4338 16.278 0.0837445
2088 3 14.2937 17.8228 0.0773282
3081 3 14.4178 16.1895 1.83795
3581 1 12.4953 17.8772 1.76149
20 2 16.1712 16.0058 0.217657
1586 2 18.0149 16.2578 2.21061
3083 2 16.1937 17.8296 1.80486
3082 1 17.9086 17.6136 0.0717235
584 2 1.75985 1.90792 7.03177
1564 1 -0.143687 0.244729 3.68781
2588 1 1.73523 0.0942468 5.40094
2563 2 1.94946 1.80525 3.16733
3084 1 -0.150215 0.200686 6.95805
3583 2 0.133956 2.14175 5.359
22 3 5.46599 1.74145 7.06448
1069 1 3.57001 0.0214762 3.48816
1566 1 7.20204 -0.142394 3.55751
2089 3 5.39992 -0.0784625 5.24214
2590 1 3.53753 0.151889 6.92308
2564 3 5.35761 1.78846 3.38692
3085 1 7.26262 0.138927 7.19639
3585 1 3.35849 1.82099 5.24483
3584 1 7.17557 1.78948 5.21363
586 2 8.98032 1.88547 6.9435
2066 1 10.673 -0.0212626 3.70598
2593 2 9.01366 -0.114177 5.21365
2565 2 9.13644 1.65012 3.47268
3086 1 10.6238 -0.114926 7.09604
3586 3 10.6379 1.76409 5.27937
23 1 12.5272 1.86642 7.14355
24 2 14.2238 -0.140485 7.20446
25 2 14.1321 1.66294 5.58309
2568 1 14.4389 -0.132976 3.69962
2567 2 12.3713 1.47886 3.54291
3087 2 12.603 -0.213346 5.44392
568 1 17.9107 -0.237603 3.47134
588 2 15.7897 1.72823 7.19482
1587 2 17.8536 -0.120362 7.28923
3088 1 15.7493 -0.255454 5.42827
3588 3 17.8472 1.82912 5.25109
3564 2 16.0599 1.53286 3.8112
27 2 2.16144 5.33622 6.89284
28 1 1.83675 7.05713 5.50637
589 3 0.0337525 5.5003 5.1724
2067 1 -0.0372014 3.45648 3.48286
3090 2 1.79272 3.88341 5.11611
3590 1 0.0685807 7.07133 7.07013
3589 3 0.0606433 4.00452 6.98241
3567 1 0.073584 7.18117 3.18897
3566 2 1.74103 5.44553 3.44321
29 2 3.66535 3.44794 7.10641
593 3 3.61818 7.27468 7.1618
592 3 6.96234 5.37986 5.27066
591 3 6.96235 7.21996 7.08447
590 2 3.69083 5.4757 5.12582
1095 2 5.06191 5.47003 7.03403
1094 1 5.09697 7.31857 5.32471
1073 1 3.53738 7.29743 3.31037
2068 1 7.21187 7.32289 3.39741
2069 3 3.64601 3.85481 3.43622
3593 2 5.26215 3.81981 5.15696
3592 3 7.12679 3.52681 7.14585
3570 1 5.47064 5.49631 3.53918
3568 2 7.1844 3.49478 3.43022
31 1 8.60401 3.58802 5.29823
569 3 10.6401 7.06245 3.5287
594 2 10.7245 5.36953 5.31229
1097 1 8.83215 5.35912 7.09942
1590 2 8.81919 7.17019 5.17218
1589 2 10.8178 7.09348 7.25809
3594 2 10.7173 3.53431 7.0007
3572 1 10.5769 3.64861 3.28548
3571 2 8.79247 5.31435 3.43067
33 2 12.4351 3.79308 5.18259
35 2 14.1884 3.54211 7.32931
571 3 12.5987 5.5561 3.49848
595 1 14.4319 6.83294 7.05422
1100 1 14.1585 5.06781 5.1105
1099 2 12.3766 5.28439 7.1435
1592 2 12.3846 7.18259 5.24981
1572 2 14.3951 7.18369 3.64244
3069 3 14.1721 3.45558 3.67606
573 3 15.9813 5.31336 3.68339
1080 2 17.8595 3.46376 3.53972
1595 2 16.1596 7.25245 5.48322
1594 3 15.9408 5.04815 7.20446
2094 1 17.7096 7.14737 7.22692
2092 2 17.8065 3.21958 7.27853
2571 1 17.7974 6.94408 3.53623
3092 2 17.7823 5.32655 5.51693
3595 3 16.0838 3.50737 5.32683
13 3 -0.0361762 10.8416 3.46193
597 1 -0.044387 10.4057 7.03773
596 1 2.01766 10.7199 5.09229
574 1 1.75564 9.05962 3.29632
1102 3 1.73229 9.05717 7.02718
1101 2 0.240957 8.91397 5.11366
38 3 3.64743 10.9392 6.97665
578 1 3.49281 10.8925 3.40571
577 2 5.38968 9.25006 3.48716
1106 2 7.28782 10.9467 6.99205
1104 2 5.63802 10.7922 5.22424
1103 3 3.52014 9.06502 5.25368
1084 3 7.26213 10.6365 3.3796
1597 1 7.18868 8.83717 5.15514
1596 3 5.41601 9.10235 6.94989
39 2 10.8499 10.6003 7.11223
599 3 8.93574 10.7453 5.25399
579 3 10.7448 10.6663 3.44401
1107 3 8.98669 9.17312 7.3318
1578 2 9.06257 8.87032 3.49768
2097 2 10.615 8.84139 5.44387
1108 2 12.5296 10.5266 5.45734
1598 3 12.6804 8.91268 6.97895
1579 2 12.5001 8.96394 3.38589
2072 3 14.273 10.5882 3.44916
2099 2 14.2647 10.6394 7.25193
2098 2 14.4143 8.84566 5.45377
1599 1 16.1929 8.87193 7.06739
1580 3 16.0893 8.97973 3.66622
2100 3 15.9083 10.6858 5.53976
3093 3 17.6391 10.473 7.20355
3597 3 17.8917 8.91276 5.35136
3573 3 17.7571 10.5266 3.49455
1110 3 0.048544 14.256 7.12901
1582 2 1.62895 12.464 3.49897
2103 2 1.72165 12.4022 7.03618
2102 2 1.7383 14.2178 5.42025
2101 3 -0.109294 12.6321 5.33927
2573 1 0.118511 14.4002 4.05793
1112 1 7.2236 14.1416 6.97022
1600 1 5.56356 12.4838 7.18914
2104 1 5.45324 14.2454 5.26025
2083 2 3.31536 14.3776 3.5305
2601 1 7.39153 12.6608 5.42862
2600 3 3.54364 12.7025 5.15903
2599 2 3.48524 14.0541 7.22311
2577 3 7.4133 14.2183 3.47027
2574 2 5.38663 12.566 3.42382
2604 3 9.06761 14.3242 5.37689
2603 3 10.7462 14.2076 7.36223
2602 3 10.9801 12.4927 5.49528
2578 1 9.22196 12.5584 3.5895
3097 1 9.02896 12.3341 7.15713
3072 2 10.8987 14.2645 3.42503
602 3 14.1327 14.207 7.34797
1603 2 12.5789 12.4209 7.23428
2605 3 14.2801 12.41 5.18807
2581 2 12.4219 12.4695 3.56097
3098 2 12.6824 14.2469 5.23754
3575 1 14.1822 14.5314 3.54917
1114 3 17.7588 12.4254 5.25474
1584 1 17.7046 14.1415 3.68536
2582 1 16.1505 12.5481 3.76839
3100 2 15.8596 14.5475 5.40842
3099 1 16.0344 12.6161 6.94482
3599 2 17.745 14.2156 7.46059
582 2 -0.270128 17.9544 3.84652
1605 3 1.75688 17.9801 5.42094
1604 2 1.90953 16.2175 7.02989
3104 1 0.226131 16.1977 5.66593
3103 1 0.0892554 17.8269 7.23559
3576 3 1.97417 16.1084 3.83703
2087 1 3.75663 18.1004 3.8184
2607 3 5.59053 17.8398 5.31129
2586 1 7.1572 17.9072 3.58301
3107 1 7.44265 17.5511 7.04541
3106 3 5.40802 15.9255 7.09549
3105 2 3.87605 17.6301 7.05193
3602 2 3.64409 16.1168 5.34568
3601 2 7.2558 15.9423 5.17436
3577 2 5.2887 16.0287 3.5196
1091 3 10.6743 17.8737 3.49004
2107 3 9.09424 15.9188 7.35771
2608 1 8.92094 17.7224 5.29184
3109 3 10.7946 17.8199 7.08825
3603 1 10.9422 16.0383 5.45569
3579 1 9.26007 15.8238 3.43502
41 2 14.1762 16.23 5.54101
2610 1 12.5458 17.8775 5.36164
2609 2 14.3014 17.911 7.34999
2587 3 14.2432 17.958 3.4607
3604 1 12.4601 15.982 7.07896
3580 2 12.5256 16.3013 3.69626
583 1 16.096 16.2863 3.57027
1606 1 17.9486 18.1517 7.35633
2109 1 15.9045 15.9925 7.28159
3112 2 16.0156 17.7658 5.6608
3110 2 17.7245 16.0876 5.44917
3582 3 17.7628 17.8293 3.78316
21 3 -0.201276 1.74894 8.97696
604 2 -0.123048 0.166275 10.94
2110 1 1.90482 1.81215 10.5951
2589 3 1.67548 0.260506 8.86176
585 2 7.26392 1.83583 9.0648
1092 1 5.42255 0.0896335 8.71893
1608 1 7.14602 0.0547251 10.719
1607 1 3.5808 0.178621 10.8928
2111 1 5.30217 1.66315 10.8709
2591 2 3.66093 1.71613 8.8966
1116 2 10.6776 -0.0147527 10.6514
2612 1 8.91826 1.96931 10.6997
2592 2 10.6543 1.80801 8.77405
3587 3 9.09705 0.0832316 8.93125
587 3 14.3166 1.62012 8.90405
1609 2 14.173 -0.124515 10.6965
2090 1 12.4339 -0.0585081 8.81319
2613 3 12.6306 1.60614 10.8395
26 2 15.9236 -0.024913 9.05759
2594 3 18.1133 1.72424 8.90533
3116 1 15.9557 1.57237 10.803
3115 3 17.7891 -0.166861 10.4611
1093 2 1.84569 7.25269 8.89393
2091 1 1.74256 3.53822 8.53481
2615 1 0.154603 3.74534 10.5579
3118 3 -0.159795 7.19162 10.76
3117 2 1.92173 5.5382 10.7786
3089 2 0.0554999 5.5238 8.81284
30 1 5.25141 3.44421 8.9722
45 1 7.12516 7.09107 10.5077
1096 1 3.59594 5.08828 8.9677
2112 1 7.01549 3.62083 10.6142
2616 1 3.37693 3.75549 10.5242
3091 3 6.79995 5.20611 8.73809
3608 1 3.57811 7.17621 10.8116
3607 3 5.40241 5.37074 10.7131
3591 1 5.52207 7.37973 8.86244
46 3 10.7214 7.1804 10.5998
1098 3 10.788 5.29281 9.05031
1591 1 8.80332 3.62219 8.92747
1588 2 9.15074 7.50354 8.75569
2113 3 11.067 3.45845 10.3693
3609 2 8.91683 5.21074 10.7441
32 1 12.7011 6.95875 8.72888
34 1 12.5427 3.33173 8.75496
36 1 14.3759 5.18702 8.9257
609 1 14.4858 6.99219 10.8722
3119 3 14.2714 3.44797 10.7193
3611 2 12.6599 5.20322 10.6072
1120 2 17.8032 3.32566 10.7389
1615 1 17.6242 7.0093 10.6116
1593 3 17.7107 5.48156 9.01409
2093 2 15.6738 7.04518 8.78866
2595 2 15.9984 3.35329 9.01011
3612 2 16.0269 5.26392 10.7343
48 2 1.7803 8.70525 10.9604
2095 1 -0.135213 8.88605 8.74802
2596 1 1.68438 10.7088 8.84301
3120 2 0.119669 10.373 10.637
37 3 3.70399 9.14216 8.73528
49 1 5.62237 8.88273 10.7101
612 2 7.26409 10.9524 10.7922
1105 2 5.56855 10.6381 9.13473
2096 2 7.27083 8.81636 8.94232
3121 2 3.61901 10.2853 10.7058
613 1 9.02143 9.03726 10.5997
598 1 10.9029 8.78452 8.74384
3613 1 10.8614 10.5428 10.7215
3596 2 9.04181 10.7914 9.03351
50 2 14.2507 10.5171 10.7528
614 3 12.6265 8.79316 10.8318
2598 2 12.6364 10.7255 8.7422
2597 1 14.32 8.87559 8.91347
51 3 17.8862 10.624 10.7011
600 2 17.7115 8.86999 8.83378
1122 1 16.0378 9.00521 10.4835
1109 1 16.0259 10.7695 9.06429
616 2 0.0584768 14.2919 11.0191
601 2 -0.182502 12.1989 8.69292
1123 1 1.78208 12.5035 10.8447
3094 1 1.78013 14.323 9.10872
1124 3 5.64815 12.6336 10.7896
1111 2 5.49408 14.1548 8.93057
1619 2 7.37207 14.3691 10.6312
1618 3 3.5552 14.2123 10.7028
1601 2 7.197 12.5259 8.92388
3095 3 3.53373 12.4676 8.88257
617 1 10.6364 14.1744 10.8257
1125 1 9.03262 12.6378 10.8938
3096 1 8.93961 14.032 8.99001
3598 2 10.7557 12.4216 8.99308
1126 3 14.1006 14.1442 10.6583
1113 1 12.3941 14.0802 9.08004
1620 1 12.3632 12.239 10.6196
1602 2 14.231 12.5483 8.99556
1621 1 16.0104 12.3039 10.6744
3126 1 17.8289 14.2841 10.6952
3102 3 15.9731 14.3336 8.88431
3101 1 17.7344 12.3499 8.99159
1623 3 0.202699 17.6562 10.7685
2119 2 1.93262 16.0909 10.8993
2606 2 2.05487 17.7308 8.89464
3600 3 0.0701784 16.1079 8.91489
40 3 7.33043 15.9358 8.87126
619 2 3.70607 17.7259 10.5574
1127 2 7.06627 17.7846 10.8346
2120 2 5.30435 15.9559 10.7267
2106 1 3.48308 15.8796 8.98473
2105 3 5.67427 17.7062 8.84109
1624 3 10.8872 17.7841 10.7305
2108 2 10.8997 15.9495 9.01079
2625 2 8.82173 16.2367 10.8748
3108 3 9.15863 17.8516 8.69874
603 2 13.8646 16.1878 8.96716
1115 2 12.511 17.9203 8.7409
2626 2 12.4255 15.9183 10.8873
3620 3 14.3632 18.0291 10.6126
2628 2 15.7392 16.0796 10.653
2611 2 17.6968 16.083 8.8018
3127 1 17.983 17.6233 10.4897
3111 1 16.1494 17.7791 8.86428
42 1 0.0487393 2.01643 12.8118
2121 3 0.270016 0.123779 14.564
2629 1 2.11912 2.10278 14.3147
3113 3 1.8669 0.162564 12.5814
43 2 3.48444 2.06242 12.4358
605 3 7.07856 1.77615 12.6512
1625 2 7.41414 -0.0757518 14.3256
2123 2 3.69903 0.102316 14.2417
3128 1 5.53035 1.68036 14.2887
3605 2 5.26385 -0.0169417 12.5515
606 1 10.7017 1.77728 12.3442
1627 3 10.6478 -0.0552104 14.153
3129 2 9.18202 1.6647 14.3693
3606 2 8.83913 0.320134 12.4522
1117 3 14.2315 1.59159 12.7061
2632 3 14.5374 -0.0953413 14.2059
3131 3 12.2787 1.8534 14.589
3114 3 12.4748 -0.11228 12.4594
44 1 16.2136 -0.0581434 12.4438
501 3 18.0513 0.0812726 14.1744
2614 3 17.874 1.76825 12.4841
3132 2 16.0973 1.68892 14.2026
607 3 1.7674 3.66467 12.4865
1119 2 1.91031 7.01311 12.5659
1118 3 -0.0555229 5.49429 12.4714
2634 1 -0.0824457 7.37241 14.2104
2633 2 -0.0493256 3.83628 14.173
3624 3 1.80929 5.38273 14.2393
60 1 7.07145 7.22422 14.2448
608 2 5.47356 3.58792 12.4449
1612 1 7.24776 5.14358 12.4403
1611 3 5.49601 7.00352 12.5357
1610 1 3.57229 5.30898 12.5592
2128 2 7.22351 3.673 14.2513
2126 2 3.67492 3.81013 14.3983
3136 2 3.57797 7.16362 14.0587
3626 1 5.53603 5.43152 14.2688
1613 2 10.5268 5.31301 12.4136
2114 3 8.92615 7.07306 12.2285
3137 1 10.8045 3.59707 14.4492
3629 1 8.69026 5.4022 14.3371
3628 3 10.7029 7.09483 14.2079
3610 3 9.03056 3.48225 12.6429
610 1 12.3663 3.48431 12.446
1614 2 14.1845 5.14142 12.4477
2617 2 12.4899 6.98941 12.3804
3138 3 14.0882 3.53474 14.3504
3631 1 14.2416 6.86894 14.0847
3630 3 12.4285 5.33775 14.1986
47 1 17.9528 5.16657 12.5248
65 1 16.0905 5.49123 14.3999
1138 3 17.7797 3.46496 13.9794
1121 2 15.903 3.51429 12.4472
2618 2 16.0997 6.95239 12.6533
3140 2 17.9633 7.0774 14.2627
67 2 1.69364 8.79147 14.2771
611 3 1.68362 10.6561 12.6619
2115 1 -0.0309891 8.8897 12.6766
2636 2 0.0999571 10.6019 14.3551
69 1 7.23743 10.6495 14.1227
70 2 5.37921 9.02361 14.2329
1616 3 5.36395 10.5422 12.3327
2116 1 3.48767 8.9052 12.6199
2619 3 7.12737 8.89352 12.4468
3633 3 3.66768 10.6569 14.333
71 2 8.91819 8.79464 14.1885
2117 1 8.99774 10.8767 12.5931
2620 3 10.8153 8.58948 12.4229
3141 1 10.7633 10.5526 14.453
510 1 12.5048 8.78395 14.3413
1617 3 12.4822 10.6084 12.4243
3122 2 14.3427 8.73066 12.4907
3635 2 14.4465 10.4059 14.1282
511 3 16.036 8.57976 14.4242
615 3 17.7839 8.81122 12.5302
1639 3 17.8908 10.4715 14.2286
2118 3 16.1447 10.6423 12.476
513 1 0.0448004 14.0722 14.174
514 2 2.07023 12.5491 14.1644
2621 1 0.22368 12.466 12.5194
3123 1 2.05629 14.3588 12.596
72 3 7.16038 14.2508 14.6154
515 2 5.55278 12.1423 14.2106
516 1 3.76151 14.3038 14.1452
3125 3 7.34561 12.6417 12.5888
3124 1 3.76007 12.2228 12.5288
3614 3 5.5399 14.2326 12.7416
73 1 10.6148 14.1608 14.4499
1145 3 8.92825 12.3956 14.3949
3616 2 10.768 12.3902 12.8602
3615 2 9.11701 14.3972 12.8257
1147 3 12.5459 12.2987 14.2093
1146 3 14.286 14.3452 14.1028
2622 2 12.506 14.2381 12.6114
3617 1 14.2313 12.3279 12.467
1149 2 15.9378 12.6554 14.246
1622 3 17.9587 12.4274 12.4
3146 2 17.8442 14.2102 14.3148
3618 2 15.9455 14.2463 12.3646
52 1 0.203554 15.8766 12.4677
518 3 -0.0148492 17.67 14.0887
1150 1 1.80905 16.1232 14.3025
2623 3 1.98197 17.9512 12.5396
53 2 3.77165 15.9418 12.567
618 1 7.27124 15.8839 12.5539
1151 2 3.88323 17.7247 14.1452
1642 2 5.54297 16.1626 14.3931
2142 1 7.08292 17.7268 14.0993
2624 1 5.38682 17.7692 12.2221
54 1 10.8326 15.9456 12.7109
1643 3 8.7886 16.0887 14.5534
2649 2 10.6181 17.869 14.3245
3619 1 8.99782 17.8863 12.6924
55 3 12.4838 17.6111 12.5662
620 1 14.2159 16.021 12.2481
1646 3 12.5942 15.9712 14.3643
1644 2 14.166 17.6508 14.3747
56 3 16.0107 17.7484 12.607
1647 1 15.9674 16.0058 14.2778
2627 1 18.0061 15.9471 12.5389
3644 2 17.9346 17.9496 14.1673
57 2 1.87476 0.124468 16.1874
621 3 0.00016124 2.08234 15.7654
1128 3 0.142944 0.223009 17.8074
2122 1 1.99628 1.85828 17.6681
58 2 5.48495 0.173651 15.8888
1132 1 6.83748 0.0551393 17.7534
1131 1 7.65376 1.79876 16.0725
1130 3 3.95278 -0.0367195 17.6915
1129 3 3.89089 2.01342 16.1209
2630 2 5.46831 2.15459 17.8751
1133 2 10.5444 2.03591 16.1754
1626 1 10.9363 0.159629 18.0576
2631 1 8.96799 1.93521 18.0395
3621 1 9.28101 -0.210959 15.9296
59 3 12.604 -0.0469875 15.9315
1134 2 14.2618 1.7839 15.9871
2124 2 14.178 -0.0219591 17.8505
3130 1 12.5016 1.76336 17.58
502 2 16.14 -0.31002 16.0036
3133 3 16.145 1.66652 17.8915
3623 3 17.8559 0.221315 17.9834
3622 2 17.9464 1.54901 15.8918
503 3 1.77148 3.79847 16.0012
504 3 1.80826 7.19947 16.028
1628 3 -0.00750088 5.40863 16.0656
2125 1 0.23143 3.76979 18.0527
3134 3 0.0281077 7.12839 18.0018
3625 3 1.90269 5.61694 17.8137
61 3 5.4353 3.70212 15.8409
505 2 3.78628 7.19252 17.7787
1135 2 7.24193 7.20803 17.9051
1631 1 5.18378 7.20798 15.893
1630 2 3.50682 5.51664 16.0418
1629 2 6.99538 5.31899 16.3748
2127 2 3.71944 3.91128 17.8114
3135 1 7.24286 3.56781 17.9717
3627 2 5.40696 5.62137 18.0791
62 1 9.14479 5.35805 17.9607
63 3 10.94 7.31701 17.9718
506 3 9.07649 3.90465 16.1154
1632 2 10.824 5.50181 15.917
2129 1 8.68445 7.02547 16.0421
2635 2 10.7584 3.78114 17.94
64 1 12.4877 5.42125 18.0258
1137 1 14.254 6.82268 17.7644
1136 2 12.4983 3.61604 16.0583
2131 3 14.143 5.3228 16.0531
2130 3 12.3965 7.06318 15.9548
3139 1 14.388 3.45276 17.7424
66 3 17.9404 5.48871 15.9859
507 1 16.0376 5.14252 17.6493
1140 3 17.8076 3.39439 17.9332
1139 2 16.3205 3.4216 15.9241
1634 1 17.7193 6.80683 18.1688
1633 2 16.0877 6.90887 16.2576
508 1 1.81662 8.98791 17.8713
1141 2 2.03654 10.7057 16.0887
2132 1 0.0181693 8.93717 16.213
3632 2 0.0994865 10.7473 17.8221
68 3 3.77538 10.8029 17.9319
509 2 7.18114 10.5299 18.0162
1142 3 5.60831 8.869 18.0697
1635 1 5.38601 10.7378 16.0876
2134 2 7.06706 8.92055 16.1345
2133 3 3.68802 9.05628 16.1366
1143 3 9.08028 9.12676 17.8967
1636 2 8.84398 10.7092 16.0761
2637 1 10.577 8.78271 15.8793
3634 3 10.8782 10.557 17.9307
1144 2 12.5837 10.7983 16.017
1638 1 12.7222 8.90608 17.7451
1637 2 14.4673 10.7089 17.604
2638 3 14.2904 8.77287 16.0908
512 1 17.8414 8.81052 16.1477
1640 1 15.9382 8.85842 17.8793
2135 3 16.1024 10.5852 15.8748
2639 1 17.7419 10.8478 17.8824
2137 2 -0.0982941 14.1296 17.8098
2136 3 1.83028 12.479 17.8498
2641 1 1.70593 14.2157 16.0935
2640 1 -0.0554201 12.3016 16.1024
2140 2 7.29622 14.1831 17.9242
2139 1 3.52685 14.3468 18.0267
2138 3 5.42668 12.6124 17.9601
2643 2 5.35981 14.3417 16.0016
2642 3 3.53729 12.3992 16.0153
3142 3 7.24199 12.3783 16.2926
2141 2 8.9353 14.0954 16.1743
2645 2 9.07669 12.1698 18.0515
2644 2 10.7409 14.4711 17.6009
3143 1 10.6991 12.3621 16.3119
2647 3 12.4535 14.2482 16.1084
2646 1 12.526 12.5187 17.7211
3145 2 14.3124 14.3975 17.6324
3144 3 14.3046 12.5871 16.0574
517 1 17.9386 14.185 17.9943
1148 2 18.1325 12.355 16.0233
3148 1 16.1341 14.235 15.9391
3147 2 16.0737 12.5053 17.8082
2648 1 1.57106 17.687 16.0477
3150 2 1.57626 15.837 17.9158
3149 1 -0.0344251 15.9116 16.1919
3636 2 0.0392047 17.7889 17.9848
1641 2 3.48599 17.6037 17.8469
2143 1 7.11738 18.027 17.8041
3640 2 5.25873 17.8296 16.0355
3639 1 7.0791 16.2231 15.961
3638 2 5.56106 15.9711 17.8243
3637 1 3.46344 15.9096 16.0333
74 3 8.97083 17.7826 16.1236
519 2 10.7447 17.7798 17.9287
3642 1 8.94122 16.0151 17.7716
3641 1 10.7314 16.0626 15.9467
75 3 12.4226 16.1141 17.6268
76 2 12.3497 17.944 16.0568
1645 3 14.1079 17.983 17.7279
3643 2 14.2416 16.3396 16.097
77 1 16.1697 16.1151 17.8098
2144 3 17.8506 16.1282 15.9932
2650 1 17.9657 17.6931 17.7256
3645 1 16.0451 17.9741 15.9979
520 1 0.0466093 0.161975 21.2609
78 2 0.170928 2.10407 19.4026
2145 2 1.96953 1.79624 21.3933
3151 1 1.97895 0.208944 19.528
521 1 3.61636 -0.0968709 21.3721
80 1 3.73263 1.9265 19.5277
79 2 7.04448 1.9618 19.7246
2147 3 5.29558 1.62121 21.5637
2146 3 7.06432 0.0300487 21.3607
2651 3 5.34532 -0.208181 19.6847
81 2 10.4957 1.57515 19.8337
1648 1 10.475 0.0650592 21.5551
2652 3 8.73615 1.78745 21.4544
3152 3 8.71714 0.0492276 19.6698
522 3 14.2686 1.82384 19.4681
1649 3 14.1688 0.0851731 21.5061
2653 2 12.5546 1.8318 21.4025
3646 1 12.4413 -0.0409115 19.7073
82 3 17.6996 0.0155296 21.4998
2654 1 17.7197 1.77201 19.7813
3153 3 16.1405 1.84864 21.4539
3647 2 16.2136 0.0565716 19.6323
523 1 0.0782627 5.36212 19.5335
84 2 1.86806 7.30026 19.5794
83 1 -0.141386 7.23178 21.5749
1650 2 0.173639 3.54957 21.21
3155 2 1.8258 5.5399 21.3736
3154 3 1.96277 3.60039 19.4676
524 1 3.72121 5.42433 19.6509
525 2 7.05728 5.63898 19.7388
526 2 3.70956 7.32534 21.3903
1153 3 7.45535 7.26771 21.6163
1152 3 5.27249 7.27565 19.7059
2655 2 3.57792 3.58824 21.3581
3156 2 7.03568 3.50812 21.7159
3649 1 5.25213 3.74782 19.9333
3648 3 5.33229 5.42642 21.4742
86 2 10.8356 7.05498 21.6357
85 3 8.72508 3.77689 19.6594
1155 1 10.8551 5.51196 19.8437
1154 2 9.21217 7.32358 19.5351
2656 1 10.9061 3.50851 21.5308
3650 3 8.84141 5.40692 21.4761
527 2 12.8542 7.16569 19.7839
88 1 12.6981 5.20968 21.4298
87 3 12.4348 3.40324 19.6076
1156 2 14.4089 5.22376 19.5201
2148 2 14.3741 7.1801 21.6751
2657 1 14.1532 3.41345 21.5537
528 1 17.7543 3.5276 21.4676
89 2 15.999 5.36893 21.3796
1157 1 15.8666 7.11642 19.4167
3158 1 17.8358 5.18885 19.731
3157 3 17.4552 7.13212 21.3469
3651 3 15.9873 3.49358 19.6805
529 3 1.7137 8.9921 21.3085
530 3 1.87721 10.8013 19.79
1158 3 0.0547973 8.97987 19.6885
3652 3 -0.0532228 10.7048 21.4016
531 1 5.5266 9.01514 21.5014
532 2 5.30817 10.7632 19.5646
533 1 7.3915 10.619 21.3943
1159 3 3.62933 9.01683 19.5263
1651 3 7.21326 9.03652 19.7832
3653 3 3.53802 10.9189 21.3155
90 2 9.04836 10.5428 19.7313
1161 1 9.08479 8.95342 21.5987
1160 2 10.581 10.703 21.4428
1652 3 10.8838 8.88582 19.807
534 1 12.5086 10.8517 19.5981
1162 3 12.6217 8.96857 21.4268
1654 1 14.5023 10.7693 21.7319
1653 3 14.2303 9.02408 19.7935
1656 2 15.845 10.912 19.4586
1655 3 16.1267 9.09412 21.4141
3159 2 17.8034 10.8855 21.5032
3654 3 17.6036 8.93435 19.537
1660 2 0.0786894 14.4687 21.4829
1659 2 1.67052 14.2053 19.6349
1658 1 1.58592 12.5487 21.3989
1657 1 -0.283826 12.3677 19.5209
1163 2 5.43068 14.7104 19.6335
1661 3 3.68992 14.3906 21.4161
2151 3 7.30772 12.2304 19.6445
2150 3 5.59617 12.4816 21.468
2149 3 3.68759 12.6352 19.6736
3160 3 7.11234 14.2155 21.4254
1662 2 9.12323 14.1631 19.6045
2153 1 9.12242 12.6317 21.428
2152 2 10.7464 12.4641 19.6534
2658 1 10.9538 14.2574 21.4595
2155 1 14.4219 12.6106 19.4237
2154 3 12.4402 14.5272 19.3498
2660 2 14.1654 14.397 21.1783
2659 2 12.4499 12.3526 21.5175
535 1 17.6595 12.6617 19.4922
1164 1 17.8963 14.3893 21.4666
2156 2 15.9472 14.4112 19.6848
2661 2 16.1531 12.5064 21.4696
1165 1 0.0936338 17.9233 21.1644
2157 1 1.76153 17.8999 19.627
2662 3 -0.104963 16.0434 19.7436
3161 3 1.776 16.2224 21.4636
1664 2 7.13886 17.6032 21.3115
1663 3 3.63645 17.5182 21.2968
2664 2 3.61469 16.1086 19.5178
2663 3 7.47602 16.0693 19.4896
3163 3 5.44132 16.0762 21.7226
3162 2 5.38278 17.9176 19.6188
536 3 10.7117 17.7037 21.5207
2665 1 10.5916 16.1509 19.5793
3164 2 9.01717 17.8655 19.5851
3655 3 8.97466 16.0959 21.3472
2666 3 12.383 17.9772 19.5677
3166 3 14.3049 16.2899 19.4919
3165 1 14.1528 17.9092 21.3504
3656 1 12.5011 16.1615 21.3728
92 3 16.1002 16.2283 21.4066
91 1 17.9455 17.865 21.2427
1166 1 17.8489 15.9491 19.7355
3167 2 16.1632 18.0113 19.2788
93 1 1.76855 1.92401 25.1951
1665 3 2.02557 0.100346 23.1281
2667 1 0.124979 0.0302566 25.2778
3168 2 0.0874137 1.78645 23.1156
2158 2 5.15547 0.0837715 23.4854
2670 1 3.60711 -0.0885487 24.9933
3170 1 6.90266 1.78551 23.1041
3169 3 3.53013 2.04226 23.1441
3659 2 7.12502 0.310137 24.8971
3658 1 5.48682 1.87481 25.022
537 3 9.12266 2.0159 25.1932
2671 1 9.02233 0.151955 23.414
3171 2 10.745 -0.216845 24.9533
3660 1 10.8706 1.88884 23.5087
2673 1 12.6484 0.0897687 23.5707
3663 3 14.2926 1.76335 23.3556
3662 3 14.5118 -0.138894 24.9545
3661 1 12.4966 1.85623 25.0576
539 3 16.0875 1.87473 25.1989
1167 2 17.8655 0.148655 24.9724
1668 1 17.9972 1.81537 23.441
2160 1 16.04 0.0277771 23.261
99 3 1.73574 5.2633 24.7982
98 1 1.74923 7.11194 23.2246
97 1 -0.213354 7.28805 25.0073
96 1 0.10218 5.22862 23.161
3173 1 1.92579 3.63341 23.0726
3172 2 0.0707759 3.78645 25.1128
540 3 3.59936 7.48362 24.8819
541 3 5.5752 7.49976 23.1444
542 1 7.08231 5.44013 23.3597
543 2 5.40873 5.26972 25.048
101 1 7.18982 7.03465 24.993
100 3 3.62922 5.36587 23.1216
2675 1 7.00321 3.41427 24.7928
3175 2 3.76613 3.48054 24.8825
3665 1 5.1664 3.67464 23.1279
546 2 8.82976 7.26114 23.5353
547 2 8.85218 5.28736 25.0702
102 1 10.6936 5.49284 23.2062
1170 3 10.7092 6.92659 25.3139
3177 3 10.6784 3.80085 25.1303
3666 3 9.03114 3.5817 23.1663
548 2 14.3239 5.21612 23.1512
549 1 12.7158 5.48302 24.9924
105 3 14.3128 3.50114 25.2612
1670 1 12.6163 7.10254 23.3376
3179 1 12.4791 3.6995 23.3867
3667 2 14.3572 7.21854 25.1388
1172 2 15.952 5.15491 25.2517
1672 1 17.6755 3.57772 25.1965
1671 2 15.9302 7.32207 23.3944
2678 1 17.8777 7.22663 25.2882
2677 3 17.7447 5.27788 23.1439
3668 3 16.0267 3.40494 23.3601
550 2 0.144559 8.77125 23.4
106 3 1.49416 10.8053 23.2175
1175 3 1.82058 8.94127 25.1071
3669 2 -0.0973323 10.8032 25.1616
108 2 5.35233 10.8941 23.173
1180 3 7.09657 10.9282 24.9999
1178 2 7.07326 9.23827 23.2222
1177 3 3.48404 9.01727 23.0291
1176 3 5.50298 8.98045 24.9335
3670 3 3.69654 10.6776 25.0463
551 2 10.9041 10.8153 24.8711
552 3 8.98973 10.7924 23.2225
1181 2 9.29953 9.0778 25.0225
1674 3 10.9814 9.08145 23.2299
1182 2 12.5497 10.7573 23.1077
1676 2 12.232 8.7333 25.183
1675 2 14.1566 9.06966 23.6903
2163 3 14.1563 10.7855 25.0857
1183 1 16.1195 9.26661 25.3237
1677 1 16.1853 10.4612 23.3187
2165 1 18.0207 10.831 25.2263
3671 3 17.9244 8.87065 23.3653
555 1 0.197582 14.1995 24.894
1184 1 1.80578 14.0775 23.2076
1678 3 1.8507 12.5599 25.0668
2166 2 -0.150301 12.5338 23.213
113 2 7.12039 14.3088 25.0653
1185 2 5.44102 12.5241 25.1726
2170 3 5.43601 14.4234 23.3498
2169 1 3.64197 12.4985 23.2852
2168 1 3.44994 14.3571 25.2563
2167 2 7.12874 12.5995 23.3012
1680 1 10.9162 14.2378 24.8319
2171 2 10.7704 12.5027 23.4298
2682 3 9.01912 14.3397 23.1054
2681 1 8.85115 12.617 25.221
114 2 14.218 14.3343 25.1899
1681 1 12.5918 12.6566 25.0226
2684 3 14.3584 12.4734 23.3953
2683 3 12.544 14.4057 23.1018
557 2 17.7923 12.6108 23.359
2173 2 15.8896 14.3787 22.9728
2685 2 16.0469 12.2272 24.9142
3183 3 17.7122 14.2396 24.9481
1684 2 1.8655 16.0058 24.7641
1683 3 1.61697 17.6949 23.1806
2688 1 0.017471 15.9534 23.3121
2687 2 0.000954916 17.8181 24.7705
2175 1 7.37164 17.958 25.0317
2174 2 5.46814 17.8838 23.0885
2689 2 3.39626 17.6704 24.8497
3187 2 5.35284 16.2888 24.8491
3186 2 7.11074 16.1255 23.2058
3185 1 3.62846 16.0884 23.1775
1687 3 9.07611 17.85 23.1327
1686 1 9.18956 15.8511 25.0402
2177 2 10.8424 17.7657 24.97
3675 2 10.8928 16.1775 23.2904
2178 2 14.6842 17.9849 25.17
2690 3 12.5308 17.8703 23.44
3188 1 12.6606 16.1104 25.1637
3676 2 14.4159 16.2379 23.2585
1187 1 17.4844 16.1521 23.4748
1186 2 17.8072 18.0375 24.9416
1689 1 15.9327 16.0836 25.2214
3189 3 16.0949 18.0479 23.0936
1188 3 0.248857 -0.0237495 28.7041
2180 1 2.1783 1.72854 28.6186
2668 3 1.8403 0.0722444 26.7822
3657 3 0.0718529 2.11394 27.0209
559 3 6.96425 0.14617 28.5739
94 3 7.15972 1.69187 26.7991
1189 2 3.76289 -0.0241948 28.5499
1666 3 5.41141 -0.0495966 26.9059
2181 1 5.1764 1.77694 28.4715
2669 1 3.60408 1.76158 26.7712
560 3 10.5044 0.0835063 28.3741
95 1 8.7844 0.0434972 26.6428
2182 1 9.02584 1.84615 28.6683
2672 1 10.9646 2.03317 26.734
538 2 14.4643 1.64953 26.9646
1667 1 12.4982 0.0169445 26.9192
2184 2 12.4019 1.75238 28.5667
2183 3 14.1556 0.098894 28.8785
2159 3 17.6901 1.79185 26.9627
3193 1 15.9879 1.58323 28.6057
3679 3 17.7081 -0.0482361 28.724
3664 1 16.0864 -0.0769365 26.8095
1168 2 1.94715 3.64395 26.5542
1669 3 1.67832 7.17377 26.599
2186 1 -0.0248411 7.18097 28.5502
2185 1 0.226491 3.63146 28.7638
2674 2 -0.25929 5.42577 27.0529
3194 2 1.70455 5.2462 28.4737
544 3 3.51351 5.39409 26.688
563 3 6.9315 6.95099 28.4793
1691 2 7.29083 3.54975 28.7468
1690 1 3.75588 3.51435 28.5595
2676 2 7.18749 5.12201 26.7121
3196 3 3.36665 7.28223 28.7048
3195 1 5.23619 5.43812 28.746
3176 3 5.22711 3.61885 26.6947
3174 3 5.3974 6.99218 26.6974
545 1 10.6141 5.4521 27.1371
1171 1 8.83602 3.44392 27.0774
1169 3 9.03163 7.33322 26.7923
2694 3 10.7746 3.53383 28.6552
3197 2 8.82643 5.50745 28.4941
3681 3 10.7377 7.20169 28.5951
104 3 12.5595 3.71368 27.0043
103 3 14.3316 5.16296 26.9179
2695 1 14.0615 3.39808 28.8195
3178 3 12.4659 7.1875 26.9923
3684 2 14.2829 7.01918 28.5874
3683 3 12.5937 5.3004 28.742
622 3 17.7319 3.56052 28.7195
1004 1 17.636 7.26534 28.4431
1174 3 15.9567 7.1478 26.7494
1173 1 17.7859 5.31129 26.9285
3180 3 15.9176 3.46458 27.022
3685 3 15.995 5.51991 28.739
1673 2 0.0160808 9.01528 26.9737