ITEM: TIMESTEP
5000
ITEM: NUMBER OF ATOMS
4000
ITEM: BOX BOUNDS pp pp pp
-6.4446000198913111e-02 3.5589976000199044e+01
-6.4446000198913111e-02 3.5589976000199044e+01
-6.4446000198913111e-02 3.5589976000199044e+01
ITEM: ATOMS id type x y z
2628 1 7.18064 -0.107244 17.7468
3566 1 1.79791 3.50459 1.77312
1 1 3.41063 1.75425 1.90907
3149 2 16.2071 16.081 17.7335
1065 2 5.28648 1.64922 3.47104
1566 3 5.53065 3.59845 1.83464
1565 2 16.0071 0.189283 1.85312
2065 2 7.24418 1.75677 1.77096
3065 2 8.81944 1.85401 3.64646
3567 2 8.92657 3.63497 1.91842
2 1 10.677 1.92104 1.86291
695 1 10.5697 17.8877 17.5662
1067 2 12.2647 1.76486 3.39987
2596 3 5.15278 -0.412616 8.67339
572 3 14.0973 3.72687 3.66793
2066 2 14.1942 1.78465 1.69214
2614 3 3.74673 0.086795 14.3396
3067 2 15.9438 1.83341 3.51354
3568 2 16.1489 3.53322 1.71888
1703 1 5.13626 17.8627 5.40792
3701 1 1.51084 17.7615 5.2812
2119 2 -0.0588442 8.88801 16.0501
1568 3 1.93154 6.93128 1.56118
1704 3 3.48058 17.7739 6.99364
2067 2 3.52119 5.46632 1.92759
2051 2 17.8738 1.53081 16.3132
4 2 7.27219 5.42172 1.88385
3569 2 5.34945 7.08197 1.84667
2572 1 10.6863 3.72248 3.62953
1071 2 9.03906 5.55939 3.66757
2871 2 17.8439 10.5521 14.3675
1569 1 8.98676 7.21048 1.96284
576 2 10.7343 7.3106 3.78608
1567 3 12.3653 3.50741 1.78916
2068 3 10.7913 5.36041 1.87643
3071 3 12.3061 5.43342 3.74751
776 1 17.7501 -0.0476841 6.89145
5 3 13.9734 5.41801 1.77074
1073 3 16.043 5.44908 3.4422
1066 3 9.02838 1.78754 0.0950844
2569 3 0.00337288 3.43261 -0.14837
6 2 3.58983 8.7732 1.79332
1596 2 12.5097 0.228743 12.5031
678 3 7.08136 17.8617 14.3127
3073 3 1.66925 8.91475 3.76531
1075 3 5.51342 8.95923 3.59935
623 1 -0.128209 14.0312 14.0452
2070 2 6.86435 8.95547 1.65613
282 3 17.995 1.67579 12.421
3075 3 9.21504 8.90402 3.61117
7 1 10.5904 9.17479 1.63563
2071 2 14.1003 8.9015 1.72372
3740 1 5.23499 17.7347 16.0474
3570 1 12.5159 7.14089 1.92336
1570 1 16.2064 6.91359 1.63419
3077 3 15.8209 8.75116 3.6246
1613 1 1.68061 0.309627 16.0291
2577 3 10.5703 7.13432 -0.0342942
1738 2 1.67096 17.8405 15.848
1573 3 1.76183 14.2993 1.72508
2866 2 17.921 3.35663 14.2223
3571 3 1.51547 10.6421 1.66945
2072 2 3.55686 12.372 1.76591
1571 1 5.02727 10.5843 1.52987
3079 2 5.37703 12.1378 3.72867
3574 2 5.36448 14.0474 1.79892
9 2 7.148 12.3288 1.89408
2586 1 7.10905 14.2559 3.32861
580 1 7.24024 10.3497 3.47678
1081 3 8.84682 12.4034 3.43718
3572 1 8.75973 10.6317 1.49353
2073 2 10.7979 12.2118 1.80018
2582 3 10.6781 10.7325 3.74587
10 2 14.0581 12.5984 1.73839
582 2 14.2647 10.592 3.526
1572 1 12.4988 10.7191 1.87485
3081 3 12.4495 12.4434 3.7088
3595 2 1.80539 -0.156801 12.5894
1575 1 15.9039 14.2384 1.82949
811 2 17.732 14.2668 14.1326
3573 1 15.9225 10.5981 1.96652
1625 3 16.0695 14.4227 16.1207
39 3 -0.0325817 8.61672 8.71528
584 1 3.54256 14.0383 3.40162
1084 3 1.87273 15.8937 -0.193432
606 2 -0.208885 10.6754 10.5929
1150 3 12.4847 15.8654 17.8696
614 1 7.01745 -0.0438288 14.1459
1064 2 2.09834 1.9468 0.0166864
1688 3 1.72637 17.6349 1.94593
11 1 3.56367 15.948 1.85189
2075 2 7.16883 15.9165 1.67197
1574 1 8.86963 14.1111 1.47649
586 3 10.686 14.2539 3.43074
253 2 17.8688 5.1093 1.72632
12 2 10.5839 15.8549 1.77202
2564 1 0.019065 -0.0149614 3.34111
1742 2 16.1328 17.8349 15.7677
1068 1 15.8599 1.72266 -0.156417
2588 2 13.9561 14.3673 3.68359
3575 1 12.1812 14.2297 1.63725
2076 1 14.1126 15.779 1.70774
3124 1 12.4341 16.2873 14.2104
1594 3 1.65222 -0.303882 8.78133
1690 1 9.08621 17.6022 1.80446
3087 2 15.8502 16.0418 3.56291
3084 1 5.35847 15.9766 0.0592989
3063 2 1.63586 1.86976 3.23634
1579 1 1.81837 3.6215 5.23769
581 2 10.6357 10.5544 -0.110376
2570 2 3.63829 3.43584 3.51316
570 1 7.3115 3.68762 3.46879
2077 1 3.4617 1.76718 5.34583
14 1 6.93226 1.45378 5.22239
1581 2 8.8694 3.47968 5.48814
2079 1 10.7617 1.7968 5.23083
590 2 10.4441 3.36851 7.20461
2727 1 14.239 17.8097 10.7876
659 3 3.3465 17.7773 10.7671
2691 3 3.64681 17.7214 -0.242519
3582 2 12.4072 3.58043 5.27373
15 3 12.331 1.89782 6.90465
16 1 14.1846 1.97657 5.02836
1582 1 15.9232 3.56178 5.24025
2615 3 10.5672 0.0515877 13.9978
1583 3 14.3159 3.55638 6.98676
1069 2 1.76973 5.42575 3.39605
17 2 3.44713 5.12141 4.97858
3583 1 1.55763 6.99029 5.39392
2081 2 1.79434 5.55844 6.94093
3069 2 5.39935 5.44577 3.56295
2576 1 7.17071 7.07987 3.36827
3580 1 5.49747 3.48481 5.3948
3089 2 5.56027 5.22699 7.16002
2082 2 7.24124 5.21945 5.26979
19 3 10.7136 5.33479 5.48146
3585 2 8.88999 7.26292 5.36037
1585 3 12.48 7.05764 5.46449
1091 1 12.5922 5.19961 7.031
2578 2 14.2867 7.13023 3.69884
62 3 10.5508 16.0075 16.0435
2083 3 14.4009 5.27582 5.2744
2084 1 16.2133 5.27231 7.21062
2580 1 3.45706 10.6238 3.66293
2126 2 14.3347 15.9301 15.9502
2085 3 3.59929 8.80544 5.35491
1587 1 1.8185 10.5833 5.39431
592 3 3.59164 10.5702 7.15488
574 1 3.6368 7.41222 3.50275
1584 1 5.44594 6.96322 5.30905
22 2 7.14216 8.64888 5.35562
21 3 5.5066 8.7644 7.17027
2086 1 10.9671 8.80548 5.59169
591 3 7.29556 7.07512 7.01546
1077 2 12.4885 8.83823 3.73297
2087 1 12.3393 8.7781 7.47886
2592 3 14.3326 6.81745 7.12158
3590 3 14.2965 10.6819 7.28542
23 2 14.1344 8.91072 5.68434
3586 1 16.0248 6.8268 5.37089
3091 2 15.9437 8.8865 6.95372
1079 2 1.7065 12.8122 3.56455
3591 3 1.5862 14.2384 5.26304
25 2 3.42699 12.526 5.43657
1591 3 5.30451 14.3027 5.23663
3588 2 5.57944 10.424 5.3111
1093 1 5.21804 12.3551 7.06352
1589 1 7.24876 10.4883 7.17963
1588 3 8.67191 10.6785 5.20892
2089 2 7.15975 12.3975 5.37612
26 1 10.6681 12.4435 5.46523
2090 3 8.93868 12.1297 7.23893
2594 2 6.97056 14.2797 7.08722
2593 3 10.6431 10.7069 7.20127
3593 3 10.6334 14.217 7.30862
1593 1 12.3968 14.133 5.42806
2091 1 14.2879 12.3319 5.53521
3589 3 12.5583 10.7484 5.42627
3092 1 12.4209 12.4834 7.27575
1083 3 15.8388 12.4137 3.4301
1590 3 15.9882 10.5186 5.28632
3594 1 15.857 14.1019 5.36267
2568 1 14.1832 0.0673439 3.42435
3083 2 1.81897 15.7501 3.48088
2616 2 -0.264838 3.54942 14.2649
806 2 17.7232 7.00524 14.2915
1580 2 0.0998325 3.62422 7.07392
1085 2 5.37204 16.2066 3.32993
2092 2 3.52279 15.948 5.14324
29 3 6.98472 15.9371 5.0727
2093 1 5.31034 16.2028 6.93932
2759 1 14.209 17.7875 17.3685
3085 3 8.97302 15.7594 3.42337
3592 3 8.82491 14.1221 5.33928
3093 1 8.66319 16.0796 7.06094
1087 3 12.2745 16.0733 3.40201
31 1 14.2163 15.7527 5.48371
2094 1 10.3295 16.0072 5.57514
30 2 12.3151 15.8865 7.19051
613 1 -0.193252 0.0626077 14.0617
3576 3 1.58106 -0.297678 5.34925
1095 2 15.9797 15.635 7.06581
1089 1 1.92214 1.65633 6.82712
566 1 10.8973 -0.166798 3.52304
1072 1 12.3214 5.32631 -0.223219
2599 1 1.86415 3.46861 8.85228
3095 2 3.40761 1.71182 8.82883
3094 2 1.73658 1.56125 10.6902
2078 2 5.17466 1.80938 7.21534
3690 3 5.35288 17.9165 1.88196
3599 2 5.28622 3.56908 8.884
3581 2 7.40495 3.58635 7.37466
600 1 6.97136 3.76121 10.7654
33 2 7.13857 1.8428 8.89097
3088 2 8.85236 1.63056 7.00732
289 2 18.0153 8.64029 8.99325
1097 1 10.8445 1.5456 8.97911
3096 2 8.66764 1.86338 10.6555
3579 1 15.9088 -0.0204101 5.28671
1595 3 5.1484 -0.0192723 12.3238
2098 1 14.3112 1.81672 8.77897
1090 2 15.971 1.89789 6.94815
786 2 17.8227 3.82061 10.8313
3097 3 16.1667 1.85865 10.6326
2590 2 3.42857 3.68667 6.96151
1076 2 8.9815 8.88749 -0.150242
3602 1 1.80824 7.14934 8.81214
1099 3 1.854 5.15774 10.5329
36 2 3.38525 5.48166 8.86174
3584 2 3.66259 6.96166 6.78049
602 1 5.15741 6.95421 8.75223
599 2 8.98546 3.43786 8.91209
18 1 8.8403 5.37571 6.90087
1100 2 7.3234 5.36549 8.92957
1603 1 8.80582 7.13021 9.00954
2601 2 10.6704 3.60201 10.7011
1600 3 12.5367 3.45542 8.90112
2101 2 10.8121 5.22139 8.8737
2605 3 12.4896 6.89079 8.89189
3100 1 12.5076 5.34275 10.8023
2602 3 16.2035 3.51124 8.86189
3101 2 14.3982 5.14476 8.75597
1102 1 16.0208 5.26514 10.4545
3090 3 1.70312 8.79787 6.95119
3577 2 8.95799 0.0731595 5.36824
603 2 3.65928 7.03255 10.618
3102 1 1.76659 8.72276 10.4717
1103 1 3.81642 8.7435 8.84394
2104 2 7.04025 8.49024 9.03339
1606 3 5.3254 10.5195 8.7075
1104 3 5.29931 8.75277 10.7209
2607 3 3.36573 10.7217 10.8085
1092 3 8.99158 8.87389 7.13929
3104 1 10.74 8.81106 9.12654
3103 3 8.88424 8.7346 10.6854
1586 3 10.7143 7.08156 7.10494
3608 3 12.2778 10.8477 9.1937
1105 3 12.6516 8.87029 10.6474
42 3 13.9327 8.64166 8.9487
3605 1 15.8796 7.24513 8.76602
608 3 16.0866 10.4078 8.99618
24 2 1.72174 12.5095 7.10063
605 2 1.71622 10.4317 8.85693
1125 1 8.85135 16.0691 14.2411
2107 1 3.46783 12.5101 8.9415
2611 2 5.18216 14.1355 8.80024
3107 3 7.26826 12.2917 8.81148
2608 3 8.8198 10.576 9.04084
2609 3 10.7038 10.5975 10.7218
45 1 10.4281 12.2932 9.00202
1109 3 14.3647 12.3341 9.03416
1624 1 8.94218 14.2966 16.093
794 1 17.8152 10.5971 10.8865
27 3 16.1792 12.3364 7.31259
609 1 14.2408 10.6727 10.8299
1110 2 15.8262 12.3051 10.8504
2650 1 14.3119 14.3286 17.8665
1609 3 1.58029 14.4033 8.75835
1094 3 1.53143 16.2525 7.12509
3723 3 8.84167 17.9173 8.61583
3110 1 3.38451 16.1293 8.89975
610 2 3.66747 14.0817 10.7649
3 3 0.0386705 5.32735 1.59119
1592 3 3.35361 14.45 7.12528
48 2 7.11863 15.9955 8.97995
1111 1 5.09539 15.953 10.3957
3611 2 8.92541 14.1489 9.04865
1112 2 10.4588 16.1478 8.6634
612 2 10.7059 14.257 10.7508
3348 2 17.8398 5.4433 8.92232
1293 2 17.7096 12.4666 9.03932
611 1 12.36 14.3281 8.99421
594 3 14.3419 14.0042 7.27608
2113 2 14.0876 15.9826 8.77787
1113 2 12.2786 15.9531 10.6734
3596 2 8.72255 0.0711172 8.90588
1612 1 15.9974 14.2262 9.23336
2595 1 0.035677 -0.2171 10.7615
1598 2 1.70689 3.37399 12.2555
2096 1 3.52743 1.77281 12.472
1124 3 1.68129 15.8397 14.4665
1096 3 5.32716 1.5848 10.3705
34 1 6.84102 1.78 12.4543
1115 2 8.79965 1.94784 14.1061
1599 3 8.78266 3.7381 12.2597
2624 1 3.53844 14.3165 14.4217
61 2 3.45635 15.9491 16.0331
1098 3 12.3343 1.63895 10.5676
2097 1 10.5699 1.99257 12.4537
3114 1 12.2674 1.75527 14.0174
35 3 14.5063 1.80502 12.2796
1116 3 16.1211 1.5884 14.4388
1601 1 16.1559 3.49008 12.6726
3724 2 8.73397 17.917 12.6631
2600 3 3.64041 3.41251 10.713
3115 1 1.55733 5.14047 14.0258
3123 1 5.45109 16.1414 14.2879
3600 2 5.26729 3.40799 12.4058
37 2 3.50019 5.21654 12.2867
1117 1 5.17463 5.40296 14.4076
3099 2 5.23643 5.28119 10.7325
1101 3 9.04144 5.38218 10.6003
2100 3 6.90439 5.26875 12.7068
3116 1 9.07999 5.45345 14.1607
38 1 10.7315 5.42924 12.4005
619 3 7.18455 7.04479 14.3843
3601 2 12.497 3.36396 12.3083
1118 1 12.6759 5.26793 14.1258
1604 1 12.7279 7.15961 12.6213
2620 2 10.892 6.97058 14.2626
601 3 14.369 3.57751 10.7728
2102 3 14.407 5.20198 12.3798
3117 3 15.9437 5.29157 14.2353
2619 2 3.43759 6.7336 14.0995
3603 2 1.58087 6.92956 12.3039
621 3 3.65618 10.5722 13.9451
1605 2 1.77643 10.643 12.379
2103 2 3.51386 8.49989 12.2929
1602 1 5.19917 7.07705 12.4849
41 2 7.19493 8.64148 12.5065
1120 1 8.84465 8.90486 14.3411
2604 3 7.00219 6.83616 10.9935
3604 3 9.11537 7.05175 12.4457
604 2 10.8061 7.11323 10.8331
607 1 7.14722 10.5483 10.8859
2105 1 11.0688 8.69149 12.6867
3119 2 12.4936 9.0538 14.5292
43 1 14.1218 9.05076 12.433
2606 2 14.4067 6.94204 10.6408
1121 3 16.0787 8.69319 14.3758
3105 3 16.0296 8.81252 10.7843
3606 1 15.9964 7.06041 12.4817
2623 3 14.2545 10.4346 14.1803
44 2 3.54376 12.5084 12.4998
1107 1 1.49147 12.3594 10.6956
3624 1 5.31627 14.1973 15.886
3120 1 1.68133 12.3906 13.9505
3106 3 5.37603 12.1354 10.5706
3607 1 5.19427 10.574 12.4048
1108 3 8.77071 12.3516 10.6831
1607 1 8.93069 10.5685 12.6701
2108 2 7.05055 12.4049 12.4616
2622 3 6.95856 10.7585 14.2988
3121 1 9.03227 12.3724 14.2506
46 2 10.714 12.5977 12.59
622 2 10.7251 10.809 14.313
1123 2 12.5615 12.1533 14.2315
3108 2 12.6194 12.4787 10.6468
3609 2 12.3533 10.6986 12.4699
625 3 14.1052 14.2341 14.0233
2109 2 14.2044 12.3747 12.5043
1608 2 16.1319 10.7721 12.7292
3122 1 16.0838 12.5257 14.3781
3613 1 16.0455 14.0115 12.2623
781 3 17.8351 14.3255 7.18087
3610 3 1.62084 14.4208 12.4998
3109 3 1.70797 16.1307 10.6878
1610 1 5.31857 14.2342 12.5539
624 3 7.20871 14.0411 14.2886
2111 3 3.67276 15.9885 12.6723
49 2 7.17256 15.8641 12.5022
2025 3 17.6411 12.2657 5.29382
2612 1 6.91631 14.0496 10.3269
3612 3 8.85415 14.0954 12.4505
3111 1 8.94789 16.0882 10.7558
2112 2 10.5382 15.9487 12.6582
1148 1 5.07169 16.0125 17.7258
1611 1 12.3328 14.1225 12.3169
2625 2 10.6837 14.2178 14.2625
2125 3 7.07724 15.967 16.1049
2613 2 14.177 14.2333 10.8962
50 2 14.0055 16.0952 12.3965
1126 2 16.166 16.2494 14.0467
3112 1 15.8594 16.0148 10.7116
1114 2 1.56678 1.64484 14.0835
1106 1 0.123754 12.3912 8.82519
616 3 3.2299 3.54997 14.1328
3113 3 5.46888 1.71532 14.2507
51 3 3.74804 1.75985 16.0815
2080 2 0.0510042 5.11678 5.16435
3080 1 9.08593 12.3556 -0.0704197
2115 3 7.19216 1.92354 16.0561
568 2 0.0218035 3.48728 3.34055
1144 3 8.63599 12.6052 17.904
3692 3 12.3259 17.7296 1.83701
617 2 10.8351 3.69591 13.9811
1617 2 12.4965 3.44127 15.9584
52 2 10.5516 1.73428 16.0072
3618 1 16.0008 3.34009 15.7951
2116 1 14.2538 1.9482 16.1991
2618 2 14.3822 3.44723 14.1873
2117 2 3.19476 5.31483 15.9124
3616 1 1.55594 3.41786 15.9432
1597 1 16.0558 0.0505178 8.70351
3578 3 10.538 -0.0511546 7.20317
618 1 -0.263875 7.10421 14.087
1616 1 5.05596 3.70998 16.1063
2617 3 7.05726 3.4202 14.2351
3619 1 5.15815 7.16972 16.0908
54 2 7.04361 5.19074 16.1515
60 3 14.3636 12.5205 15.7351
278 2 17.6695 15.8127 5.31277
3617 3 8.88479 3.68202 15.7401
595 1 3.41552 -0.0672778 10.4392
620 3 13.9573 7.11698 14.5469
2118 2 10.6435 5.15936 16.0487
3131 1 4.89274 5.39469 17.7304
2722 2 5.30215 17.5787 8.77074
55 1 14.0574 5.05992 16.0144
633 1 10.6308 17.808 3.6012
1119 1 1.6158 9.05425 14.0103
1618 1 1.70852 7.13288 15.9605
56 3 3.5815 8.80316 15.807
2011 1 17.948 16.1176 1.93226
3118 1 5.3747 8.68922 14.1628
596 2 12.6543 -0.00157603 8.64215
57 2 10.775 8.97986 15.8979
2120 2 7.25909 8.9267 15.8254
1619 1 8.96609 6.9763 16.1165
2088 2 -0.00743465 12.4569 5.37596
270 2 17.7272 9.01809 5.14967
3620 1 12.2008 6.8722 16.18
2121 2 14.3142 8.85635 16.3553
263 3 17.7614 1.82407 5.19047
3623 3 16.0729 10.8055 15.9775
1620 1 15.8718 7.15022 16.2274
1622 3 12.6991 10.7941 16.1571
3621 2 1.98324 10.9347 15.8368
2122 1 3.75365 12.1425 16.0303
1623 3 1.73707 13.9386 16.0508
1130 1 12.4975 1.95585 17.615
59 3 6.99601 12.4394 16.1042
1621 3 5.37768 10.438 16.0198
1122 2 5.2212 12.4681 14.1814
3098 3 -0.101414 5.25189 8.80819
2724 1 6.918 17.7243 10.6396
3622 3 8.99071 10.6627 15.994
28 2 -0.00945423 15.824 5.28895
615 2 14.4751 0.0086745 13.9328
3625 1 12.3953 14.2074 16.0516
2123 2 10.5649 12.4038 16.0477
2575 3 3.57605 7.1272 -0.321765
2574 1 0.0432821 7.18802 3.33423
2715 2 6.93055 17.6092 7.04748
2598 1 14.2916 -0.151498 10.4862
2064 2 0.0888588 1.76471 1.55486
2106 2 -0.227208 12.4894 12.4358
2069 3 0.0241012 8.65137 1.60551
2047 1 17.7234 16.0792 8.82951
2124 1 0.0308143 15.9071 16.2458
662 2 12.1101 17.8314 8.97416
1563 2 1.901 0.104231 1.47855
597 1 10.6119 -0.147615 10.7357
757 1 17.5872 3.52655 3.47479
3127 3 8.75864 2.00822 17.7255
1692 1 15.9702 17.7244 1.75091
2566 1 7.0647 -0.0838391 3.44495
3587 1 0.214636 10.6466 7.30812
502 3 3.40888 0.00722726 17.7135
589 2 14.4378 0.134229 7.06088
2698 3 14.2599 17.8662 3.60348
2634 1 10.6164 3.61615 17.8772
587 3 14.2165 14.3171 -0.18921
3139 3 16.0585 8.84805 18.0114
588 3 -0.0854081 0.0964145 7.09157
3720 1 1.85127 17.4856 12.5656
676 3 -0.0510271 17.6063 14.1669
3615 2 12.4613 0.13711 15.8404
504 3 10.5199 0.0677201 17.6191
1564 2 9.13477 -0.0734561 1.87711
3598 2 16.1043 0.0426553 12.4294
2630 2 13.9974 -0.0810083 17.7631
2829 1 17.5901 10.5464 0.225347
1132 1 1.61929 5.482 17.8706
2638 1 7.40195 7.20114 17.7513
876 1 17.9015 17.8461 -0.0366535
2644 1 10.7213 10.8634 17.7357
1134 2 8.73865 5.01179 17.6538
3145 1 1.7546 15.9996 17.8929
2583 3 14.2945 10.8048 0.036412
2755 2 7.10043 17.8292 17.9593
512 2 3.41842 7.2496 17.5391
2640 3 14.2391 7.00554 17.7386
1136 3 16.1524 5.07939 17.6952
508 1 6.98823 3.65135 17.6841
3082 2 16.2121 12.4213 0.254569
3147 2 8.98503 16.0794 17.8497
2632 2 3.27513 3.56519 17.7745
2585 2 3.6406 14.1374 -0.0469469
3070 2 8.90104 5.34543 0.0126745
3076 3 12.6197 8.85727 -0.00564493
575 2 7.37775 6.95287 0.0757302
1078 3 15.8582 8.87788 0.167703
3064 3 5.31179 1.80337 0.167283
1070 3 5.45286 5.3543 0.0450378
2587 2 10.7046 14.1379 -0.0557829
571 3 10.579 3.64532 0.0988422
2371 3 17.6942 12.0932 34.1587
1127 2 1.58669 1.84667 21.4
1628 2 1.82983 3.79718 19.6173
2127 1 3.31143 1.7696 19.5216
3126 3 5.0973 1.73452 21.2734
3629 1 5.12798 3.46489 19.4686
3141 3 5.23798 12.4838 17.7505
64 3 7.00333 1.76887 19.4409
323 3 17.8466 15.6954 19.4229
2128 3 10.5317 1.89786 19.6118
846 3 17.5643 10.5379 24.7343
2336 1 17.787 8.86218 23.1477
514 1 10.5127 7.02121 17.797
3128 1 12.3979 1.89903 21.4321
3630 3 12.6411 3.34712 19.5483
65 1 14.2984 1.81856 19.4973
2646 2 -0.0963613 14.1578 17.7107
1630 1 15.933 3.42812 19.5997
522 3 3.39837 14.0879 17.8819
3688 2 16.1561 14.135 34.045
507 3 3.55201 3.46925 21.0811
66 2 3.43356 5.58466 19.3537
2637 2 3.48773 6.93171 21.2899
2633 3 7.01762 3.66427 21.3091
1133 1 5.47396 5.40599 21.2728
2130 2 7.1713 5.26194 19.1912
1629 1 8.65569 3.49928 19.7302
3632 1 9.06746 7.11876 19.4392
976 2 17.7135 17.7274 28.5039
67 3 10.6053 5.3455 19.4061
2681 3 0.215164 7.0462 32.0665
2131 1 14.3385 5.27815 19.5885
3134 2 15.7892 5.37225 21.116
825 1 17.7826 7.1152 21.424
3633 1 16.0278 7.02786 19.5914
3143 2 12.6623 12.4527 17.7956
2132 3 3.44211 8.53319 19.6476
3631 1 1.61697 7.09018 19.4427
1631 1 5.4678 6.8687 19.5458
3136 3 5.55754 8.592 21.0724
69 1 7.2585 8.62796 19.4978
1139 2 9.06086 8.83717 21.2247
2133 3 10.7299 8.9649 19.5493
2643 1 7.48586 10.6051 21.4736
70 3 14.1796 9.09366 19.4404
1632 1 12.43 7.09918 19.5675
2639 2 10.818 7.08111 21.2523
3138 3 12.5223 8.87997 21.4147
515 3 14.253 7.23155 21.4692
1141 2 15.8171 8.97898 21.4137
3129 2 16.0513 1.52744 17.7945
3187 1 15.9564 15.8735 32.0156
71 1 3.67444 12.2339 19.5634
1140 3 12.3838 8.72845 17.6163
1633 3 1.74286 10.3331 19.6556
3636 1 1.89546 14.2553 19.7498
1636 1 5.37231 14.1475 19.8046
3634 2 5.64593 10.5997 19.7597
2135 3 7.06447 12.5575 19.6162
2803 1 7.12459 17.9596 32.1011
1634 3 9.07516 10.9288 19.7486
3637 3 8.88104 14.2421 19.4511
72 3 10.723 12.4375 19.4398
1145 1 12.395 12.2267 21.601
1637 1 12.5686 14.0686 19.5055
2136 2 14.4047 12.3594 19.4204
3635 3 12.3951 10.5991 19.4152
1635 2 16.1024 10.8564 19.534
3144 1 15.7699 12.7005 21.3994
3638 1 16.0391 14.2498 19.4942
2642 3 3.71907 10.3836 17.9233
2647 3 3.55113 14.2458 21.4354
1627 3 12.5368 0.0451024 19.6344
1517 1 9.09289 17.6406 22.973
1147 1 1.70387 16.043 21.4575
861 3 18.0005 14.1642 28.4217
523 3 7.08056 14.2837 21.56
2137 2 3.52414 15.864 19.7003
3146 1 5.14286 16.1079 21.2718
74 1 6.93748 16.2001 19.4603
63 1 0.0450861 1.74778 19.5556
1149 1 8.84985 15.9597 21.2733
2138 3 10.668 15.9782 19.64
503 1 7.26966 -0.194259 21.1968
1142 1 1.86085 12.2294 18.0519
525 1 14.2013 14.0438 21.2113
75 3 14.3046 16.1162 19.5236
3148 3 12.6242 15.8212 21.3507
358 3 17.8457 12.5638 30.3228
313 1 18.0088 1.59933 19.7282
3137 2 8.92537 9.25585 17.7653
1138 3 5.5768 8.81268 17.9134
77 1 3.54305 1.70062 23.1485
331 2 17.6344 5.38237 22.9642
3644 2 1.72729 3.65572 23.203
2654 3 3.61102 3.52891 24.9665
3150 3 1.71489 1.70717 24.9291
1644 3 5.18382 3.51403 23.0644
2169 3 -0.111672 8.90896 30.3705
2141 3 7.07545 1.74679 23.0271
1152 2 5.24696 1.68526 25.0376
529 1 6.91071 3.4279 25.1995
2805 2 14.5534 17.8456 32.1891
1129 3 8.85314 1.73944 21.3857
3151 3 8.70985 1.6855 24.833
2635 2 14.1198 3.54159 21.4678
79 3 10.6304 1.76068 23.1761
1131 2 16.263 1.72122 21.5107
2143 3 14.2943 1.66674 22.9454
2144 3 0.0536737 5.18134 26.6345
3648 1 15.9526 3.61508 23.0959
3152 2 15.9849 2.0031 24.8202
3130 1 1.84135 5.49386 21.317
2145 2 3.48798 5.27389 23.0337
1648 1 1.46471 6.90298 23.0692
1154 2 1.86762 5.30753 24.9686
856 3 17.967 7.2395 28.4588
3650 3 5.20249 7.23002 23.1641
3153 1 5.24849 5.08212 25.3317
2657 1 7.18438 7.17269 24.7524
3132 3 9.1682 5.26448 21.1955
3646 1 8.74455 3.48462 22.9831
83 3 7.21718 5.16604 23.1963
1650 3 8.99393 7.07196 22.9922
1155 3 8.68594 5.14996 25.1669
532 3 10.5587 7.18994 24.8817
509 3 10.5352 3.58387 21.4481
1135 3 12.547 5.45962 21.5239
1646 2 12.5666 3.4117 23.314
2147 1 10.4952 5.30478 23.1406
2655 3 10.8949 3.41398 24.9409
3154 2 12.3353 5.35669 24.7841
2658 3 14.1693 7.18134 24.8723
85 1 14.4044 5.23955 22.9631
2541 1 18.0095 3.35022 28.4068
1687 3 12.5054 14.2454 33.7055
1137 1 1.72234 8.9444 21.5929
3155 3 1.65058 8.56667 24.717
87 2 3.50613 8.69235 23.167
2151 3 7.16292 8.98271 22.997
1654 1 5.33396 10.433 22.9053
513 1 7.47785 7.07026 21.2768
519 3 10.5399 10.6725 21.5106
89 1 10.7826 8.77982 23.2184
3656 2 8.86278 10.4691 23.1978
3156 3 8.95866 9.02492 25.1816
2153 1 14.2992 8.93536 23.1797
3652 3 12.3672 7.12449 23.2462
1158 3 12.455 8.89565 24.9242
535 2 14.2024 10.7625 25.0196
86 2 0.0368691 8.84199 26.8009
1652 3 15.9841 7.16327 23.0748
125 1 14.1771 16.112 33.7829
3157 2 15.8596 8.9191 24.7706
1516 3 5.37962 17.5845 26.8384
3140 1 1.69555 12.331 21.1414
1658 3 1.92348 14.0031 23.1533
3654 2 1.63202 10.8112 23.2538
1640 2 8.94804 -0.239701 23.2852
3687 3 8.96271 14.2757 33.8394
517 2 3.81819 10.2761 21.3434
1143 3 5.30284 12.3596 21.4171
2155 3 3.43823 12.0805 23.3944
93 3 7.39818 12.5186 23.2843
3142 1 8.75774 12.5918 21.4306
2157 3 10.5609 12.6119 23.4677
2645 3 14.1822 10.7445 21.2765
95 2 14.3034 12.3206 23.125
1656 3 12.4481 10.6561 23.1346
3662 2 12.5541 14.1152 23.1062
3159 1 12.647 12.3992 24.7938
1662 2 16.1257 14.0039 23.2054
3658 2 15.9465 10.7456 23.1714
562 1 10.6103 14.258 32.0907
2631 2 -0.0617458 3.5851 21.1726
97 3 3.34179 16.1823 23.1917
3135 1 1.82382 8.97558 17.6232
3160 3 1.66658 15.9735 24.9272
1638 2 1.56025 -0.0961359 23.2582
2778 3 6.89254 17.7029 24.8606
3660 1 5.21434 14.081 23.1426
1162 3 5.00708 15.9596 25.0728
2356 1 17.7083 9.02743 30.5123
2649 1 10.7795 14.2197 21.3316
1660 3 8.85781 14.4917 23.2003
2161 2 6.66458 16.3155 23.049
2662 3 6.93414 14.4629 24.8573
2665 3 10.7208 -0.0779957 28.5107
99 2 10.8583 15.9569 23.1167
2163 1 13.9679 15.9336 23.1694
537 1 10.7636 14.1731 25.1197
1151 3 16.2227 15.9627 21.3508
3162 2 16.0182 16.0752 24.8491
1643 3 1.76439 3.23618 26.7662
2140 1 3.70636 1.56626 26.7601
3773 1 15.9037 17.6167 26.8008
2758 3 10.9427 17.6459 21.3507
3163 2 5.28475 1.52416 28.508
3645 2 4.99679 3.4779 26.8809
78 2 7.25962 1.48696 26.7424
1165 1 8.76571 1.69301 28.6983
542 3 10.7477 3.44119 28.3771
2142 3 10.9382 1.59208 26.4599
1153 1 12.4292 1.45072 24.6988
3164 1 12.5746 1.6869 28.1152
3647 2 12.4928 3.72277 26.6542
80 3 14.5089 1.82196 26.6371
2668 3 14.3119 3.54524 28.311
1166 1 16.1986 1.70157 28.381
1647 3 16.1365 3.54552 26.6086
3627 2 8.84861 0.0782712 19.5187
82 3 3.58839 5.29749 26.7293
3165 1 1.67813 5.10427 28.3767
531 1 3.52952 6.97585 24.9286
3649 2 1.80972 7.03476 26.6433
2667 1 7.04151 3.15427 28.4955
1167 1 5.46555 5.31154 28.7054
2146 3 7.09958 5.27847 27.041
1649 2 5.28885 7.24345 26.6132
1645 1 8.96609 3.33785 26.8515
3166 2 9.05924 5.21633 28.7516
84 2 10.5449 5.22748 26.7699
3651 1 8.91544 7.16488 26.7724
530 3 14.1949 3.52659 24.8138
1168 3 12.5364 5.32485 28.4031
3186 2 9.07085 15.9581 32.2351
2148 1 14.1671 5.32474 26.5229
1156 3 15.9976 5.35255 24.8635
3167 3 15.9083 5.31984 28.3566
2188 1 10.9841 16.0834 33.7912
2150 2 3.40983 8.8898 27.009
2669 2 3.59914 7.12331 28.536
1157 1 5.53103 8.97566 24.9667
3168 2 5.31693 9.0748 28.4197
88 3 7.1823 8.90462 26.727
2659 1 3.56189 10.2248 24.9366
3655 2 5.35462 10.8768 26.6517
534 1 7.3144 10.6894 25.0025
1170 2 9.16857 8.93639 28.7137
2152 2 10.6863 8.78743 26.6758
547 2 10.8623 10.6353 28.2712
2660 3 10.8352 10.7223 25.1303
90 3 14.2914 8.81981 26.6109
1651 1 12.6045 7.15199 26.5063
3657 3 12.5078 10.942 26.7913
2666 3 -0.258571 3.67494 28.5857
3678 3 15.958 -0.158789 33.7033
545 2 14.2452 7.29581 28.5691
1171 3 15.9953 8.6555 28.433
3653 1 15.9565 6.91932 26.564
1657 3 16.0049 10.6401 26.8499
1159 2 1.68595 12.5039 24.9602
1653 2 1.61982 10.6693 26.6586
2556 1 17.609 7.10714 32.1428
2674 2 3.58885 14.096 28.6101
3659 2 1.62734 14.0992 26.6272
92 1 3.52486 12.5741 26.4765
3158 3 5.33981 12.5105 24.927
2156 1 7.13872 12.5473 26.7233
1160 3 8.92087 12.4688 25.1196
1655 1 8.70403 11.0466 27.0431
550 3 14.3849 14.1891 28.4558
94 2 10.5903 12.5875 26.7367
2158 3 14.3817 12.6176 27.0458
2675 1 10.5991 14.3557 28.4097
103 3 0.0806234 5.30429 30.2831
1161 1 16.1152 12.37 24.8938
3172 1 16.0889 12.5391 28.5265
3664 1 5.32567 -0.326811 30.1873
1174 1 1.76098 15.9661 28.5323
2160 3 3.48258 15.7982 26.9528
3074 3 5.32803 8.53508 35.682
536 1 3.55323 14.2497 24.8354
1659 3 5.32386 14.1602 26.7827
3173 3 5.43738 15.9096 28.8152
2686 3 -0.138587 14.2732 31.9943
2676 2 0.142582 -0.00707534 31.7468
3661 2 8.82369 14.2818 26.6175
98 1 7.07688 16.0616 26.7526
1175 3 8.83176 16.0056 28.4278
3161 2 9.11733 16.0506 24.7319
1661 2 12.5396 13.9081 26.6742
1163 2 12.3514 16.0147 25.0545
2162 2 10.683 15.9875 26.6125
3174 3 12.3794 15.7368 28.4126
347 1 17.884 15.9488 26.6764
2663 2 14.0524 14.1634 24.8322
3663 2 16.0454 14.2942 26.538
100 1 14.0246 15.986 26.6661
1176 3 16.1108 15.9268 28.4423
541 3 3.49901 3.52492 28.5513
1164 2 1.83311 1.74196 28.6557
101 1 3.61195 1.6537 30.2205
3641 3 9.05389 -0.229989 26.5322
3765 2 1.74728 17.7132 26.8049
3175 2 1.8963 2.08838 32.0831
520 1 14.3895 10.8473 17.6725
2165 2 7.17516 1.66531 30.3581
3640 2 5.35779 -0.00796728 22.9515
3667 2 8.96133 3.6242 30.2572
102 3 10.5365 1.74162 30.2086
2166 3 14.2571 1.64039 30.0205
866 2 17.9783 3.39531 31.9532
2687 1 6.96213 14.2543 32.0268
761 1 17.5896 7.16145 35.5437
3668 1 16.1706 3.67765 30.1592
3177 1 16.0073 1.85176 31.7343
3666 3 1.90413 3.54984 30.3094
2167 3 3.8111 5.43497 30.2942
556 3 3.61666 7.19237 32.1048
544 3 7.31547 7.08593 28.7291
1666 3 5.33624 3.42926 30.1597
104 1 6.99866 5.18055 30.3053
2168 1 10.8609 5.4137 30.3889
2670 2 10.7094 7.00729 28.4168
1667 3 12.4026 3.35711 30.2695
105 1 14.2659 5.21619 30.1651
3179 3 12.5478 5.32751 32.3137
557 1 10.7829 7.036 32.1646
2683 3 14.329 6.95459 31.9116
2187 1 3.54333 15.9276 33.7321
1670 1 16.0383 7.00547 30.0546
1181 1 16.0775 5.27094 31.919
1169 1 1.72992 8.862 28.5124
1187 2 5.27226 15.9797 32.1131
106 1 3.62523 8.83656 30.2823
1668 3 1.77479 6.95993 30.1948
3671 2 1.9171 10.5627 30.3578
3180 3 1.75641 8.79823 31.9749
2684 2 3.40987 10.582 32.286
559 2 7.0607 10.5566 32.1231
546 2 3.2291 10.7279 28.4936
3669 3 5.35328 7.3774 30.3736
1671 3 5.21578 10.5687 30.3281
2682 2 7.14434 7.16623 32.1669
2672 2 7.09737 10.6752 28.6024
1669 2 9.11572 7.24578 30.4673
2170 1 7.18022 8.98959 30.3384
107 1 10.8152 8.97094 30.1371
3169 2 12.4211 8.94902 28.5596
2673 3 14.223 10.4954 28.6363
560 3 14.1958 10.5445 31.9494
2171 1 14.3634 8.74363 30.4563
3670 1 12.4544 7.35307 30.2106
1672 2 12.1945 10.9231 30.1159
1183 3 12.4554 8.9961 32.2271
124 1 7.07961 15.9075 33.6414
1502 1 5.24765 17.8236 19.6068
3182 2 15.786 8.6992 32.2361
1184 2 1.73215 12.6587 31.9699
3170 1 1.68768 12.5137 28.294
2172 1 3.57801 12.2451 30.1565
3183 3 5.23197 12.2472 32.0958
1172 1 5.65233 12.4065 28.5792
3674 3 5.35225 14.0963 30.3176
109 1 7.12295 12.2733 30.3646
549 3 7.14475 14.5028 28.5727
3171 2 8.66362 12.6681 28.5341
1674 3 8.84596 14.2776 30.1913
3672 2 9.05788 10.6536 30.4746
2173 3 10.5727 12.6513 30.2292
1185 3 8.96568 12.5106 32.1472
3184 1 12.3224 12.3021 32.0245
1173 1 12.4569 12.8075 28.8462
110 3 14.4772 12.396 30.2777
3675 2 12.283 14.2503 30.4656
1675 3 16.0894 14.0666 30.3079
3673 3 16.1917 10.6095 30.3439
3805 2 16.0018 17.8806 34.0047
363 3 17.9115 1.70848 33.6075
1673 1 1.77373 14.3938 30.4563
111 3 3.59244 16.154 30.4121
742 1 10.7197 17.749 32.1217
561 1 3.52821 14.1335 31.8574
2688 2 14.3916 14.2432 32.207
3685 3 12.5045 10.5244 33.8542
2175 1 7.20644 16.1564 30.4779
2342 2 17.711 12.2159 26.8648
1188 2 12.4042 15.9508 32.0057
112 2 10.732 16.0355 30.3296
2176 3 14.3425 15.8853 30.2362
122 3 10.7234 12.2958 33.905
91 1 -0.0739199 12.4525 23.2994
1678 3 2.0953 3.34167 33.8034
3185 2 1.63372 15.9692 32.2809
2366 2 17.7036 5.04004 33.7197
2177 1 3.96679 1.63738 34.0964
1177 2 5.38093 1.70515 32.1059
368 3 17.7358 9.02031 33.6884
114 1 7.07404 1.6064 33.6351
1679 1 8.95047 3.65359 33.9551
3176 1 8.77697 1.56736 32.0751
2680 2 10.5462 3.50902 31.8737
2517 2 17.9056 10.6086 21.2847
2573 3 13.9527 3.53115 35.6695
1178 3 12.4601 1.42898 31.9595
2178 1 10.6567 1.39229 33.773
68 3 -0.143069 8.83748 19.5722
730 3 14.1465 17.7331 28.3179
2186 3 14.2158 12.5001 33.7505
115 3 14.1903 1.80167 33.6679
1680 2 16.0318 3.30187 33.6948
3639 3 1.55152 0.073259 26.6757
551 2 3.6013 -0.0624502 32.0903
819 2 17.6544 3.29782 17.5859
2316 3 17.683 5.30528 19.5262
2679 2 3.66972 3.7139 32.1283
116 3 3.58032 5.29837 33.9448
1179 1 1.94621 5.18731 31.9643
3770 2 12.6108 17.7479 23.0917
3679 3 5.3064 3.48677 33.8672
554 3 6.87471 3.48988 32.1122
3178 2 5.33999 5.46422 32.2181
2180 2 7.05531 5.40367 33.8394
1681 1 5.39903 7.15417 33.7885
1180 2 8.82209 5.31797 31.8667
117 2 10.4148 5.41885 33.7898
3682 1 8.76877 7.00735 33.8947
1677 2 12.6982 -0.0119426 33.5035
1682 3 12.289 7.10496 33.9351
555 3 14.245 3.46895 31.902
3680 1 12.3983 3.48073 33.8755
2181 3 14.37 5.14317 33.7646
113 1 0.10571 1.63823 33.6085
2780 3 14.3186 17.6971 24.9694
3683 3 15.818 7.02309 33.8623
1146 1 15.9688 12.6129 17.5875
1186 1 16.1258 12.6915 32.3227
1683 1 1.43556 10.8453 33.49
2790 3 3.6927 17.6636 28.5617
2182 2 3.36399 9.03323 33.9106
3681 1 1.64828 7.17691 33.8355
3684 1 5.16729 10.4962 34.2444
1182 3 5.30562 9.00118 32.2003
2629 2 10.584 -0.0939279 21.335
715 1 3.55738 17.8723 24.8742
2685 3 10.7818 10.7262 32.0086
1684 3 8.77739 10.5721 33.9294
119 3 7.24857 8.79607 33.9241
3181 2 9.04991 8.83167 32.11
2183 1 10.7415 9.00297 34.011
120 1 14.3704 8.83414 33.9736
1665 3 16.0161 -0.110114 30.1726
123 1 -0.133208 15.819 33.8848
1685 3 15.8195 10.6465 33.959
3751 1 1.66416 17.8222 19.4818
3686 1 1.56811 14.1484 33.7321
121 1 3.31826 12.6435 33.96
81 2 -0.156334 5.26401 23.2461
2185 3 7.24388 12.3724 33.9464
1686 2 5.31824 14.3019 34.0206
3792 1 12.4583 17.6538 30.317
1540 1 8.81783 17.7765 30.3079
3072 1 15.8982 5.05058 35.5204
526 3 3.54741 0.0551147 24.769