ITEM: TIMESTEP
5000
ITEM: NUMBER OF ATOMS
4000
ITEM: BOX BOUNDS pp pp pp
1.5324802485665145e-01 3.5580811975143433e+01
1.5324802485665145e-01 3.5580811975143433e+01
1.5324802485665145e-01 3.5580811975143433e+01
ITEM: ATOMS id type x y z
1 1 0.0360907 1.84046 1.95283
1563 3 0.0124494 0.143841 0.265752
2064 1 1.86125 1.89166 0.0375219
3561 1 1.92797 0.114623 1.83719
564 1 3.69308 1.92838 1.98159
565 2 7.11769 1.85404 1.94069
1565 2 7.20292 0.0892855 0.237402
2065 1 3.66941 0.189333 0.146079
3061 2 5.40244 1.88381 0.114852
3562 1 5.23188 0.17361 1.77693
566 2 10.6256 1.97126 1.88336
1070 1 10.934 0.202148 0.243195
3063 3 8.97049 0.284768 2.02467
3062 3 9.02219 1.81203 0.090882
567 1 14.3832 2.00442 1.89105
2566 2 14.329 0.219586 0.252919
3064 3 12.4953 1.93279 0.276081
3563 3 12.5469 0.225513 2.00538
2 3 17.8385 0.175999 0.167611
3 3 16.1284 0.148344 1.9994
3066 1 17.929 1.94808 2.05126
3065 3 16.1583 1.91495 0.194826
4 2 1.91023 5.34125 0.149559
5 2 1.90194 3.57123 1.74846
6 1 2.067 7.25289 1.92947
1071 3 0.102328 5.3827 1.84034
3067 1 -0.0327854 3.71346 -0.00398947
3565 1 0.02992 7.27492 0.0928174
7 2 5.43359 5.39778 -0.0471165
8 3 3.6734 7.08985 0.0711441
1072 2 7.2265 5.51276 1.78166
1075 1 5.34729 7.19829 1.92393
1074 2 3.74995 5.36695 1.82888
1567 2 7.16945 7.29692 0.198628
2570 2 7.28027 3.50038 0.189544
2569 2 3.7524 3.62872 0.0721867
3569 2 5.56157 3.59911 2.01766
9 2 8.90715 5.38421 0.24521
10 3 8.89654 3.65161 1.99098
1077 2 10.6265 7.23563 0.185166
1076 2 10.7993 5.27367 1.86048
1568 2 8.97388 7.19991 1.91258
3068 1 10.7279 3.62835 0.167104
11 3 12.5336 5.45368 0.145873
12 2 14.2667 3.79858 0.23373
570 1 12.6458 3.64758 2.16021
1571 2 14.2625 7.1946 0.0757321
1570 1 14.2943 5.38385 1.93216
1569 2 12.5109 7.22513 1.93574
572 2 16.1961 3.74343 1.86401
1081 1 15.9671 7.15017 2.03398
1079 3 17.9073 5.41213 1.79317
1078 1 16.1587 5.42891 0.0693817
1573 2 17.9154 3.67543 0.0934326
2070 2 17.7968 7.32771 0.112177
575 2 1.94391 10.7152 1.95784
1082 2 1.91635 8.94299 0.191585
1574 3 0.150688 8.94542 2.01238
3070 2 0.302734 10.8351 0.0406705
576 1 3.7913 10.904 0.095411
1085 3 5.55216 9.13647 0.0683619
1083 1 5.36255 10.7972 1.98532
1577 1 7.26113 10.8836 0.163323
1576 3 7.14081 9.02091 1.9832
1575 2 3.73785 8.9845 1.82575
14 2 10.7122 10.7306 0.0469024
1087 1 9.0776 10.7713 1.90509
1086 1 8.93025 8.88635 0.280472
2071 2 10.7602 8.97577 1.87526
580 1 12.5362 10.7387 2.02053
1088 3 14.3322 10.7963 0.200599
2073 3 12.4688 8.92557 0.113044
2074 3 14.2598 8.83157 1.88288
15 1 17.7667 8.96744 1.90302
1581 1 16.0708 10.759 1.85546
2076 1 17.8503 10.9104 0.300356
2075 3 16.0312 8.99443 0.251547
2079 3 2.03137 12.664 0.240187
2078 3 1.72771 14.3918 2.02653
2077 1 0.177154 12.3837 1.89759
2572 3 0.216045 14.355 0.0835109
2082 2 5.53839 14.3382 1.96543
2081 2 3.68199 12.6668 1.98974
2080 3 5.64791 12.567 0.201018
2576 2 7.27925 14.4275 0.316274
2575 2 7.38783 12.5074 1.89476
3071 1 3.74765 14.3196 0.19642
1583 3 9.03374 14.4292 1.87522
2084 2 10.7821 14.5118 0.181498
2579 3 10.7992 12.6001 1.91924
3073 3 8.99255 12.6875 0.136987
2085 3 12.6556 14.3749 1.9034
2580 3 14.3942 12.5575 1.99924
3074 1 12.4785 12.6341 0.148002
3574 1 14.3811 14.3927 0.180269
581 3 17.8161 12.6054 1.95339
1089 1 17.8133 14.2675 0.0654095
2583 3 15.9034 14.3342 2.04821
3075 1 15.9176 12.8414 0.247665
16 1 0.161214 17.8752 0.180891
2086 2 2.01214 17.8238 2.02503
2584 2 0.249876 16.2071 1.7769
3076 2 2.10068 16.1957 0.158787
17 3 5.40076 16.0085 0.0744254
1090 2 3.76509 17.7018 0.0536296
2585 1 7.18156 17.8298 0.195415
3079 2 5.61702 17.8649 1.85895
3078 3 7.31911 16.1845 1.93089
3077 2 3.76784 16.0685 2.0499
18 3 8.99819 16.0324 0.151537
1585 1 10.8057 18.0487 0.0890873
3080 1 10.9684 16.1309 2.00151
3578 3 8.919 17.9973 2.034
19 3 12.4932 16.3107 0.135204
2088 3 14.3367 18.101 0.26875
3081 3 14.3832 16.2158 1.79524
3581 1 12.6238 17.9515 1.94925
20 3 16.1005 16.1451 -0.000965285
1586 1 17.7888 15.8908 2.0053
3083 1 16.1413 17.7567 1.90509
3082 1 17.7748 17.8277 0.119552
584 2 1.81402 1.84071 7.37651
1564 3 0.20524 0.0635242 3.6136
2588 2 1.84744 0.234487 5.39618
2563 3 1.83895 1.79309 3.54123
3084 2 0.139494 0.198435 7.18494
3583 3 0.18783 1.97563 5.56785
22 2 5.39867 1.85098 7.11965
1069 1 3.78337 0.00370455 3.57459
1566 2 7.27787 0.111088 3.72127
2089 3 5.47848 0.0976535 5.48242
2590 1 3.51524 0.136009 7.16229
2564 1 5.55152 1.75576 3.67178
3085 1 7.23929 0.198154 7.3106
3585 3 3.63311 1.9445 5.36818
3584 2 7.13319 1.94237 5.49969
586 1 9.03505 1.95316 7.26875
2066 1 10.728 0.207358 3.7692
2593 2 9.0024 0.155311 5.4353
2565 2 9.08003 1.90357 3.87759
3086 2 10.8241 0.224666 7.30573
3586 3 10.8002 1.87065 5.4033
23 2 12.5501 1.88827 7.11405
24 2 14.3749 0.187008 7.28357
25 2 14.3326 1.81694 5.5147
2568 3 14.248 0.0314285 3.57106
2567 1 12.6163 1.93314 3.79524
3087 3 12.5607 0.079125 5.56891
568 3 17.9212 0.166939 3.71502
588 3 16.1288 1.92179 7.27869
1587 1 18.1313 0.134701 7.25387
3088 3 16.1546 0.212704 5.41361
3588 3 17.9585 1.84357 5.50477
3564 3 16.0836 2.06293 3.7134
27 2 1.98156 5.45826 7.23803
28 2 1.91256 7.2173 5.43144
589 3 0.31164 5.35332 5.5
2067 3 0.0971518 3.67339 3.64067
3090 1 1.90545 3.73279 5.46276
3590 3 0.25248 7.2311 7.11264
3589 3 0.080636 3.67323 7.29922
3567 1 0.175747 7.27201 3.65031
3566 2 1.8632 5.47748 3.56487
29 3 3.73997 3.66729 7.15825
593 2 3.66222 7.26768 7.21881
592 2 7.28069 5.38468 5.52872
591 2 7.34586 7.07809 7.26947
590 3 3.74815 5.47065 5.43441
1095 1 5.34768 5.58067 7.31404
1094 1 5.47383 7.11985 5.42878
1073 2 3.75487 7.19294 3.74115
2068 3 7.24341 7.16745 3.67824
2069 3 3.68198 3.64901 3.57235
3593 1 5.42716 3.76193 5.55948
3592 1 7.04804 3.72461 7.21574
3570 2 5.47434 5.47895 3.58247
3568 3 7.18532 3.70093 3.74237
31 1 9.07197 3.66189 5.44527
569 3 10.879 7.27948 3.61211
594 1 10.8279 5.51982 5.52403
1097 3 9.0372 5.41039 7.248
1590 3 9.03401 7.19896 5.3452
1589 1 10.8485 7.33301 7.16706
3594 3 10.8711 3.63363 7.2078
3572 1 10.8064 3.66753 3.74487
3571 1 8.95181 5.49592 3.73444
33 1 12.6385 3.63167 5.37424
35 1 14.3344 3.64259 7.40254
571 3 12.5169 5.41233 3.82481
595 2 14.355 7.25326 7.35756
1100 1 14.3633 5.38048 5.57262
1099 3 12.6803 5.45588 7.31912
1592 3 12.551 7.15829 5.45507
1572 2 14.3836 7.25698 3.66123
3069 2 14.3623 3.69167 3.67843
573 3 16.1402 5.40669 3.64998
1080 3 17.9195 3.72032 3.73409
1595 3 16.1669 7.21187 5.50213
1594 2 16.1032 5.48503 7.22642
2094 2 17.8068 7.14134 7.23084
2092 3 17.8331 3.65313 7.21974
2571 3 17.862 7.10105 3.75522
3092 2 17.9053 5.46703 5.5584
3595 2 15.9121 3.63069 5.54347
13 1 0.213047 10.7865 3.63894
597 3 0.212054 10.8129 7.29777
596 3 1.946 10.8138 5.49894
574 3 2.0294 8.99181 3.62339
1102 3 1.97748 9.04373 7.25411
1101 1 0.268145 9.00274 5.35379
38 1 3.79531 10.7075 7.2921
578 3 3.7032 10.8112 3.64208
577 3 5.32259 9.03262 3.80468
1106 2 7.20956 10.8088 7.23705
1104 3 5.474 10.7481 5.40783
1103 1 3.6443 9.01581 5.49502
1084 3 7.23991 10.7512 3.74921
1597 2 7.29402 8.79294 5.56956
1596 3 5.57071 8.87936 7.27887
39 2 10.7962 10.7074 7.09356
599 1 8.90277 10.6546 5.46303
579 3 10.8299 10.8236 3.68519
1107 2 9.04067 8.9449 7.24641
1578 3 9.11852 9.10896 3.60516
2097 1 10.7801 8.93106 5.41859
1108 3 12.6158 10.6295 5.42661
1598 2 12.5614 8.89646 7.21497
1579 2 12.6032 8.9987 3.64814
2072 1 14.4887 10.6749 3.72981
2099 3 14.3173 10.8428 7.20242
2098 1 14.3783 8.9765 5.43021
1599 1 16.1386 9.06466 7.23796
1580 1 16.0321 8.85894 3.77404
2100 3 16.0984 10.927 5.53335
3093 3 17.8485 11.0597 7.43268
3597 2 17.8466 9.02456 5.50908
3573 1 17.7651 10.8382 3.76478
1110 3 0.235711 14.2001 7.18153
1582 3 1.78013 12.5109 3.71489
2103 3 2.00554 12.3786 7.19816
2102 3 1.86961 14.3714 5.54258
2101 2 0.146957 12.6595 5.39511
2573 3 0.00849202 14.3508 3.74523
1112 1 7.29886 14.3076 7.2457
1600 3 5.40829 12.6297 7.17721
2104 1 5.31812 14.3242 5.44899
2083 2 3.65264 14.4182 3.74559
2601 3 7.41246 12.7093 5.40097
2600 2 3.66951 12.5322 5.36956
2599 3 3.64213 14.2761 7.17358
2577 1 7.19919 14.3689 3.67915
2574 2 5.54712 12.5738 3.69505
2604 1 9.06921 14.3473 5.29712
2603 3 10.7936 14.35 7.26009
2602 2 10.6398 12.6472 5.45481
2578 3 8.95635 12.5603 3.66393
3097 1 9.02926 12.4717 7.24239
3072 2 10.8057 14.4328 3.60994
602 3 14.1957 14.2834 7.29155
1603 3 12.4479 12.6213 6.98222
2605 3 14.414 12.6203 5.44332
2581 1 12.5093 12.5492 3.69519
3098 3 12.4551 14.44 5.37131
3575 3 14.2769 14.3769 3.6926
1114 3 17.8435 12.6826 5.56644
1584 2 17.7894 14.2952 3.69404
2582 2 16.078 12.6053 3.65209
3100 1 16.089 14.3141 5.48563
3099 1 16.0678 12.6035 7.41565
3599 3 17.8553 14.3626 7.37343
582 2 0.341476 17.8527 3.63585
1605 1 1.96089 18.0171 5.43018
1604 2 2.00804 16.1228 7.29956
3104 3 0.311363 16.1306 5.50822
3103 3 0.172862 17.8906 7.21149
3576 2 1.88675 16.0721 3.65598
2087 3 3.78188 17.8442 3.8862
2607 1 5.52588 18.0293 5.56544
2586 2 7.09535 17.9504 3.7722
3107 3 7.26638 17.9703 7.21859
3106 3 5.443 16.09 7.14522
3105 3 3.76784 17.9346 7.38814
3602 3 3.72323 16.2024 5.55765
3601 2 7.40828 16.0021 5.53324
3577 3 5.56665 16.0935 3.79503
1091 3 10.9065 17.9594 3.70419
2107 1 9.00093 16.2472 7.25875
2608 3 8.87726 17.9462 5.42827
3109 3 10.7606 17.9705 7.15336
3603 1 10.815 16.1568 5.40993
3579 3 9.03057 16.1587 3.63754
41 1 14.2917 16.1112 5.54103
2610 1 12.55 17.981 5.43608
2609 2 14.2335 17.7524 7.234
2587 3 14.393 17.9781 3.74977
3604 2 12.3979 16.1482 7.2497
3580 2 12.6524 16.2637 3.71936
583 3 16.1449 16.1437 3.82191
1606 2 17.9204 17.9693 7.27145
2109 1 16.1847 16.135 7.24334
3112 2 16.2318 17.7663 5.51563
3110 3 17.8851 15.9548 5.57903
3582 3 17.9526 17.7964 3.79881
21 2 0.116786 2.02076 8.84334
604 1 0.133952 0.232339 10.8033
2110 3 1.91709 1.97028 10.857
2589 3 1.96549 0.137337 9.06506
585 1 7.06835 1.85835 9.03978
1092 1 5.36881 0.029947 9.1214
1608 2 7.0774 0.182323 10.6294
1607 2 3.78329 0.0362298 10.8133
2111 2 5.4235 1.96794 10.7841
2591 2 3.68396 1.85381 8.9477
1116 3 10.7078 0.0891192 10.8149
2612 3 9.10543 1.94653 10.7435
2592 1 10.9042 2.03408 9.06831
3587 1 8.91938 0.281709 8.96159
587 3 14.4647 1.88781 9.17798
1609 3 14.3935 0.0645311 10.8328
2090 3 12.5789 0.181518 8.95555
2613 3 12.6042 1.82198 10.8938
26 2 16.1959 0.144028 8.9765
2594 3 17.9218 1.95063 9.01852
3116 3 16.1347 1.86415 10.8675
3115 2 17.9482 0.173937 10.7147
1093 2 1.9477 7.29798 9.03097
2091 2 1.9864 3.71631 8.92762
2615 1 0.153558 3.78319 10.9038
3118 2 0.217218 7.2429 10.8048
3117 1 1.94303 5.40621 10.8071
3089 1 0.324794 5.50119 8.98338
30 1 5.17407 3.70414 9.02353
45 2 7.22317 7.08613 10.781
1096 2 3.58525 5.58806 8.99015
2112 2 7.29946 3.59409 10.6449
2616 2 3.67502 3.67202 10.7802
3091 1 7.41233 5.39978 9.14813
3608 2 3.62412 7.21462 10.7853
3607 3 5.30557 5.40942 10.7718
3591 3 5.40814 7.13256 9.08948
46 2 10.7575 7.12354 10.7241
1098 1 10.8146 5.45399 8.91171
1591 3 9.00607 3.57718 8.91692
1588 2 8.98475 7.10733 9.05439
2113 1 10.7953 3.65476 10.9325
3609 1 9.00671 5.61491 10.8343
32 3 12.5471 7.32594 9.07773
34 2 12.6052 3.63493 9.02125
36 3 14.3201 5.56272 9.01874
609 3 14.2163 7.10032 10.9007
3119 2 14.4014 3.62247 10.811
3611 1 12.5077 5.46931 10.7682
1120 3 17.8563 3.76822 10.9113
1615 3 17.6785 7.1834 10.9262
1593 3 17.8173 5.3815 9.03301
2093 1 16.1191 7.19572 9.13985
2595 1 16.015 3.81195 8.98032
3612 3 16.0772 5.4701 10.8332
48 3 1.7729 9.14921 10.6948
2095 3 0.0216835 8.94052 8.99069
2596 1 1.93337 10.7749 9.06612
3120 2 0.0824166 10.7771 10.7433
37 2 3.66133 9.12256 9.0253
49 3 5.50192 8.97242 10.784
612 1 7.26454 11.0228 10.7889
1105 1 5.56642 10.7084 9.09444
2096 3 7.2335 8.81595 9.03759
3121 2 3.61633 10.7913 10.753
613 1 9.08263 8.88077 10.7098
598 1 10.8715 9.0663 9.0867
3613 3 10.8112 10.8067 10.836
3596 1 9.02943 10.664 8.85898
50 1 14.2304 10.9048 10.863
614 3 12.5515 8.96483 10.7463
2598 1 12.5537 10.9101 8.90387
2597 1 14.2803 9.12996 8.93171
51 2 17.7799 10.7106 10.8879
600 2 17.7903 8.98522 9.06119
1122 2 16.0186 8.95203 10.7011
1109 3 16.0512 10.9007 9.04852
616 2 0.174964 14.4004 10.7809
601 1 0.117179 12.5338 9.0251
1123 2 1.96803 12.5765 10.7138
3094 3 1.86725 14.2496 8.98302
1124 1 5.34525 12.6288 10.8528
1111 1 5.52377 14.2965 8.98236
1619 1 7.29654 14.4233 10.6751
1618 2 3.60889 14.3868 10.7186
1601 1 7.31296 12.5028 8.96454
3095 2 3.83341 12.6103 8.99838
617 1 10.8451 14.4207 10.7803
1125 3 9.06434 12.5812 10.6731
3096 3 8.94134 14.3636 8.88002
3598 1 10.8403 12.5794 8.9534
1126 2 14.1897 14.3791 10.6789
1113 3 12.4635 14.3828 9.09555
1620 3 12.5423 12.4667 10.7324
1602 2 14.2919 12.6179 8.89577
1621 3 16.0848 12.5962 10.7577
3126 2 17.9284 14.3731 10.9139
3102 1 16.0606 14.2631 9.06957
3101 2 17.862 12.6298 9.12168
1623 2 0.117282 17.9038 10.7931
2119 2 1.97911 16.1134 10.7496
2606 3 1.94813 17.8989 8.96278
3600 2 0.206045 16.1069 9.00113
40 2 7.16124 16.1376 9.00104
619 2 3.78455 17.9903 10.7897
1127 2 7.17576 17.9821 10.8395
2120 2 5.452 16.1179 10.6837
2106 1 3.70992 16.0848 9.04665
2105 3 5.65321 18.0091 9.01284
1624 2 10.8303 17.9223 10.8763
2108 2 10.7409 16.1985 9.04434
2625 2 9.08053 16.2732 10.7758
3108 3 8.93704 17.9609 9.0718
603 2 14.2379 16.1413 9.12334
1115 1 12.45 17.835 8.97001
2626 1 12.5977 16.1788 10.9435
3620 3 14.3024 17.843 10.8258
2628 1 16.0119 16.1338 10.7324
2611 3 17.8064 16.0635 8.98502
3127 2 17.786 17.9273 10.7865
3111 3 16.0655 17.8611 8.97007
42 2 0.177501 1.87731 12.4995
2121 2 0.168747 0.0476043 14.4079
2629 1 1.74597 1.92302 14.4447
3113 1 1.93595 0.136721 12.6488
43 3 3.65151 1.9016 12.6708
605 1 7.30087 1.88024 12.3926
1625 3 7.15558 0.0578211 14.2545
2123 2 3.5835 0.189423 14.5095
3128 1 5.5074 1.88505 14.4246
3605 1 5.34361 0.162123 12.625
606 1 10.8542 1.85723 12.6977
1627 1 10.8384 0.0899819 14.3912
3129 2 8.93482 1.96299 14.1687
3606 2 8.98704 0.311465 12.3964
1117 3 14.3523 1.82963 12.7242
2632 1 14.3282 -0.0571352 14.2084
3131 1 12.3468 1.82091 14.344
3114 2 12.4611 0.075079 12.595
44 3 16.1694 -0.0291826 12.5863
501 3 17.9254 0.10315 14.26
2614 3 17.9501 1.82291 12.5133
3132 3 16.0997 1.90879 14.1462
607 3 1.97706 3.61519 12.6374
1119 2 1.90036 7.22157 12.4703
1118 2 0.293339 5.5381 12.6045
2634 2 0.172207 7.20074 14.3711
2633 1 0.123015 3.7216 14.104
3624 2 2.01027 5.4701 14.4223
60 1 7.25749 7.18465 14.348
608 3 5.35751 3.64785 12.6878
1612 1 7.19178 5.45868 12.5457
1611 2 5.51281 7.16221 12.5206
1610 1 3.60821 5.41621 12.6021
2128 3 7.26786 3.62035 14.1764
2126 2 3.61799 3.71464 14.3689
3136 3 3.68655 7.34436 14.2162
3626 1 5.60897 5.27812 14.3721
1613 2 10.7506 5.57547 12.5797
2114 3 9.07357 7.36621 12.6311
3137 3 10.7197 3.73466 14.1969
3629 3 8.95009 5.42491 14.1605
3628 2 10.8833 7.3018 14.3788
3610 2 8.88607 3.66375 12.4492
610 2 12.5965 3.66407 12.5088
1614 3 14.311 5.40402 12.618
2617 2 12.553 7.16056 12.5938
3138 3 14.1991 3.61069 14.3292
3631 3 14.2106 7.19609 14.3974
3630 3 12.5107 5.42425 14.295
47 3 17.771 5.46503 12.6098
65 2 16.0909 5.42964 14.3371
1138 3 17.9086 3.64466 14.4575
1121 3 16.0459 3.71264 12.6602
2618 1 16.0057 7.22415 12.6737
3140 1 17.7996 7.26515 14.3622
67 3 2.0306 9.04922 14.2565
611 3 1.92136 10.7461 12.4662
2115 2 0.180933 9.02092 12.5472
2636 2 0.129604 10.6623 14.2037
69 1 7.22328 10.713 14.4216
70 1 5.45297 9.04447 14.2969
1616 1 5.48597 10.7993 12.6063
2116 2 3.71556 8.96176 12.5568
2619 3 7.27167 9.08266 12.6552
3633 3 3.66891 10.8028 14.2853
71 3 9.10187 9.17119 14.4292
2117 1 9.18649 10.8401 12.4133
2620 3 10.7824 9.02045 12.5615
3141 3 10.6826 10.8809 14.373
510 1 12.4409 9.04935 14.2427
1617 3 12.5063 10.7539 12.5229
3122 3 14.3251 9.0127 12.6091
3635 2 14.3253 10.8874 14.3387
511 2 16.016 9.01126 14.4177
615 3 17.7822 9.02339 12.716
1639 3 17.7863 10.7254 14.3153
2118 1 16.0858 10.8055 12.4531
513 2 0.124124 14.4656 14.2006
514 3 1.7654 12.5226 14.1649
2621 3 0.138759 12.544 12.3698
3123 1 2.0022 14.3565 12.4351
72 2 7.17852 14.3583 14.2934
515 1 5.33003 12.5879 14.2457
516 1 3.65132 14.5084 14.4257
3125 1 7.27021 12.6598 12.6644
3124 3 3.55076 12.5777 12.666
3614 1 5.4637 14.4414 12.5283
73 2 10.8322 14.3393 14.2468
1145 1 8.9965 12.5854 14.4101
3616 1 10.7145 12.5277 12.4559
3615 3 9.0573 14.4125 12.4889
1147 3 12.5123 12.6611 14.3065
1146 2 14.2532 14.4189 14.4419
2622 2 12.4838 14.2692 12.5004
3617 1 14.4859 12.6904 12.6069
1149 1 16.1614 12.611 14.3868
1622 1 17.7008 12.6695 12.6163
3146 3 17.8708 14.4435 14.5865
3618 2 16.1413 14.4038 12.4869
52 2 0.209229 16.0713 12.5864
518 2 0.197004 17.8968 14.2337
1150 3 1.97033 16.117 14.2534
2623 2 1.86732 17.8547 12.4605
53 2 3.73684 16.2072 12.4179
618 3 7.28781 16.1161 12.3952
1151 1 3.43086 18.0773 14.1775
1642 1 5.41245 16.1848 14.2617
2142 3 7.27492 17.8833 14.231
2624 1 5.51603 17.9308 12.5981
54 2 10.798 16.1008 12.5554
1643 2 8.88922 16.1642 14.2554
2649 3 10.6305 17.8258 14.3743
3619 1 9.09068 17.9798 12.3858
55 2 12.6415 17.9005 12.583
620 3 14.268 16.0478 12.5871
1646 1 12.5781 16.0135 14.2382
1644 2 14.2037 17.8778 14.4157
56 2 16.1678 17.8292 12.6655
1647 3 16.0101 16.1281 14.3605
2627 3 17.7877 16.1804 12.5287
3644 1 17.7136 17.9218 14.3069
57 2 1.84599 0.106787 16.2423
621 1 0.281052 1.96562 16.088
1128 3 0.161863 0.178529 17.9647
2122 1 1.94454 1.88753 18.0368
58 1 5.65074 0.0857288 16.1296
1132 3 7.33959 0.10348 17.8104
1131 3 7.34664 1.97766 16.1105
1130 3 3.83904 0.164663 17.8336
1129 1 3.7124 1.89492 16.1854
2630 2 5.42742 1.99782 17.818
1133 3 10.6943 1.9041 16.1177
1626 1 10.7001 0.0272177 17.7436
2631 2 9.19447 1.90713 17.9498
3621 3 8.90019 0.158559 15.9869
59 2 12.5893 0.0585581 16.1824
1134 3 14.1853 1.76747 15.9881
2124 3 14.28 0.217562 17.901
3130 3 12.3365 1.90236 18.0298
502 1 16.0744 0.316583 16.0859
3133 2 16.003 1.9202 17.9638
3623 2 17.8009 0.0710788 17.9267
3622 2 17.8088 1.95826 16.0371
503 1 2.04397 3.74583 16.1905
504 2 1.85949 7.2988 15.9601
1628 1 0.239492 5.34919 16.06
2125 3 0.144266 3.6348 17.9536
3134 1 0.212624 7.26083 17.8301
3625 1 2.0505 5.65644 17.9151
61 2 5.48082 3.638 16.1492
505 1 3.73332 7.26031 17.7155
1135 3 7.1637 7.22288 17.9116
1631 3 5.47111 7.37815 16.0128
1630 2 3.7177 5.42917 16.1196
1629 2 7.25628 5.40258 16.2189
2127 2 3.70519 3.71748 17.9192
3135 2 7.30805 3.71613 17.8666
3627 3 5.45233 5.36557 17.8691
62 2 9.03352 5.50398 18.0462
63 1 10.8514 7.17606 18.0505
506 3 9.16853 3.83011 16.1698
1632 3 10.8062 5.60441 16.0157
2129 2 9.05399 7.35596 16.0214
2635 1 10.8033 3.73783 17.9245
64 3 12.5542 5.39894 17.801
1137 3 14.2243 7.33703 17.7972
1136 3 12.4683 3.72324 16.0349
2131 1 14.3153 5.3601 16.0942
2130 1 12.468 7.29066 16.0794
3139 3 14.2683 3.50883 17.8405
66 3 17.8601 5.43275 16.1574
507 1 16.0386 5.26049 17.7433
1140 1 17.8312 3.57429 17.8399
1139 1 16.0273 3.48481 16.035
1634 2 17.8195 7.31765 17.787
1633 2 16.1341 7.116 16.076
508 2 1.91444 8.94549 17.755
1141 2 1.76458 10.8406 16.0651
2132 1 0.260044 9.03082 15.8562
3632 1 0.137848 10.7281 17.694
68 3 3.62117 10.8754 17.9346
509 3 7.15236 10.8536 17.8992
1142 1 5.44991 9.14881 17.7464
1635 2 5.49378 10.741 15.9248
2134 2 7.33104 9.04687 15.9866
2133 3 3.60465 9.12121 16.0589
1143 1 9.01416 9.06865 17.8293
1636 2 9.05946 10.8972 16.13
2637 2 10.7663 9.1038 16.0996
3634 2 10.6989 10.8394 17.9349
1144 1 12.5846 10.8934 16.1268
1638 2 12.499 9.04555 17.8857
1637 2 14.2403 10.8551 17.7216
2638 3 14.2394 9.12197 16.0432
512 2 17.7973 8.89326 16.0439
1640 3 16.0087 9.01917 17.7239
2135 3 16.126 10.8178 15.9623
2639 3 17.9438 10.7101 17.7876
2137 2 0.212206 14.3343 17.7975
2136 3 2.00768 12.502 17.8049
2641 3 1.8352 14.368 16.0612
2640 1 0.119508 12.5199 15.9184
2140 1 7.17327 14.3691 18.0004
2139 3 3.61309 14.2789 17.8057
2138 2 5.38026 12.6217 17.8603
2643 1 5.48353 14.2564 16.1471
2642 3 3.69975 12.732 16.0566
3142 2 7.1641 12.6016 16.0871
2141 1 9.03513 14.3966 16.0904
2645 1 9.10456 12.5247 17.8248
2644 1 10.8427 14.3709 18.0509
3143 2 10.7479 12.8057 16.213
2647 1 12.5392 14.2826 16.1878
2646 2 12.5696 12.638 17.8599
3145 3 14.2948 14.3133 17.8475
3144 3 14.3136 12.5661 16.1062
517 3 17.9133 14.255 17.774
1148 3 17.9153 12.615 16.0225
3148 2 16.0369 14.3089 16.1773
3147 3 16.1883 12.539 17.8734
2648 2 1.78118 17.9443 16.1638
3150 1 1.77628 16.0882 17.861
3149 1 0.0359432 16.0338 15.9621
3636 1 0.0207376 17.882 17.9404
1641 2 3.67704 17.7908 17.9784
2143 1 7.18626 17.9863 17.873
3640 3 5.39905 18.0757 16.0295
3639 3 7.19815 16.3236 15.9628
3638 2 5.47737 16.1466 17.713
3637 1 3.71256 16.2959 16.0886
74 3 9.09364 17.9047 16.1133
519 3 10.7231 17.9541 17.7695
3642 1 8.94562 16.0174 17.8575
3641 1 10.8121 16.178 16.0464
75 2 12.603 16.221 17.8484
76 1 12.5915 17.9179 16.1122
1645 2 14.2261 17.9928 17.8017
3643 3 14.2245 16.0166 16.1007
77 1 16.134 16.109 17.7415
2144 2 17.836 16.2561 16.1606
2650 2 17.8134 17.826 17.9158
3645 1 15.8669 17.8679 16.0585
520 1 0.1355 0.241855 21.5123
78 3 0.130697 1.88006 19.6628
2145 1 1.91133 1.9146 21.4506
3151 3 1.79079 0.208409 19.6615
521 3 3.75532 0.125004 21.3653
80 1 3.72583 1.93201 19.5403
79 3 7.37485 1.96951 19.6384
2147 3 5.57592 1.81385 21.3577
2146 3 7.30124 0.116742 21.4666
2651 2 5.57192 0.154953 19.5496
81 1 10.8624 1.95543 19.6999
1648 1 10.701 0.106809 21.4434
2652 2 8.98405 1.9445 21.5146
3152 2 9.18988 0.225952 19.6101
522 1 14.1211 1.94589 19.6803
1649 2 14.3745 0.190134 21.5361
2653 1 12.5152 2.06076 21.556
3646 1 12.5832 -0.0396815 19.6269
82 2 17.743 -0.0157267 21.4995
2654 2 17.7401 1.86018 19.8379
3153 3 16.0541 1.88129 21.5649
3647 2 16.0373 0.113975 19.7359
523 1 0.110696 5.5496 19.7558
84 1 1.83522 7.308 19.6685
83 2 0.143832 7.19005 21.5115
1650 3 0.171174 3.68064 21.4291
3155 2 2.01067 5.33907 21.4743
3154 1 1.96663 3.77498 19.6389
524 1 3.65315 5.60145 19.7214
525 1 7.19419 5.44117 19.6365
526 2 3.6285 7.28807 21.4355
1153 2 7.20473 7.19883 21.3408
1152 3 5.42816 7.28073 19.7326
2655 2 3.82216 3.7395 21.4753
3156 2 7.15354 3.63901 21.4328
3649 3 5.40789 3.80752 19.6864
3648 1 5.58377 5.49613 21.4903
86 2 10.8429 7.1631 21.3777
85 1 9.10387 3.61456 19.6969
1155 1 10.8719 5.43616 19.7624
1154 2 9.01539 7.16111 19.5824
2656 3 10.8087 3.69874 21.5214
3650 3 9.00727 5.4538 21.3983
527 2 12.6009 7.13189 19.6286
88 3 12.6645 5.50148 21.6301
87 1 12.6117 3.71694 19.7708
1156 1 14.3645 5.44616 19.5594
2148 3 14.3297 7.23677 21.4728
2657 2 14.2661 3.72644 21.5324
528 2 17.7435 3.7294 21.3945
89 3 16.0901 5.53149 21.499
1157 1 16.057 7.16997 19.5315
3158 1 17.7789 5.56842 19.6698
3157 2 17.9323 7.21794 21.4181
3651 1 16.0248 3.70635 19.7815
529 3 1.90755 8.96693 21.4107
530 1 2.04003 10.6979 19.6211
1158 3 0.120165 8.98506 19.6377
3652 3 0.06024 10.7963 21.2982
531 1 5.60478 9.0046 21.2025
532 1 5.34116 10.8818 19.6304
533 3 7.23782 10.761 21.2791
1159 3 3.76023 9.02312 19.626
1651 2 7.25855 8.94832 19.5296
3653 3 3.65051 10.6984 21.3454
90 3 8.96554 10.7281 19.7128
1161 3 9.04531 8.96338 21.2716
1160 1 10.8565 10.772 21.341
1652 1 10.9614 9.0375 19.6489
534 3 12.6877 10.7597 19.4896
1162 2 12.4957 8.93704 21.4565
1654 2 14.1746 10.6913 21.3547
1653 1 14.2558 9.02248 19.6198
1656 3 15.9231 10.7947 19.7161
1655 2 16.0305 8.88217 21.3932
3159 1 17.8208 10.7907 21.4035
3654 3 17.7191 9.00626 19.5459
1660 2 0.169 14.1168 21.4007
1659 2 1.93173 14.3041 19.6779
1658 1 2.01243 12.4791 21.3574
1657 3 0.126997 12.4971 19.4027
1163 2 5.49101 14.3145 19.5919
1661 3 3.71114 14.3588 21.4271
2151 3 7.22679 12.5542 19.5892
2150 1 5.51688 12.6293 21.5398
2149 2 3.72506 12.5646 19.7804
3160 1 7.17874 14.2924 21.5676
1662 1 9.13462 14.1885 19.5843
2153 3 9.09876 12.6132 21.3592
2152 1 10.8596 12.5262 19.6309
2658 3 10.8204 14.4256 21.4122
2155 2 14.1591 12.6024 19.5415
2154 1 12.5764 14.5231 19.6324
2660 2 14.3987 14.3922 21.2696
2659 1 12.7174 12.6125 21.3649
535 1 17.925 12.4941 19.6361
1164 1 17.8294 14.143 21.2608
2156 3 16.0781 14.3186 19.5508
2661 3 15.9757 12.4811 21.3813
1165 2 0.169453 17.8702 21.3962
2157 1 1.97683 17.9198 19.4663
2662 2 0.175049 15.8983 19.65
3161 1 1.92182 16.0253 21.3256
1664 3 7.24993 17.936 21.4477
1663 3 3.69638 17.8338 21.5463
2664 2 3.70339 16.0357 19.5778
2663 3 7.27869 16.0761 19.7374
3163 1 5.53122 16.1108 21.3288
3162 3 5.4641 17.7457 19.6075
536 2 10.8357 17.8624 21.3808
2665 2 10.7708 16.1322 19.5861
3164 2 8.94643 17.9194 19.4392
3655 1 9.02565 16.0726 21.5094
2666 3 12.5004 17.9179 19.5968
3166 1 14.2942 16.1917 19.6427
3165 2 14.3953 17.8445 21.3663
3656 2 12.4952 16.0441 21.4382
92 3 16.2814 16.1945 21.3176
91 3 18.1331 17.8062 21.2457
1166 3 17.9743 15.9628 19.5035
3167 2 16.0795 17.9793 19.5381
93 3 1.91278 1.96211 24.9241
1665 3 1.81575 0.209065 23.138
2667 3 0.145456 0.339755 25.0761
3168 1 0.0468199 2.1024 23.2631
2158 1 5.57103 0.0627915 23.2577
2670 2 3.66529 0.171729 25.0228
3170 3 7.31309 1.86356 23.4036
3169 1 3.79265 1.86627 23.1007
3659 1 7.24899 0.0935493 25.0854
3658 3 5.49268 1.90185 25.009
537 1 9.01992 1.93957 25.1573
2671 3 8.94098 0.139663 23.2029
3171 2 10.8296 0.270184 24.8451
3660 1 10.8617 1.85491 23.2075
2673 2 12.7015 0.0200447 23.189
3663 2 14.2996 1.88362 23.1976
3662 1 14.2764 0.108977 25.0341
3661 3 12.5049 1.84847 25.0032
539 2 16.1416 1.9171 24.9449
1167 1 18.0414 0.155243 24.9238
1668 1 17.8089 1.91363 23.1911
2160 1 15.9648 0.204747 23.3807
99 2 2.03731 5.40381 25.1125
98 3 1.97134 7.09313 23.354
97 3 0.207159 7.11511 25.0137
96 1 0.236475 5.4576 23.2323
3173 2 1.9557 3.64595 23.2171
3172 2 0.138237 3.72036 25.1149
540 3 3.72937 7.23579 24.8724
541 2 5.44655 7.252 23.1208
542 2 7.16813 5.45459 23.1714
543 1 5.44709 5.41641 24.8176
101 2 7.18454 7.1707 25.0012
100 1 3.71394 5.46604 23.1845
2675 2 7.22101 3.7202 24.9528
3175 1 3.72343 3.69902 24.8507
3665 1 5.51677 3.62153 23.1329
546 3 8.95853 7.16191 23.2971
547 3 8.94153 5.54251 24.9786
102 2 10.8672 5.55972 23.2006
1170 3 10.6919 7.14001 25.0579
3177 1 10.7065 3.84859 25.0691
3666 3 8.99953 3.79371 23.2599
548 2 14.3437 5.41533 23.3209
549 3 12.4089 5.5006 24.9105
105 2 14.3347 3.60854 24.9784
1670 1 12.5823 7.41296 23.185
3179 2 12.478 3.62321 23.4062
3667 3 14.3181 7.4122 25.0452
1172 1 16.2654 5.47327 24.9116
1672 2 17.9821 3.66481 24.9675
1671 3 16.1162 7.27214 23.2937
2678 2 17.9015 7.28777 25.0015
2677 1 17.7697 5.45905 23.1936
3668 3 16.1602 3.68361 23.2674
550 3 0.227011 9.00679 23.1724
106 3 1.8674 10.7078 23.2411
1175 3 1.94602 8.98391 24.999
3669 3 0.0622276 10.6898 24.8993
108 3 5.43955 10.6979 23.0712
1180 3 7.18965 10.6871 24.8984
1178 3 7.28692 8.90147 23.0353
1177 2 3.67724 8.99949 23.1128
1176 1 5.57248 8.86714 24.8355
3670 2 3.81854 10.7971 24.8635
551 1 10.6376 10.8601 24.9582
552 1 8.95336 10.7704 23.1159
1181 1 8.96275 8.92734 25.1309
1674 3 10.676 8.96019 23.3823
1182 2 12.4896 10.8602 23.184
1676 2 12.5021 9.13427 24.9424
1675 2 14.5304 9.13921 23.2192
2163 3 14.4343 10.8614 24.8956
1183 2 16.2781 9.07001 24.9508
1677 3 16.1706 10.6778 23.1689
2165 2 17.9715 10.8496 24.6508
3671 2 17.9907 8.99685 23.1991
555 1 0.243093 14.1939 24.8
1184 1 1.97854 14.3185 23.1159
1678 1 1.98265 12.4322 24.8246
2166 2 0.210955 12.4607 23.1264
113 3 7.22046 14.2036 25.1087
1185 2 5.49797 12.5862 24.9271
2170 2 5.42487 14.4022 23.2138
2169 1 3.76414 12.4409 23.1058
2168 2 3.67664 14.3176 25.0047
2167 2 7.21373 12.5642 23.2377
1680 1 10.8328 14.2096 24.9896
2171 1 10.7523 12.5749 23.0307
2682 1 9.10807 14.3035 23.2768
2681 2 9.06395 12.5037 25.0092
114 1 14.348 14.1941 24.9383
1681 1 12.5905 12.687 24.8903
2684 1 14.3449 12.6178 23.1173
2683 2 12.6063 14.2425 23.0763
557 3 17.8316 12.5568 23.0363
2173 2 16.1055 14.2812 23.1887
2685 3 16.1526 12.5727 24.8373
3183 3 17.8904 14.2855 24.9773
1684 1 1.90624 16.0206 24.8737
1683 2 1.88195 17.8217 23.3027
2688 2 0.23222 16.0964 22.945
2687 2 0.085057 17.8167 24.9135
2175 3 7.31334 17.7899 24.9987
2174 1 5.37235 18.0917 23.3617
2689 3 3.55057 17.8217 24.9656
3187 3 5.47199 16.0416 25.135
3186 3 7.27284 16.0985 23.3664
3185 3 3.70717 16.081 23.2155
1687 1 8.98464 17.8402 23.151
1686 2 9.08532 16.0588 24.9503
2177 3 10.7573 17.8787 24.9403
3675 1 10.7458 16.1676 23.2986
2178 1 14.2996 17.7867 24.7478
2690 2 12.6374 17.8308 23.0344
3188 3 12.6588 15.8798 24.9684
3676 2 14.3481 16.117 23.1699
1187 1 17.9012 16.0164 23.1025
1186 3 17.8052 17.8358 24.8382
1689 3 15.9953 16.0393 24.923
3189 1 16.0769 17.7842 23.1272
1188 2 0.00686852 0.259364 28.3447
2180 1 1.90183 1.92869 28.5328
2668 3 1.78328 0.270239 26.6734
3657 2 -0.0191512 1.92706 26.8146
559 2 7.24023 0.240572 28.5353
94 3 7.20792 1.89769 26.7366
1189 2 3.49908 0.160085 28.4383
1666 1 5.38657 0.239497 26.8696
2181 2 5.39711 1.98378 28.549
2669 1 3.68079 1.84457 26.789
560 3 10.8382 0.0682339 28.5816
95 3 8.9894 0.165772 26.825
2182 1 8.99328 1.9558 28.4346
2672 2 10.7496 1.96238 26.7023
538 1 14.2942 1.85095 26.753
1667 1 12.4708 -0.0339395 26.7643
2184 2 12.539 1.89102 28.4956
2183 3 14.3597 0.185169 28.5772
2159 3 17.9374 1.97558 26.9025
3193 2 16.0568 1.80666 28.5039
3679 2 17.8166 0.191908 28.3849
3664 1 16.0961 0.193324 26.6127
1168 3 2.02612 3.61379 26.681
1669 3 1.94545 7.12272 26.7652
2186 1 0.136096 7.40499 28.4759
2185 1 0.115054 3.48772 28.5299
2674 1 0.240746 5.48479 26.716
3194 1 1.92467 5.41303 28.3966
544 1 3.83698 5.52205 26.7114
563 2 7.27942 7.24226 28.6615
1691 2 7.21697 3.7494 28.6108
1690 2 3.82964 3.78296 28.4711
2676 3 7.18285 5.34951 26.7793
3196 2 3.86302 7.22718 28.4547
3195 3 5.46443 5.47234 28.6886
3176 3 5.42066 3.65544 26.7171
3174 3 5.45076 7.16753 26.7037
545 3 10.7521 5.48983 26.8329
1171 2 9.04705 3.71171 26.7673
1169 1 8.99581 7.24497 26.8776
2694 2 10.7031 3.73048 28.4583
3197 2 8.96767 5.55958 28.5138
3681 3 10.8752 7.27095 28.5439
104 1 12.6659 3.73489 26.7762
103 1 14.5999 5.41059 26.6439
2695 2 14.3866 3.61435 28.5614
3178 2 12.5176 7.35145 26.6742
3684 1 14.2922 7.36957 28.5068
3683 2 12.6192 5.49792 28.4184
622 2 17.7834 3.79616 28.5004
1004 2 17.8912 7.27513 28.4385
1174 1 16.1233 7.32845 26.7984
1173 1 17.8081 5.46553 26.5964
3180 1 16.1828 3.56571 26.7607
3685 1 16.1476 5.40809 28.4838
1673 2 0.0466563 9.0902 26.7731
2161 2 1.94302 10.7042 26.5423
2696 3 0.0627139 10.6985 28.5072
3687 3 2.05747 8.84343 28.4572
122 2 7.21799 10.8357 28.4032
107 1 3.71621 8.99689 26.7225
1179 1 5.3331 10.6166 26.7467