ITEM: TIMESTEP
5000
ITEM: NUMBER OF ATOMS
4000
ITEM: BOX BOUNDS pp pp pp
7.3642816390741217e-02 3.5774547183608746e+01
7.3642816390741217e-02 3.5774547183608746e+01
7.3642816390741217e-02 3.5774547183608746e+01
ITEM: ATOMS id type x y z
3566 1 1.99517 3.67261 1.81957
3565 3 12.6648 0.0290114 1.96917
3740 2 5.26974 18.0114 16.088
3577 2 8.92639 0.290945 5.46171
1 1 3.58246 2.04264 1.7467
1065 3 5.18698 1.82223 3.58439
570 3 6.86212 3.64709 3.57994
2065 3 7.20503 1.94405 1.91226
1086 2 8.95874 16.0491 0.00071932
659 1 3.56835 17.9296 10.7769
2 3 10.8261 1.66064 2.11667
3567 1 9.08836 3.74443 1.65578
751 2 18.0177 0.0660163 0.0231398
771 3 17.931 14.4476 -0.0315026
1067 2 12.4587 1.83204 3.83452
572 3 14.3892 3.64972 3.56294
1567 1 12.6305 3.74794 2.03152
653 1 14.6214 17.9881 7.23995
1088 2 16.2466 16.1931 -0.188971
2106 2 0.129553 12.742 12.3705
2066 2 14.448 2.01812 1.80251
3568 1 16.41 3.62626 1.90641
3078 2 1.62776 12.5674 -0.175444
581 1 10.7285 10.8434 -0.32469
588 2 -0.135002 -0.138176 7.04465
2570 1 3.5604 3.63564 3.56636
2724 1 7.10033 17.6471 10.8669
1566 1 5.18707 3.67632 1.82505
2067 1 3.63049 5.41855 1.86112
3569 3 5.27441 7.30319 2.02378
2114 2 0.0567484 1.75922 15.8447
4 2 7.19096 5.46284 1.77921
2068 2 11.0056 5.37687 1.73812
2572 3 10.8023 3.67752 3.52882
1071 1 9.11111 5.43026 3.25517
3071 1 12.529 5.42574 3.69203
1565 1 16.3685 -0.0035027 1.82586
680 1 14.5209 17.6664 14.5018
258 3 18.0044 12.5796 1.85429
5 2 14.7287 5.40078 1.85722
2578 3 14.3858 7.1226 3.66159
1570 1 16.0852 7.13254 1.74184
1692 1 16.1161 17.911 1.83386
58 1 0.295419 12.6939 16.1663
1568 1 1.59356 7.04704 1.88984
3073 2 1.78554 9.03397 3.51361
1703 3 5.65513 17.9101 5.53217
6 1 3.72037 9.13333 1.71256
2070 2 7.11075 8.95352 1.90855
1075 1 5.52583 8.86381 3.88972
2051 3 18.0857 1.83609 16.2944
8 1 0.0438838 12.4858 1.71484
2584 3 0.142284 14.2696 3.61383
1569 3 8.82275 7.27136 1.75275
576 3 10.8153 7.15822 3.32773
3075 3 9.19095 8.95831 3.76486
3570 3 12.5993 7.1287 1.68061
7 3 10.7322 9.11795 1.9921
2071 3 14.4782 9.04787 1.78577
3077 2 16.268 8.99101 3.47455
3573 1 16.2974 10.748 1.99806
1148 3 5.51031 16.1628 17.9636
47 3 -0.0834493 16.3368 12.6893
3571 2 1.67578 10.8453 1.7931
2072 1 3.433 12.5049 1.798
1573 3 1.75362 14.3768 1.96813
1079 1 1.73384 12.3026 3.67979
1571 3 5.57407 10.6737 1.79935
9 3 7.25256 12.4247 2.02695
3574 1 5.38465 14.1613 1.91082
3082 1 16.2056 12.3675 0.0935227
3572 3 9.02409 10.7191 2.15901
2582 1 10.8312 10.7513 4.05177
2073 2 10.8943 12.4255 1.98494
1574 1 9.06403 14.0325 1.9305
1572 2 12.5132 10.6576 2.07633
582 3 14.5353 10.7537 3.48199
586 3 10.8647 14.1325 3.72789
2588 1 14.2461 14.2819 3.78988
3081 1 12.5935 12.2772 3.66924
10 3 14.35 12.5652 1.81339
3615 1 12.6488 -0.110695 16.3749
2614 3 3.67642 -0.098278 14.2756
2598 3 14.5385 -0.0442559 10.7978
3083 2 1.75152 15.996 3.71032
2722 3 5.1071 18.0586 8.65016
3098 1 0.120435 5.28606 8.87673
606 3 0.021471 10.9869 10.8724
11 2 3.58778 16.351 1.97489
1085 2 5.33058 16.1161 3.54393
1725 2 16.2614 17.7861 8.91466
2044 1 17.9297 12.5694 12.4413
1078 3 16.0062 8.97749 -0.0808241
2075 2 7.20368 16.002 1.97369
12 2 10.7597 16.048 2.0567
3085 2 9.05599 15.8873 3.64048
53 1 0.0469798 5.33466 16.3198
3575 2 12.6857 14.2224 2.03527
1087 1 12.4744 15.9441 3.80982
2011 3 17.8012 16.2482 1.7906
2595 1 0.178918 0.0872448 10.635
1575 3 16.0192 14.1773 1.85598
2076 3 14.2046 15.9662 1.93725
1768 3 17.9107 3.67116 7.00913
2074 3 0.037026 16.2028 1.91932
3063 3 1.91438 1.8232 3.83094
2077 2 3.5238 2.06835 5.58141
3690 2 5.67029 17.8265 1.94662
3576 2 1.75825 0.125833 5.39562
3127 3 8.87896 1.60256 17.8959
14 1 7.32658 1.89946 5.32885
3580 2 5.69964 3.61247 5.50373
3065 3 9.00374 2.15252 3.71312
3348 2 18.0505 5.46828 8.98394
596 3 12.5259 -0.0218983 8.89953
2079 1 10.8395 1.73113 5.34261
3582 3 12.5618 3.58371 5.62275
16 3 14.2516 1.8255 5.38671
282 3 17.9888 1.89487 12.5269
1721 3 5.35657 18.0144 12.3842
2095 2 0.0769704 2.11805 8.9206
3067 2 16.1558 1.90571 3.6404
1069 3 2.00153 5.36544 3.71336
1579 2 1.86088 3.49586 5.38136
17 2 3.90288 5.21182 5.30981
2590 1 3.80021 3.87265 7.31366
574 3 3.39814 7.29704 3.43747
2576 3 7.14058 7.26311 3.65972
3069 2 5.34561 5.44311 3.56201
1584 1 5.37118 6.95308 5.33108
1581 1 8.95152 3.93425 5.36438
2082 2 7.35667 5.26809 5.26403
3585 3 9.07317 7.16063 5.26936
19 1 10.8678 5.52121 5.58106
2083 3 14.4646 5.60907 5.34184
1585 1 12.295 7.17764 5.30732
2592 2 14.1329 7.15007 7.23601
2566 1 7.19985 0.200557 3.56131
1073 1 16.1692 5.3549 3.79422
1582 1 16.0173 3.51111 5.57477
2084 1 16.2172 5.2889 7.2585
3586 3 16.3012 7.24773 5.41865
3583 1 1.97073 7.05285 5.48348
2085 1 3.50408 8.71836 5.22288
1625 2 16.028 14.2311 16.2281
591 3 7.24952 6.84799 7.05507
3588 3 5.27971 10.7519 5.50519
22 1 7.38144 8.89512 5.58402
2086 3 10.8464 8.91981 5.57057
1077 2 12.6812 8.86296 3.59178
23 1 14.3607 8.93912 5.19273
3589 3 12.4445 10.7309 5.45133
3590 1 14.3038 10.6698 7.51071
2017 1 18.012 5.50102 5.38553
1590 1 16.1789 10.8684 5.33169
3091 1 15.7217 8.90496 7.00536
1587 1 1.72524 10.6788 5.48177
25 1 3.60448 12.2873 5.24804
3591 3 1.9473 14.1441 5.37992
1592 3 3.55675 14.3918 6.97448
584 2 3.56303 14.1664 3.76336
2580 3 3.83025 10.5139 3.46049
3079 2 5.30788 12.4636 3.34394
2586 3 7.14406 14.1241 3.49155
1589 1 7.22213 10.8533 7.30248
1591 3 5.35654 14.3223 5.33101
1588 3 8.85813 10.6232 5.56738
1081 3 9.03007 12.4327 3.94011
580 1 7.16686 10.6157 3.72607
2089 3 6.95297 12.4683 5.61484
26 3 10.746 12.5039 5.51029
2091 3 14.3228 12.417 5.37906
13 1 -0.123982 1.78876 5.62309
1083 3 16.0984 12.7058 3.77202
3594 2 16.1313 14.3223 5.4962
27 1 16.2098 12.2443 7.388
3143 2 12.4928 13.0688 18.1184
2625 3 10.7811 14.4968 14.2902
2092 1 3.87929 16.1642 5.27384
786 3 18.0327 3.65118 10.7078
1690 2 8.88811 17.6491 1.61566
2093 2 5.43512 16.1285 6.95952
1615 2 16.3564 -0.0919727 16.2842
1577 2 3.48863 0.238197 6.87136
29 1 7.31486 16.0753 5.40956
3592 1 8.8851 14.3782 5.48968
3093 1 9.19683 16.3256 7.44058
1593 1 12.7002 14.2283 5.70251
2094 3 10.7855 15.9171 5.46717
31 1 14.3327 16.1579 5.46153
1594 3 2.04693 0.13989 8.91383
3087 3 15.9956 16.0098 3.57754
1095 2 16.2854 16.1783 7.12891
3124 2 12.7775 16.0268 14.3526
2721 1 0.243381 17.8554 10.8569
1089 3 1.84563 2.04938 7.37883
3095 2 3.65302 1.87921 9.06047
2599 1 2.07965 3.62969 8.94281
2694 1 7.26381 18.0009 3.54799
3703 2 8.93824 17.8697 5.32515
1613 3 1.90802 -0.11347 15.8844
2078 3 5.56093 1.92671 7.28397
3599 3 5.43182 3.51256 8.92487
2630 1 14.4927 -0.299993 18.1399
3088 3 9.02848 2.0749 7.20145
33 3 7.45018 1.77163 9.0911
1097 1 10.9732 1.933 9.07281
15 3 12.3926 1.88869 6.9663
566 3 10.5275 0.145716 3.83473
2126 2 14.1348 15.9323 16.2607
1719 2 1.83906 17.8611 8.72567
1090 3 16.2918 1.79341 7.43161
2098 1 14.2225 1.78318 8.97534
2081 3 2.07541 5.31379 7.05543
3602 2 1.92526 7.10215 8.80031
36 2 3.83696 5.51498 9.07771
1688 1 1.68612 17.9325 1.88122
3581 2 7.34057 3.76225 7.35869
3089 2 5.49115 5.57783 7.40455
602 1 5.54351 7.51104 8.99365
590 3 10.7743 3.60578 7.12608
18 3 9.16342 5.53853 7.34465
599 1 8.94582 3.6332 8.99626
1100 2 7.00834 5.34125 9.05155
2101 2 10.6702 5.4463 9.23929
1583 2 14.3192 3.62314 7.18309
1600 1 12.4427 3.8297 8.98744
1091 2 12.4811 5.38215 7.35064
3101 3 14.4678 5.30145 9.11064
1586 3 10.9287 7.11182 7.23818
2602 3 16.0299 3.6549 9.09888
3605 1 16.1303 7.14267 9.04789
678 3 7.19582 18.0537 14.314
3584 1 3.76726 7.11677 7.29527
3090 3 1.9161 8.94269 7.14174
605 3 1.60112 10.5352 8.93677
3102 1 1.85329 9.11416 10.85
21 3 5.45483 8.84929 7.03857
1103 3 3.621 8.90193 9.02704
2104 2 7.27966 9.00083 9.04669
603 3 3.39484 7.15517 10.8101
1092 3 9.07201 8.96125 7.21284
2604 1 7.34859 7.27834 10.7698
1603 2 9.09319 7.24663 9.01622
2608 2 9.05584 10.6038 9.01168
3103 3 9.20278 9.07539 10.8892
2087 3 12.7629 9.0016 6.97271
2605 1 12.6021 7.25076 9.13906
3104 2 10.845 8.94153 8.84946
3608 1 12.4493 10.6348 9.11159
1105 3 12.6274 9.04312 10.8615
3578 2 10.6724 0.0486821 7.1931
1125 2 9.22656 16.1448 14.5022
42 3 14.3755 8.78329 9.12993
3105 2 16.0196 9.06669 11.0355
24 3 2.11277 12.4148 7.28661
1609 3 1.89248 14.181 8.86783
2107 1 3.72904 12.4635 9.09608
2125 3 7.13633 16.1971 16.1602
592 3 3.50401 10.574 7.25272
2594 1 7.2049 14.4101 7.23899
607 1 7.10058 10.6871 10.7021
1093 3 5.21721 12.4748 7.39962
1606 1 5.34373 10.7327 8.89123
2090 3 8.97612 12.6633 7.22498
3107 2 7.09171 12.6424 9.05814
2593 1 10.8234 10.6815 7.36976
2609 1 10.7845 10.6766 10.5371
45 2 10.8055 12.4655 9.04742
3092 2 12.6714 12.3878 7.47872
2613 2 14.3802 14.5055 10.715
3108 2 12.6322 12.6475 10.4889
1128 2 5.44825 1.68255 17.7468
608 2 16.3462 10.4562 8.94854
1109 2 14.4454 12.4984 8.91529
1612 2 16.0985 14.1163 9.10621
618 2 -0.00792943 7.08286 14.5684
62 1 10.8203 16.2651 16.168
1563 3 2.02492 0.120837 1.90148
1094 2 1.87903 16.0941 7.11102
3110 3 3.52402 16.1603 8.94823
61 3 3.76253 16.2907 16.1106
3109 2 1.89094 15.8633 10.7595
2064 3 0.0538871 1.86831 1.84842
2611 2 5.59236 14.3308 9.02118
48 3 6.91013 16.2497 8.94762
1111 2 5.32699 16.1202 10.9535
3706 2 11.0041 18.0694 7.10362
3611 2 9.11053 14.2306 9.07633
3111 3 8.96743 16.0546 10.8416
3593 3 10.8245 14.3554 7.2212
611 1 12.6184 14.5347 8.8396
594 3 14.5311 14.3601 7.19447
1112 2 10.9484 16.045 9.11882
30 3 12.6929 16.2758 7.15901
1113 2 12.6823 16.1632 10.8834
270 2 18.0271 8.94088 5.36722
2113 1 14.4169 15.9884 8.96906
3564 3 5.39398 0.170617 1.86355
3094 2 1.9465 1.95523 10.6636
2600 2 3.65652 3.76244 10.662
1096 1 5.29857 1.76802 10.8913
2096 3 3.35456 1.76501 12.6415
3113 2 5.26454 1.80663 14.4068
3600 2 5.37796 3.69256 12.5395
757 3 18.1131 3.57687 3.63009
2825 2 18.0068 7.22921 3.57413
3096 2 8.91275 1.81103 10.7303
34 3 7.11553 1.81645 12.7714
2069 1 0.000343718 8.83822 1.81603
615 1 14.2324 0.125941 14.5144
1098 2 12.3949 2.10689 10.7548
2097 3 10.865 2.0425 12.5994
3097 2 15.8549 1.92132 10.62
3598 1 16.2166 -0.111633 12.5099
35 3 14.4765 1.65788 12.8707
1099 2 1.90068 5.26462 10.7521
1598 3 1.91551 3.50643 12.4407
3123 1 5.65154 15.7293 14.4911
37 1 3.73119 5.11558 12.6791
3099 1 5.34285 5.55877 10.7593
600 2 7.05674 3.53965 10.9313
1101 2 8.86143 5.39695 10.7123
2100 3 7.01575 5.36154 12.4387
1599 1 9.00061 3.60617 12.6277
38 1 10.8491 5.41474 12.5823
3116 2 9.14563 5.58615 14.5037
3100 2 12.6472 5.3451 10.7894
2601 2 10.7696 3.80015 10.8563
3601 2 12.6011 3.69783 12.8504
1601 3 15.9328 3.48839 12.4884
601 3 14.413 3.75057 10.9348
1102 3 16.2187 5.36366 10.7706
2102 1 14.5405 5.5026 12.6946
624 3 7.44222 14.3639 14.6654
3603 3 1.87462 7.10298 12.7452
1605 3 1.91492 10.8215 12.5498
1104 1 5.3581 9.07906 11.1612
1602 3 5.55021 7.1865 12.6397
2103 3 3.80136 9.04094 12.7842
3607 1 5.34281 10.7449 12.8747
3604 2 8.80667 7.15208 12.6606
41 1 7.51102 9.13528 12.8375
2105 2 10.7988 9.06041 12.6998
1120 1 9.03969 8.98047 14.5044
604 3 10.7896 7.08971 10.8888
1604 3 12.5152 7.17142 12.774
3609 3 12.5663 10.7922 12.5355
2606 3 14.3872 7.0851 11.039
609 3 14.3626 10.6263 10.8609
3606 2 16.1304 7.00239 12.6807
43 1 14.3361 8.74159 12.6522
1608 1 16.0937 10.7353 12.6441
625 1 14.514 14.3992 14.3871
2607 2 3.69121 10.8052 11.0821
1107 3 1.95783 12.5758 10.654
3120 2 2.02477 12.4891 14.3006
3610 1 2.00388 14.2438 12.4444
3106 3 5.34569 12.5863 10.7802
44 1 3.40139 12.502 12.5786
1122 2 5.31431 12.6306 14.4918
1610 3 5.30651 14.4283 12.5034
2624 2 3.57803 14.2748 14.2982
612 3 10.7992 14.2006 10.6247
1607 2 8.93365 10.9184 12.7629
2108 1 7.04398 12.8027 12.4095
1108 3 8.76976 12.3981 10.6483
3612 1 8.90214 14.2495 12.4674
46 3 10.8545 12.5051 12.6082
2109 2 14.1577 12.6336 12.6133
3624 2 5.14276 14.2979 16.191
1110 2 16.2804 12.4451 10.7745
2088 1 -0.0450968 12.4848 5.66347
1124 2 1.81478 16.1158 14.3259
595 2 3.57974 -0.0476107 10.6747
2124 3 -0.0814885 16.2197 16.2307
610 3 3.9366 14.4005 10.5747
2612 1 7.05951 14.2101 10.7502
2111 1 3.65367 16.0773 12.6276
49 1 7.2184 16.0337 12.4799
3701 1 2.04807 17.8096 5.23256
623 2 0.227994 14.3703 14.3921
1611 1 12.6289 14.4224 12.8094
2112 3 10.805 15.9895 12.4716
50 1 14.5656 16.1494 12.4531
622 3 10.8525 10.7018 14.6253
1624 1 9.19421 14.6814 16.2953
60 2 14.201 12.6628 16.1045
3613 3 16.0569 14.196 12.5813
3112 2 16.2263 16.2392 10.7612
1126 2 16.2065 16.1041 14.5931
1114 1 1.77865 1.87434 14.2748
2123 3 10.7927 12.5421 16.2239
597 1 10.886 0.11091 11.0561
3623 2 15.8566 10.62 16.0572
2121 2 14.3743 8.75707 16.2931
616 2 3.39687 3.68558 14.6149
51 3 3.52273 1.78458 16.2262
2115 3 7.2009 1.64054 16.0743
1123 3 12.6022 12.8557 14.4684
1115 3 8.91017 1.8082 14.5576
3114 2 12.4811 2.0523 14.5334
52 1 10.8403 1.76591 16.5239
1617 1 12.6074 3.45472 16.36
1706 3 12.6071 17.9143 5.42033
59 1 7.35126 12.6354 16.3998
1116 1 16.3787 1.64478 14.7408
2116 3 14.2768 1.84157 16.2827
3625 1 12.3785 14.1941 16.2386
621 1 3.43983 10.5873 14.4746
3115 1 1.79858 5.28166 14.559
3616 2 1.65475 3.66405 16.4103
1117 3 5.28785 5.13171 14.6293
1616 1 5.26253 3.38232 16.161
2117 1 3.45143 5.5324 16.3342
2122 1 3.46021 12.5174 15.9772
630 1 7.15783 18.0353 -0.228277
2617 1 7.22002 3.76449 14.3744
54 3 7.37538 5.36166 16.1957
3617 3 9.15847 3.71269 16.2148
1619 2 9.14513 7.209 16.3243
619 1 7.359 7.26815 14.4385
2618 1 14.4871 3.52433 14.5466
617 3 10.7924 3.89983 14.6454
1118 3 12.425 5.71679 14.622
2118 1 10.8346 5.58031 16.4578
3121 1 9.27601 12.499 14.4894
3117 1 16.208 5.5066 14.7161
3618 2 16.0487 3.60574 16.2468
55 3 14.0855 5.35478 16.2793
2574 2 -0.0303589 7.29723 3.53746
3122 3 15.8283 12.5218 14.3386
3621 1 1.6707 10.6673 16.2244
56 1 3.65677 9.0412 16.1615
2619 3 3.63998 7.23433 14.4682
1119 2 1.67525 8.81153 14.4822
1618 3 1.55286 7.17204 16.3229
1623 2 1.89075 14.6437 16.1916
2841 2 17.9784 7.09311 7.16362
2622 1 7.3986 10.9178 14.5832
1621 2 5.35263 10.9246 16.2845
3118 1 5.73188 8.95809 14.5517
3619 2 5.6111 7.17663 16.08
2120 1 7.13787 9.02328 16.3615
3622 2 8.9015 10.7164 16.4556
2620 1 10.6842 7.19617 14.4528
3119 1 12.5648 8.70422 14.4327
620 2 14.3182 7.24257 14.6324
3620 3 12.5407 7.51743 16.312
1622 3 12.7858 10.9953 16.3551
57 1 10.8275 9.06664 16.5172
1121 1 16.2146 9.00104 14.2969
1620 2 16.0696 7.41792 16.2891
2623 3 14.0282 10.7237 14.35
633 1 10.8153 17.7419 3.59785
2740 3 3.6679 17.9718 14.2573
811 1 17.8729 14.0544 14.3498
598 2 -0.0695325 3.56846 10.8182
278 3 18.0279 16.2167 5.40413
1564 3 8.98252 0.253804 1.92165
663 1 10.7525 17.8948 10.8803
2759 2 14.5808 17.9282 18.1329
290 3 18.1251 9.15466 12.5496
1576 2 5.49122 0.315829 5.46149
2001 2 18.1318 1.83427 1.7619
2615 2 10.9033 -0.0754784 14.5032
1597 3 15.9077 -0.172623 8.91816
781 3 18.2958 14.3111 7.19905
2080 1 0.102336 5.29444 5.35882
3724 3 9.03032 17.8259 12.8085
1082 1 12.7376 12.6322 0.159312
2032 1 17.8451 1.59183 9.1208
567 1 14.3497 0.281482 0.109799
2587 1 10.8642 14.2918 0.115629
2742 3 10.8136 17.9248 14.4057
3147 3 8.82092 16.3352 17.9719
2583 3 14.1926 10.7913 0.134524
2581 1 7.18887 10.4997 -0.0586238
2571 3 7.11636 3.72212 -0.0620414
508 3 7.0035 3.62338 18.1632
1138 3 5.49467 9.0387 17.945
3086 2 12.5038 16.1127 -0.0914558
2642 1 3.65044 10.8641 17.9626
2575 2 3.55528 6.83018 -0.183418
1084 2 1.75974 16.0866 0.0506635
506 3 -0.00446009 3.56999 18.0173
2585 1 3.70932 14.3268 0.0325361
579 1 3.57593 10.9466 -0.0550127
1142 2 1.99422 12.612 17.889
1130 1 12.5094 1.53994 18.1409
1068 2 16.2797 1.86011 0.128968
3149 2 15.9806 16.1002 17.8295
3076 3 12.2702 9.20423 0.127301
3070 1 9.15373 5.38589 -0.0570621
2754 3 3.70011 18.1182 21.4905
3639 3 1.99433 0.0935908 26.7452
2127 1 3.89115 1.83214 19.8764
64 3 6.89336 1.72094 19.792
3126 2 5.2509 1.84522 21.55
526 1 3.43442 -0.0268475 24.8835
510 3 14.4166 3.68925 18.1892
1629 2 9.00764 3.47385 19.6758
1129 2 8.94154 1.91305 21.4974
819 3 18.0532 3.65181 18.0891
2128 2 10.818 1.68999 20.0303
65 2 14.3273 1.6494 19.7593
2174 1 -0.0347421 16.2106 30.5656
1630 1 16.2996 3.72069 19.8407
1542 3 16.2354 17.7538 30.3572
337 1 17.8836 8.57584 26.6848
553 1 0.0305638 3.82133 32.0798
1628 2 1.89606 3.52158 19.6091
507 3 3.68022 3.50769 21.7356
3631 1 1.95774 7.06815 19.8027
2637 1 3.55691 7.20583 21.5183
1074 2 1.93057 8.86112 35.921
66 1 3.70061 5.33228 19.7941
3629 2 5.25013 3.81497 19.9124
2633 2 6.83878 3.48296 21.5193
2130 2 7.03658 5.41593 20.1669
3132 2 8.97441 5.39191 21.318
67 2 10.6496 5.39089 19.7272
509 1 10.6781 3.66638 21.4295
3755 2 16.3202 17.9093 19.6331
3630 1 12.7732 3.5361 19.7483
1135 3 12.5952 5.42822 21.6061
515 2 14.4876 7.28671 21.5852
1632 3 12.553 7.03551 19.8184
3133 2 12.6829 5.22355 18.1786
3084 2 5.51373 16.2655 35.8214
2131 1 14.5308 5.45213 20.0749
3633 1 16.1808 7.25073 19.5955
730 2 14.1934 18.1259 28.7962
3640 3 5.43178 -0.137676 23.3658
1137 3 1.88806 9.29026 21.2291
861 2 17.9338 14.2832 28.6301
2149 3 0.090792 8.98573 23.5264
2132 1 3.69527 8.88831 19.7827
1631 1 5.18258 6.9579 19.8375
69 2 7.33134 9.04704 19.7596
3136 3 5.39482 9.00817 21.6149
3135 2 1.86042 9.05539 18.0691
113 2 0.212335 1.91586 34.0506
3632 1 9.15707 7.33349 19.6461
1634 3 9.24591 10.7753 19.9635
2573 1 14.3863 3.65198 36.0259
742 1 10.8464 18.1109 32.1767
2133 2 10.9049 8.77331 19.7331
3635 2 12.7011 10.979 19.7443
70 3 14.256 9.09589 19.805
3138 1 12.626 8.95147 21.4873
871 1 17.9428 10.5802 31.7579
2531 2 17.8405 7.06207 25.1646
1141 2 16.184 8.92074 21.6088
1136 3 16.0109 5.33097 18.0318
1072 2 12.7769 5.26807 35.8504
1633 1 1.86537 10.7623 19.5101
71 2 3.66279 12.6151 19.598
1687 1 12.6394 14.1958 33.8513
3636 1 1.90672 14.2533 19.5848
3140 3 1.88668 12.4649 21.3371
2144 3 -0.109294 5.40365 26.9392
3634 2 5.35097 10.7259 19.6298
1636 2 5.6028 14.1326 19.8128
1143 2 5.48176 12.488 21.3115
2643 1 7.17647 10.787 21.3238
2647 3 3.75104 14.5353 21.2608
2326 2 17.9244 1.84661 23.1932
2135 3 7.63446 12.5736 19.8182
2649 3 10.7233 14.3191 21.1796
72 1 10.6823 12.3656 19.6453
1637 1 12.7036 14.2983 19.7646
3766 2 5.39178 18.1379 23.3596
1635 2 16.0452 10.743 19.8938
2645 2 14.1934 10.8897 21.6322
2136 2 14.3266 12.6401 19.7814
3144 1 16.301 12.7981 21.6683
3676 1 2.01926 0.0605416 33.934
3769 3 8.95524 18.1547 26.9434
3792 2 12.5249 18.0306 30.4925
2137 1 3.86143 16.2194 19.6995
3146 1 5.42204 16.3247 21.6722
74 1 7.2485 16.19 19.9063
523 1 7.18545 14.6417 21.3021
856 2 17.9678 7.21805 28.5614
2666 1 0.0446127 3.60546 28.7293
1146 3 15.9655 12.5469 18.0072
1677 2 12.625 0.0263238 33.9596
3637 3 8.89414 14.51 19.5331
1149 3 8.96377 16.3545 21.435
353 2 17.9178 5.31976 30.2005
2138 1 10.6743 16.32 19.7135
75 1 14.4072 16.0171 19.7335
1554 3 12.5541 17.682 34.1073
3638 3 16.0765 14.3366 19.7477
520 1 14.3026 11.0006 18.0898
125 1 14.51 15.9318 33.9519
1639 3 5.3906 -0.0307333 26.8116
2351 2 18.3615 1.68087 30.4734
1127 2 1.81417 2.05546 21.3833
77 2 3.47675 1.759 23.3108
2627 3 3.58873 -0.0832378 21.6689
2371 3 17.8162 12.4435 33.8173
1152 2 5.51073 1.77176 25.1783
2141 3 7.16117 1.71438 23.471
1644 1 5.5213 3.54026 23.202
2154 1 0.24468 12.5572 26.6678
529 2 7.34851 3.67757 25.002
3646 2 9.05064 3.58988 23.2298
79 3 10.7573 1.80307 22.9948
3151 2 8.89924 1.75839 24.9785
3128 3 12.6184 1.69964 21.4248
3665 3 12.7292 0.000749365 30.3165
1153 3 12.5233 1.8813 24.806
1646 3 12.6659 3.60113 23.1455
1080 2 5.38691 12.2705 35.9413
2143 1 14.3779 1.84749 22.986
1131 3 16.2263 1.85693 21.3586
3152 2 16.1482 1.73013 24.8511
3648 2 16.0949 3.6115 23.5272
1521 3 16.0759 17.9679 23.2508
3130 3 1.84926 5.33055 21.679
3644 3 1.76673 3.58627 23.2219
1648 3 1.90126 7.08493 23.3
1154 2 1.76165 5.3633 25.1044
1133 3 5.33223 5.54735 21.6575
2145 3 3.47477 5.43174 23.576
83 3 7.20405 5.40786 23.1184
3650 1 5.43404 7.15961 23.2662
2639 1 10.8328 7.18044 21.3781
2147 2 10.6229 5.4707 23.3357
2655 1 10.5547 3.70364 25.1374
3154 2 12.4148 5.42369 25.07
3652 3 12.5841 7.23138 23.1534
2635 1 14.2294 3.48208 21.5646
85 2 14.4175 5.57414 23.2779
3134 2 16.3514 5.38337 21.6164
1652 2 16.1489 7.33017 23.508
3654 3 1.66237 10.844 23.4329
87 1 3.55993 9.23354 23.5275
3155 3 1.90989 9.10605 25.0864
2188 3 10.6326 16.0124 34.0926
2151 3 7.22467 8.98304 23.2001
2659 1 3.61907 10.8432 25.2843
534 3 7.28034 10.7762 24.6954
513 1 7.31033 7.56113 21.3066
1139 3 9.31371 9.06225 21.6932
1650 2 8.87953 7.09163 23.3621
3156 1 8.96123 8.93057 25.0003
89 1 10.5546 9.14726 23.6053
1158 3 12.5159 8.9038 25.008
2660 2 10.7482 11.1453 25.1104
1656 3 12.5239 10.9684 23.3016
535 1 14.3813 10.8239 25.1524
2658 1 14.3404 7.16868 25.1336
573 1 -0.121685 7.29987 35.7282
2153 2 14.5424 9.11654 23.1752
3658 3 16.087 10.8473 23.4286
517 2 3.60677 10.8348 21.4221
1159 2 2.02571 12.982 24.9947
1654 2 5.47698 10.9347 23.189
2155 1 3.60574 12.5257 22.9565
93 2 7.03874 12.6896 23.1569
3142 1 9.0357 12.6662 21.7558
519 2 10.8482 11.0359 21.6138
3656 1 9.02051 10.8842 23.0043
1160 1 8.93539 12.7889 24.6441
2157 2 10.7788 12.8204 23.295
537 2 10.8133 14.746 25.1217
1145 2 12.6655 12.6556 21.5135
3159 1 12.4049 12.915 25.08
3662 1 12.4324 14.5795 23.2507
95 3 14.3809 12.664 23.2144
1161 2 16.1339 12.7637 24.9507
1662 3 16.2098 14.3403 23.367
368 1 18.0497 9.09398 33.6435
3773 2 16.2768 17.8573 26.7425
1147 3 1.74055 16.2568 21.2838
1658 2 1.91145 14.5135 22.9789
97 1 3.68431 16.2396 23.1894
3160 3 1.63306 16.1425 25.0084
3660 2 5.29069 14.2777 22.8709
2161 1 7.20053 16.112 23.198
536 1 3.69152 14.5449 24.9125
1162 1 5.42871 15.9802 24.7729
1660 2 9.06655 14.5235 23.4154
99 1 10.9188 16.3371 23.1801
3066 1 12.2983 1.94589 35.8132
525 2 14.2195 14.4542 21.4807
3148 3 12.5087 16.358 21.2785
2163 3 14.4553 16.1737 23.1382
1140 2 12.5558 8.97656 18.2181
1151 3 16.1535 16.0783 21.5575
3162 1 16.3152 16.1578 25.0971
1517 2 9.01698 18.0339 23.4264
124 3 7.14659 16.1132 33.9464
1686 1 5.56933 14.436 34.0956
3150 2 1.78694 2.01077 25.0218
1164 3 1.81141 1.7153 28.5635
2140 1 3.53321 1.71143 26.7279
1643 3 1.80246 3.6756 26.7196
541 2 3.65811 3.83777 28.4862
2667 3 7.00353 3.62662 28.7062
3645 2 5.40508 3.4967 26.8294
313 2 18.1918 1.77461 19.7418
78 1 7.10927 1.68899 26.8039
1645 2 8.79986 3.64278 27.1565
2142 3 10.4221 1.82222 27.0033
3751 3 1.84571 18.0838 19.6424
80 1 14.3826 1.71822 26.7987
3164 2 12.5725 1.90441 28.5335
2668 1 14.3536 3.71326 28.7322
3770 1 12.6298 18.2926 23.111
530 3 14.2002 3.62845 24.8537
76 1 0.211431 1.903 26.784
1647 2 15.8876 3.4897 26.6207
1166 2 16.059 1.83741 28.6562
2652 2 7.19976 -0.166578 25.142
531 1 3.61082 7.38348 24.9847
2654 2 3.72237 3.83462 25.044
3649 3 1.94496 7.13851 26.6992
3165 1 1.92403 5.49568 28.5704
2159 1 -0.0391861 16.5638 23.2879
3153 2 5.69406 5.26226 25.1233
82 3 3.59648 5.56892 26.7515
1167 1 5.33526 5.33891 28.6612
2146 2 7.00767 5.34849 26.9778
2657 3 7.2897 7.1893 25.1478
544 2 7.42467 7.37607 28.5288
1155 2 8.80941 5.42707 25.0972
3166 3 9.04651 5.49238 28.7722
2670 2 10.8505 7.26476 28.578
3647 3 12.3433 3.81131 26.8631
84 2 10.6893 5.41608 27.0352
2148 2 14.263 5.36596 26.7183
1168 3 12.4996 5.35896 28.5052
1156 2 15.9461 5.35841 24.7668
545 1 14.2479 7.23339 28.5409
3653 2 15.9839 7.03327 26.8062
3167 3 16.0117 5.41286 28.4687
3664 1 5.46612 -0.107623 30.3714
2150 1 3.67823 8.84186 26.8838
2669 3 3.88603 7.2501 28.5523
1653 3 1.93025 10.6743 26.951
3686 3 1.99785 14.5606 33.9375
1157 2 5.58621 9.10471 24.7972
1649 2 5.62488 7.14402 26.7464
3168 2 5.47332 9.0301 28.6041
88 2 7.06276 9.00552 26.7067
3651 2 9.0108 7.18231 26.9519
2152 1 10.9015 8.98405 26.9947
1655 2 8.90717 11.0083 26.7643
1170 1 9.33533 9.27656 28.4259
547 1 10.9776 10.7963 28.6201
532 3 10.8476 7.23256 25.1065
1651 2 12.4545 7.14038 26.7772
3657 1 12.3974 11.0983 26.8065
2673 2 14.2724 10.8813 28.3986
3157 2 15.9852 9.15875 25.3716
90 3 14.0103 8.90326 26.9169
1171 2 16.0452 9.07943 28.1444
92 1 3.52439 12.8286 26.6422
3170 2 1.79893 12.6302 28.558
3659 3 1.95709 14.6353 26.7744
3158 3 5.3902 12.7835 25.0655
2662 2 7.25551 14.6311 25.0606
3655 2 5.25576 10.6955 26.9527
2156 3 7.25032 12.5581 26.758
1172 3 5.30347 12.5865 28.2626
94 3 10.8027 12.7986 26.7341
3661 1 8.6142 14.4538 26.8764
3171 2 9.19943 12.7225 28.5189
2663 2 14.5269 14.3294 25.0744
2675 1 10.7835 14.5324 28.4396
1173 1 12.5203 12.8554 28.3187
2158 3 14.4259 12.6875 26.8024
3185 1 2.04068 16.2231 32.0213
3803 1 9.23167 17.9798 33.9362
1657 1 16.3872 10.9232 26.9238
2187 1 3.77137 16.2368 33.9478
2160 2 3.62472 16.155 26.8061
2674 1 3.65896 14.6689 28.3808
740 3 3.57108 17.8938 31.9875
1659 3 5.46615 14.4919 26.7929
3161 1 9.21217 16.3359 25.1339
98 1 7.07999 16.3311 26.8074
2162 2 10.7991 16.4607 26.8677
1175 1 9.04531 16.0098 28.4532
2561 1 17.9616 14.2834 32.2662
1163 1 12.6137 16.2358 24.9006
1661 2 12.4663 14.4939 26.7316
3174 2 12.5396 16.2774 28.6678
825 2 17.776 7.25538 21.4988
550 2 14.5644 14.4097 28.5695
3663 1 16.0829 14.4794 27.0352
100 2 14.4405 16.0748 26.8839
1176 3 16.1973 16.0816 28.6227
101 3 3.62264 1.67729 30.3863
3175 2 1.73301 1.83304 32.1651
2679 1 3.48862 3.79369 32.2774
3163 2 5.2505 2.00354 28.7281
2165 2 6.93462 1.80417 30.4819
1666 3 5.5052 3.68383 30.585
1165 2 8.72021 1.737 28.6159
3176 2 8.80272 1.95116 32.2108
102 2 10.8079 1.85819 30.2542
2792 1 10.9126 17.8256 28.6096
1070 1 5.40777 5.34161 35.531
542 1 10.7565 3.62615 28.5387
1667 3 12.5576 3.53424 30.1488
2678 3 14.4921 0.083682 32.2922
331 3 17.9333 5.47115 23.4589
2166 3 14.4333 2.01271 30.4339
3177 2 16.0592 2.00299 32.078
555 2 14.442 3.8176 32.1388
3668 3 16.0907 3.77198 30.1405
1134 1 8.96716 5.42665 18.2817
3666 3 1.95159 3.82805 30.3216
1668 2 2.10982 7.12692 30.1957
2167 2 3.91338 5.62506 30.2861
2640 2 14.4183 7.33923 18.0626
104 2 7.36479 5.46671 30.3071
3669 2 5.43904 7.37332 30.4202
3178 1 5.59419 5.78944 32.1581
556 2 3.72891 7.36886 32.1169
3667 2 8.97111 3.56289 30.2716
1669 2 9.09144 7.35341 30.4387
2168 3 10.7882 5.3596 30.5888
2680 1 10.9645 3.4983 32.2136
105 3 14.3475 5.55602 30.2429
3179 3 12.7329 5.49731 32.1213
3670 2 12.5795 7.21158 30.4174
1181 2 16.2514 5.58586 32.0785
1670 3 16.2915 7.1449 30.3557
103 3 0.245893 5.43181 30.2301
2683 2 14.3524 7.45481 32.3279
3685 3 12.6714 10.8705 33.8161
2183 1 10.7621 8.84075 33.7838
1169 3 1.89763 8.86821 28.6425
3180 1 1.9089 9.17892 31.8371
3671 3 1.96931 10.8773 30.2868
106 2 3.84609 8.97207 30.1002
2682 3 7.25122 7.47426 32.0366
1671 1 5.57734 11.0177 30.2875
1182 2 5.37189 8.96144 32.1716
2672 3 7.24893 10.8082 28.444
2170 2 7.44899 9.11255 30.1952
3181 2 9.17703 9.0483 32.1278
107 1 10.7908 8.78517 30.3765
557 3 10.9304 6.92967 32.2322
3169 3 12.6236 9.04775 28.881
2171 1 14.3799 8.69659 30.2071
1183 2 12.399 8.93157 32.3666
2685 1 10.6567 10.8041 32.1228
327 2 17.8567 1.97037 26.9647
3687 1 8.55025 14.0917 34.0315
3673 3 16.2243 10.5121 30.1587
3182 2 16.0788 8.93271 31.9151
3683 3 16.0959 7.28514 34.0125
2172 1 3.55898 12.8504 30.021
2684 2 3.63369 10.7872 31.9236
1184 2 1.85292 12.7139 32.1109
546 3 3.60416 10.7968 28.5786
1673 3 1.79993 14.4138 30.3325
3674 3 5.32494 14.14 30.2509
3672 2 8.97346 10.9137 30.0977
109 1 7.36699 12.5022 30.0434
2173 1 10.9509 12.6518 30.3738
1185 3 9.15821 12.5081 32.1686
559 2 7.43168 10.8114 32.0563
560 1 14.5744 10.4053 32.2524
1672 3 12.6821 10.5778 30.4666
110 1 14.3523 12.6982 30.3557
3675 1 12.8073 14.4679 30.408
2688 1 14.5646 14.3261 32.2204
3184 3 12.5936 12.5153 32.1417
3172 2 16.0359 12.4104 28.5643
1186 2 16.1518 12.3431 32.161
1675 1 16.1674 14.1894 30.5688
1174 2 1.68906 16.1115 28.5738
111 1 3.62818 16.1696 30.2999
3688 2 16.2281 14.1846 33.8024
3068 2 1.70505 5.36962 35.6896
1187 3 5.63305 15.9295 31.8979
549 3 7.12919 14.2938 28.6455
3173 1 5.51478 16.1806 28.588
2175 3 7.29773 16.1286 30.3524
3186 1 9.07333 16.0924 32.144
562 3 10.7779 14.2119 32.3578
2687 3 7.39644 14.2284 32.0738
1674 3 9.11746 14.2895 30.339
112 3 10.7129 16.1341 30.5124
1684 2 8.99715 10.7052 33.9367
2801 2 0.00280534 17.9661 32.3013
1188 1 12.4639 16.1006 32.267
3187 3 16.1771 16.0048 32.114
1683 3 2.19134 10.8048 33.8854
1552 3 5.43192 17.8248 33.7881
2176 3 14.3449 16.2833 30.1039
1504 1 12.6895 18.2075 19.7769
2182 1 3.59447 8.93876 33.7484
2805 3 14.2681 17.7366 32.1942
1678 1 1.75721 3.5933 33.9677
358 2 18.0456 12.4245 30.5106
2177 3 3.43093 1.99238 34.041
1177 2 5.4887 1.809 32.3613
120 3 14.3073 8.98797 34.0433
3677 2 9.0416 0.0931311 33.8858
3684 3 5.42022 10.6322 33.8759
3682 2 8.99496 7.35657 34.0064
114 3 7.20159 1.67621 33.9151
2185 2 7.12616 12.5593 33.9279
2178 3 10.7692 1.80108 33.9532
1178 1 12.4713 1.92639 32.1811
115 3 14.3268 2.04052 34.1236
3183 3 5.47974 12.5763 32.3953
527 2 10.5467 0.0240606 25.0715
119 2 7.01929 8.89794 33.713
1680 1 16.1495 3.63687 33.7345
1179 1 1.79425 5.52496 32.179
3681 1 1.66073 7.37522 34.0297
1685 3 16.0983 10.6475 33.8555
561 3 3.72749 14.5385 32.0722
2186 1 14.518 12.3317 33.9476
554 1 7.14086 3.80347 32.1698
3679 2 5.36245 3.80762 33.9896
116 1 3.39568 5.57383 33.604
2180 2 7.41693 5.48264 33.7654
1681 2 5.48124 7.00603 33.8729
548 1 -0.0379251 14.4055 28.4039
121 1 3.65486 12.6727 33.8772
122 1 10.7405 12.5054 34.031
1679 1 8.79122 3.46158 34.1382
1180 1 8.85544 5.36732 32.2146
3680 3 12.6541 3.53326 33.9132
117 3 10.9652 5.42253 33.9826
1682 2 12.6087 7.13501 33.9834
512 3 3.60771 7.22772 17.9373
2181 2 14.3771 5.48397 33.8598
3642 2 12.616 0.0427645 23.41
1064 3 1.83387 2.01496 35.7242
3131 3 5.57895 5.35026 18.0777
569 2 3.59017 3.80702 35.5584
1066 1 9.04403 2.03549 35.8709
3137 2 9.05825 8.96586 18.0522
3790 1 5.56901 18.1646 30.6501
1144 3 9.2724 12.6183 18.0246
514 3 10.9817 7.19047 17.9941
3801 3 1.98104 17.8194 34.0051
1676 1 5.24298 -0.0217564 33.947
575 1 7.01711 7.21286 35.7116
2536 2 18.1364 14.2774 25.0951
363 2 18.0622 1.95378 33.8365
2541 1 17.8623 3.6556 28.5384
846 1 17.8572 10.9903 25.1057
2356 1 18.0197 8.8851 30.2521
552 2 10.5613 0.147347 32.1783
2567 2 10.9778 -0.0978813 35.8125
540 2 14.4626 -0.172317 28.5558
2695 1 11.08 17.7347 35.9002
626 3 0.012149 17.9486 35.8026
2632 3 3.59333 3.67773 17.9189
2577 1 10.7499 7.24831 35.6905
518 1 7.29301 10.9172 18.0239
876 1 17.9986 18.0803 35.8402
1150 2 12.6093 16.1777 18.1401
2650 1 14.4536 14.3073 17.7209
585 2 7.25417 14.1885 36.0975
587 2 14.2777 14.3577 35.9399
571 2 10.9088 3.65891 35.7402
1076 1 8.96587 9.16475 35.6357
577 1 14.4386 7.01401 35.8879
3074 1 5.28807 8.77649 35.8459