ITEM: TIMESTEP
5000
ITEM: NUMBER OF ATOMS
4000
ITEM: BOX BOUNDS pp pp pp
9.1386586100298928e-02 3.5642673413899772e+01
9.1386586100298928e-02 3.5642673413899772e+01
9.1386586100298928e-02 3.5642673413899772e+01
ITEM: ATOMS id type x y z
1 3 0.172435 1.96436 1.84072
1563 1 0.0565091 0.134874 0.00859279
2064 2 1.99201 1.95143 -0.0511961
3561 1 1.85546 0.219091 1.66514
564 2 3.65421 1.73111 1.57209
565 1 7.23874 1.82899 1.76193
1565 2 7.22165 0.0377578 -0.00114617
2065 2 3.59578 0.00924854 -0.196579
3061 1 5.46365 1.88632 0.0178778
3562 3 5.4554 -0.0103637 1.73259
566 3 10.7897 1.83317 1.93457
1070 3 10.8703 0.205092 0.227034
3063 3 8.98935 0.0949891 1.91313
3062 2 8.98413 1.81427 0.0708151
567 2 14.1193 1.99881 1.77968
2566 3 14.193 0.1518 -0.0903802
3064 3 12.4698 1.86313 0.0651502
3563 2 12.5109 -0.00225451 1.85887
2 1 17.7194 0.187892 -0.144721
3 1 15.9757 0.159622 1.83463
3066 3 17.7071 1.86345 1.95678
3065 1 15.8948 1.88606 0.0846622
4 1 1.97383 5.4345 0.169553
5 3 1.93622 3.64039 1.9944
6 1 1.63232 7.14126 1.93875
1071 1 0.127256 5.43123 1.90916
3067 2 0.257502 3.51147 0.111561
3565 2 0.198658 7.23719 0.0652124
7 1 5.37463 5.6014 0.199955
8 2 3.63432 7.10395 0.265627
1072 2 7.01654 5.56381 1.71225
1075 2 5.33399 7.23559 1.90892
1074 2 3.57175 5.44694 1.91615
1567 1 7.14479 7.28115 0.0754885
2570 3 7.15295 3.72106 0.0153246
2569 3 3.81879 3.87678 0.000694203
3569 2 5.41729 3.5866 1.7467
9 2 8.8575 5.33759 0.0745385
10 1 8.85378 3.77919 1.94321
1077 3 10.6361 7.25726 0.106252
1076 3 10.7298 5.48376 1.80508
1568 1 9.02079 7.07348 1.81916
3068 1 10.6074 3.67175 0.0424559
11 1 12.3783 5.49216 0.0534695
12 2 14.2086 3.64161 -0.0180294
570 3 12.5181 3.67165 1.87185
1571 1 14.2415 7.15486 0.0662393
1570 3 14.2973 5.41531 2.03944
1569 2 12.5387 7.24275 1.95574
572 1 16.0783 3.68147 1.79856
1081 3 16.1821 7.22111 1.88448
1079 2 17.7572 5.3116 1.82126
1078 2 16.0412 5.28705 0.167683
1573 1 18.1448 3.6436 0.123817
2070 3 17.8244 7.0487 0.158145
575 2 1.78011 10.6223 1.77718
1082 2 1.79332 9.03389 0.0129092
1574 2 0.0488257 8.93878 1.99573
3070 1 0.214746 10.911 0.23581
576 2 3.70251 10.6752 -0.0281095
1085 1 5.3421 8.9924 0.0294543
1083 1 5.42796 10.7638 1.89165
1577 2 7.22849 10.6747 0.213775
1576 1 7.16544 8.96901 1.82883
1575 3 3.56672 9.10375 1.88496
14 3 10.6028 10.8338 -0.0427041
1087 1 8.90237 10.8083 1.90519
1086 1 9.00606 8.99303 0.0492309
2071 1 10.8606 9.14566 1.61921
580 2 12.2816 10.8536 1.89976
1088 3 14.6308 10.6735 0.130539
2073 3 12.6939 8.91213 0.0917745
2074 2 14.2166 8.79481 1.83619
15 1 17.9035 8.86871 1.98263
1581 2 16.0489 10.5926 2.03385
2076 2 17.7118 10.673 0.164863
2075 1 16.1639 8.83229 0.176684
2079 3 1.97315 12.5657 0.0602239
2078 1 1.9565 14.2777 1.98593
2077 2 -0.028311 12.5273 1.99522
2572 1 0.10824 14.2345 0.142229
2082 1 5.41593 14.2646 1.79426
2081 1 3.46663 12.4238 1.77977
2080 3 5.5131 12.5183 -0.00611599
2576 3 7.24726 14.3199 0.0662738
2575 2 7.23798 12.5798 1.83329
3071 3 3.739 14.1479 0.180165
1583 2 9.03795 14.4023 1.87915
2084 1 10.7163 14.405 0.0746146
2579 1 10.8092 12.4882 1.72066
3073 1 8.91528 12.6064 0.0551819
2085 3 12.4628 14.3916 1.8515
2580 1 14.2479 12.7037 1.90853
3074 3 12.6585 12.5512 0.0577026
3574 3 14.2027 14.2667 0.0921966
581 2 17.7502 12.6045 1.96547
1089 2 17.7359 14.3953 0.109826
2583 1 16.0104 14.4156 1.97547
3075 1 16.1107 12.6536 0.261429
16 1 0.242962 17.894 0.221515
2086 1 1.92873 17.8373 1.95249
2584 3 0.248719 15.9024 1.785
3076 3 1.99446 16.0332 0.163086
17 2 5.54082 16.0959 0.229743
1090 3 3.86354 17.7309 0.0470577
2585 1 7.19765 18.0074 0.0307015
3079 1 5.52945 17.7879 2.05374
3078 2 7.40059 16.2028 1.84723
3077 3 3.6123 16.0836 1.97599
18 3 8.90955 16.2574 0.175799
1585 2 10.8133 17.9734 0.19536
3080 3 10.9196 16.2298 1.87073
3578 2 9.06229 18.0255 1.93839
19 2 12.3085 16.0883 0.0204844
2088 3 14.2922 17.8996 0.0661558
3081 3 14.1641 15.9772 1.83626
3581 2 12.5144 18.0643 2.09346
20 3 15.9825 16.0893 0.0063981
1586 1 17.85 16.0922 1.86112
3083 3 15.9338 17.7351 1.90972
3082 2 17.8414 17.9048 0.30863
584 1 1.94009 1.78924 7.09891
1564 2 0.177909 0.0286251 3.6208
2588 2 2.24 0.00795677 5.32152
2563 2 1.9398 1.76806 3.69294
3084 2 0.237234 0.0405245 7.1242
3583 3 0.139535 1.87546 5.43363
22 3 5.54576 1.78669 7.12939
1069 2 3.55996 0.0068866 3.47017
1566 3 7.14322 0.211766 3.55079
2089 1 5.46622 0.154456 5.23917
2590 2 3.84364 0.184227 7.30204
2564 1 5.38865 1.72897 3.55373
3085 2 7.25307 -0.0220899 7.12023
3585 3 3.74914 1.96919 5.39155
3584 1 7.24862 2.03395 5.46627
586 2 8.99157 2.01281 7.14838
2066 3 10.6796 0.078101 3.72058
2593 1 8.8033 0.194731 5.42537
2565 2 8.8992 1.80942 3.47127
3086 1 10.729 0.191126 7.09244
3586 3 10.6478 1.78956 5.41616
23 1 12.5062 1.90816 7.07484
24 1 14.3668 0.121091 7.11093
25 1 14.1869 1.88305 5.5519
2568 1 14.1997 0.135699 3.55282
2567 2 12.3824 1.92638 3.66226
3087 2 12.3819 0.0205851 5.44301
568 3 17.8694 0.0173723 3.50692
588 1 16.1409 2.01341 7.21534
1587 1 17.8269 0.214618 7.14935
3088 2 16.077 0.0245913 5.39308
3588 3 17.7333 1.86137 5.18252
3564 2 15.8938 1.83987 3.70279
27 3 1.97437 5.36758 7.22965
28 2 1.82528 7.41471 5.62196
589 3 0.0971606 5.47961 5.46579
2067 2 0.241318 3.55026 3.80184
3090 3 1.8488 3.57577 5.70239
3590 3 0.111379 7.23046 7.16163
3589 1 0.131073 3.62626 7.22037
3567 1 -0.061263 7.16212 3.86358
3566 1 1.84073 5.45816 3.54869
29 1 3.66841 3.67058 7.14784
593 2 3.55725 7.27049 7.16692
592 3 7.08162 5.44829 5.54953
591 3 7.31548 7.30052 7.06254
590 3 3.76549 5.45498 5.40801
1095 2 5.33533 5.44044 7.28651
1094 2 5.37984 7.32499 5.38529
1073 3 3.49923 7.21748 3.70918
2068 1 7.27931 7.18963 3.52728
2069 3 3.65786 3.83335 3.70562
3593 1 5.5003 3.72441 5.43347
3592 3 7.03501 3.72303 7.14985
3570 3 5.44615 5.66647 3.68487
3568 2 7.02054 3.72746 3.57203
31 1 8.99203 3.47439 5.37279
569 2 10.78 7.2705 3.5588
594 2 10.7446 5.36507 5.48022
1097 1 8.9085 5.56108 7.20346
1590 3 8.99358 7.15427 5.35492
1589 3 10.6981 7.24594 7.30643
3594 1 10.6723 3.60257 7.12054
3572 2 10.6309 3.68131 3.60269
3571 1 8.81197 5.41101 3.63276
33 1 12.3716 3.75004 5.43747
35 1 14.3083 3.5454 7.2715
571 3 12.4384 5.48165 3.64258
595 2 14.3701 7.18799 7.22462
1100 2 14.2098 5.2715 5.39357
1099 3 12.5321 5.41721 7.09571
1592 2 12.5645 7.30853 5.42057
1572 2 14.2324 7.10597 3.76551
3069 1 14.2591 3.57066 3.71779
573 2 16.0195 5.4222 3.72
1080 3 17.7867 3.60856 3.65765
1595 2 15.9293 7.20378 5.55411
1594 1 16.1528 5.26663 7.26358
2094 1 17.9642 7.22629 7.24795
2092 1 17.9628 3.73779 7.35011
2571 2 17.7094 7.17075 3.74243
3092 1 17.8884 5.4763 5.45171
3595 2 16.0608 3.69322 5.45058
13 3 -0.103143 10.7611 3.593
597 3 0.167927 10.813 7.07205
596 2 2.04123 10.7013 5.35647
574 2 1.76067 9.12842 3.73441
1102 1 1.85637 9.01785 7.20229
1101 3 0.0203247 9.11953 5.49963
38 3 3.81857 10.6671 7.03781
578 2 3.52885 11.0188 3.54175
577 3 5.51234 9.15316 3.43609
1106 3 7.18973 10.8018 7.06246
1104 1 5.56858 10.8217 5.43383
1103 3 3.76315 9.06568 5.21872
1084 3 7.28599 10.8755 3.5665
1597 3 7.16842 8.82005 5.36913
1596 1 5.37946 8.82035 7.17286
39 3 11.0476 10.792 7.25447
599 2 9.04943 10.7761 5.4203
579 1 10.7667 10.8508 3.63073
1107 2 9.05564 9.11828 7.12273
1578 1 9.07252 8.89667 3.51751
2097 1 10.6801 8.86262 5.43147
1108 2 12.6586 10.7529 5.38938
1598 1 12.737 8.95866 7.08426
1579 3 12.4833 8.95768 3.62631
2072 1 14.2816 10.8054 3.56175
2099 3 14.2981 10.7985 7.20917
2098 2 14.2236 9.03882 5.2695
1599 2 16.1489 9.07995 7.31854
1580 3 15.955 8.82214 3.68691
2100 1 16.1312 10.6664 5.18191
3093 3 17.9319 10.7136 7.33015
3597 1 17.8413 8.91891 5.19729
3573 1 17.7576 10.7482 3.39315
1110 3 0.151487 14.3825 7.32942
1582 3 1.82792 12.5576 3.54834
2103 3 1.97356 12.5755 7.18703
2102 1 2.00213 14.3887 5.55851
2101 3 0.123872 12.5563 5.36655
2573 2 0.179209 14.2877 3.54942
1112 2 7.30708 14.3963 7.32143
1600 2 5.51834 12.5584 7.17983
2104 1 5.46992 14.19 5.56695
2083 1 3.77754 14.2588 3.82316
2601 3 7.25858 12.6607 5.46102
2600 3 3.61659 12.4741 5.4554
2599 2 3.7173 14.336 7.43204
2577 3 7.28283 14.405 3.62709
2574 2 5.39424 12.5611 3.48329
2604 1 9.11163 14.3928 5.4107
2603 2 10.6976 14.2007 7.19266
2602 1 10.8932 12.5471 5.38564
2578 2 9.08592 12.5659 3.56391
3097 3 8.85918 12.6074 7.19744
3072 1 10.6642 14.3011 3.76796
602 3 14.3085 14.3021 7.20083
1603 3 12.7251 12.6315 7.13893
2605 2 14.2279 12.6631 5.36908
2581 3 12.4259 12.5578 3.58719
3098 3 12.3841 14.2447 5.42208
3575 2 14.255 14.3741 3.76887
1114 1 18.1286 12.6188 5.31755
1584 1 17.622 14.3043 3.47146
2582 2 16.0298 12.4821 3.65519
3100 1 16.0846 14.262 5.38032
3099 1 16.1612 12.3752 6.8043
3599 3 17.7208 14.3724 7.04551
582 2 0.103249 17.8321 3.59828
1605 3 1.94043 17.9402 5.53232
1604 3 1.8255 16.1772 7.20671
3104 1 0.156683 16.123 5.55901
3103 2 0.0718462 17.8328 7.07271
3576 2 1.81873 16.0908 3.74619
2087 2 3.66294 17.9055 3.76265
2607 1 5.37948 17.8805 5.62821
2586 2 7.25821 17.7024 3.88155
3107 2 7.19596 17.7967 7.17878
3106 3 5.47061 16.012 7.29633
3105 1 3.64561 17.9258 7.42101
3602 1 3.66451 16.0793 5.58229
3601 3 7.23339 16.0644 5.65316
3577 2 5.45145 16.0274 3.7215
1091 1 10.6416 18.0192 3.67544
2107 1 8.98791 16.019 7.27852
2608 3 8.99276 17.9039 5.43146
3109 2 10.8708 17.9434 7.10082
3603 2 10.8649 16.1598 5.39728
3579 3 9.16122 16.1707 3.68644
41 3 14.2982 16.0538 5.47128
2610 1 12.5267 17.9489 5.42242
2609 3 14.246 17.7815 7.23702
2587 2 14.2511 17.8087 3.61998
3604 1 12.5057 16.1478 7.10708
3580 2 12.411 16.2408 3.5419
583 3 15.9378 16.1835 3.73491
1606 1 17.7143 17.8423 7.19773
2109 2 15.9549 16.1343 7.28318
3112 2 16.0636 17.8449 5.64058
3110 3 17.8767 16.0809 5.40029
3582 3 17.6897 17.7478 3.6002
21 3 0.115407 2.02525 8.89527
604 3 0.376237 0.254323 10.8456
2110 3 2.07939 1.87404 10.7388
2589 1 2.04141 0.12359 8.91944
585 2 7.19103 1.94542 8.91612
1092 2 5.3555 0.159068 8.99466
1608 3 7.23099 0.146814 10.6144
1607 1 3.59672 0.112238 10.6943
2111 2 5.50228 1.93302 10.7754
2591 1 3.70998 2.05137 8.98038
1116 2 10.811 0.152104 10.5669
2612 3 9.14079 1.91209 10.6992
2592 1 10.6381 2.04404 8.90896
3587 1 8.96083 0.173274 8.97286
587 1 14.3526 1.90692 8.88465
1609 2 14.3513 0.0975734 10.8389
2090 2 12.5606 0.187067 8.80339
2613 1 12.409 1.81707 10.6125
26 1 16.1705 -0.0298734 9.09087
2594 3 17.7675 1.96313 8.87691
3116 1 16.0036 1.80818 10.7079
3115 3 17.8826 0.0820955 10.8242
1093 3 1.83386 7.08709 8.87662
2091 3 1.97298 3.57028 9.01844
2615 2 0.176749 3.77549 10.9027
3118 2 0.0173626 7.15356 10.6023
3117 3 1.85628 5.37895 10.6846
3089 2 0.0415691 5.32263 9.10242
30 3 5.52261 3.61471 9.09714
45 3 7.35661 7.37685 10.8497
1096 2 3.6306 5.31625 9.14674
2112 3 7.39735 3.58116 10.6888
2616 1 3.73508 3.61407 10.8948
3091 2 7.44671 5.64358 9.18945
3608 3 3.77993 7.46483 10.7211
3607 3 5.57834 5.21087 10.7668
3591 1 5.58802 7.22382 8.91591
46 1 10.6762 7.11611 10.6987
1098 2 10.9596 5.37136 8.99689
1591 3 9.06452 3.78305 8.79611
1588 2 9.15883 7.25624 8.95533
2113 1 10.6657 3.68943 10.7698
3609 2 9.21402 5.51215 10.7687
32 3 12.5933 7.10581 8.93972
34 1 12.7056 3.79428 8.92443
36 3 14.5053 5.46373 9.0587
609 1 14.5173 7.09154 10.8909
3119 2 14.2427 3.69875 10.7776
3611 1 12.698 5.60083 11.0575
1120 1 17.801 3.7051 10.8386
1615 1 17.6135 7.15518 11.0032
1593 2 17.9022 5.40268 9.14626
2093 2 16.119 7.10536 8.93478
2595 2 16.064 3.58968 9.25277
3612 2 15.9149 5.49493 10.9548
48 1 1.92965 8.91312 10.6601
2095 1 0.111034 8.96933 9.00671
2596 2 1.97312 10.7453 8.91783
3120 1 0.0660079 10.8763 10.6699
37 3 3.73665 9.14166 8.90188
49 1 5.46338 9.0512 10.798
612 2 7.40763 10.5769 10.7248
1105 3 5.61437 10.6228 9.09188
2096 3 7.41513 8.94873 8.96272
3121 2 3.65306 10.6933 10.7608
613 1 9.2302 9.07007 10.8092
598 2 10.9188 8.95974 8.90402
3613 1 10.8965 10.6734 10.8539
3596 2 9.15816 10.6196 9.14719
50 2 14.3393 10.696 10.7772
614 1 12.5696 9.21358 10.7355
2598 3 12.4915 10.953 9.12337
2597 1 14.2627 9.07368 8.87934
51 1 17.865 10.7775 10.9204
600 2 17.7412 9.08147 9.16967
1122 1 16.031 9.26649 10.5672
1109 2 16.0609 11.0311 8.89786
616 1 0.210302 14.255 10.8387
601 1 0.191535 12.5149 8.88425
1123 2 1.94405 12.3677 10.8872
3094 3 2.00942 14.2991 9.11911
1124 1 5.55974 12.2661 10.7576
1111 2 5.5392 14.0874 9.00663
1619 1 7.15805 14.3356 10.7111
1618 1 3.65181 14.1104 10.7894
1601 3 7.31514 12.3596 9.13761
3095 3 3.8487 12.4981 9.04568
617 3 10.6714 14.4127 10.892
1125 1 8.95724 12.6318 11.0177
3096 2 8.89946 14.3281 9.09513
3598 3 10.539 12.4351 9.04705
1126 2 14.3807 14.1549 10.8245
1113 3 12.4698 14.1431 8.95475
1620 3 12.5539 12.4451 10.8599
1602 2 14.3559 12.4781 8.97696
1621 3 16.0729 12.6097 10.922
3126 1 17.9411 14.1752 10.6793
3102 2 16.1674 14.3812 8.98087
3101 3 17.7884 12.6044 8.81649
1623 1 0.160794 17.7937 10.841
2119 3 1.92156 15.9523 10.8943
2606 2 1.66772 17.7083 9.30185
3600 3 0.190999 15.9143 9.01069
40 2 7.09633 16.11 9.0339
619 2 3.67518 17.7219 10.7926
1127 1 7.13152 17.6727 10.7982
2120 1 5.26432 15.8121 10.9071
2106 1 3.63561 16.1041 9.06046
2105 1 5.65867 17.9815 8.84084
1624 1 10.8051 17.9557 10.6716
2108 3 10.7143 16.0124 8.92166
2625 1 8.91835 16.0096 10.6885
3108 3 9.0032 17.7924 8.77515
603 2 14.2446 15.8778 9.03934
1115 1 12.5134 17.8581 9.06433
2626 3 12.565 16.0197 10.8765
3620 1 14.3106 17.7507 10.703
2628 2 16.0591 16.0869 10.8322
2611 3 17.808 16.1815 9.01142
3127 2 17.7739 17.8638 10.7651
3111 1 15.9968 17.7749 9.03247
42 3 0.277242 1.92421 12.3768
2121 1 0.313442 0.467196 14.2329
2629 1 1.98852 1.83746 14.2935
3113 3 1.92615 0.0758849 12.633
43 3 3.69989 1.87835 12.5414
605 1 7.26573 1.744 12.5981
1625 3 7.17552 -0.00202133 14.3682
2123 2 3.69234 -0.10789 14.2569
3128 2 5.68817 1.90577 14.4316
3605 1 5.35986 0.164768 12.5579
606 3 10.6633 2.01413 12.583
1627 3 10.6541 -0.0618363 14.3891
3129 3 8.93049 1.8759 14.2961
3606 3 8.89118 -0.0524014 12.5759
1117 3 14.3448 1.81154 12.3802
2632 3 14.3772 0.184863 14.2352
3131 2 12.5614 1.84504 14.3267
3114 3 12.2314 0.17472 12.6159
44 3 15.8632 0.0841327 12.3982
501 3 18.0816 0.107106 14.2318
2614 2 17.8634 1.78999 12.5258
3132 1 16.2289 1.68202 14.4112
607 2 1.92753 3.52751 12.5646
1119 1 1.93041 7.326 12.4305
1118 2 0.172295 5.66624 12.4235
2634 2 0.320813 7.12757 14.314
2633 3 0.192273 3.7346 14.217
3624 1 2.18945 5.55124 14.0621
60 2 7.20146 7.09361 14.3234
608 1 5.64986 3.65152 12.5416
1612 3 7.30329 5.51337 12.6701
1611 3 5.39037 7.29082 12.5323
1610 1 3.65539 5.51604 12.4929
2128 1 7.2836 3.63602 14.2719
2126 1 3.52895 3.56912 14.1655
3136 3 3.72441 7.33084 14.3094
3626 1 5.48361 5.33571 14.2852
1613 1 10.7926 5.36556 12.7429
2114 2 9.21564 7.28621 12.5623
3137 1 10.7153 3.63171 14.3095
3629 2 9.01804 5.41148 14.4423
3628 2 11.0298 7.1235 14.4014
3610 1 8.6605 3.57135 12.72
610 2 12.5244 3.59673 12.6605
1614 2 14.3993 5.25381 12.692
2617 2 12.6748 7.21628 12.6651
3138 1 14.1864 3.35659 14.4916
3631 3 14.3743 7.26744 14.3821
3630 1 12.6815 5.37065 14.3668
47 2 17.9142 5.44853 12.5328
65 1 16.2137 5.63253 14.5888
1138 3 18.0423 3.53545 14.3104
1121 1 16.0309 3.61399 12.5974
2618 3 16.0649 7.133 12.6831
3140 2 17.9413 7.30469 14.378
67 2 1.97779 8.9656 14.1436
611 3 1.98913 10.8206 12.6004
2115 1 0.0685515 8.97277 12.2957
2636 3 0.202816 10.8594 14.2251
69 3 7.27717 10.8078 14.33
70 2 5.60882 9.04879 14.3632
1616 1 5.51415 10.9283 12.6868
2116 1 3.67985 8.98415 12.5222
2619 3 7.24724 9.13616 12.6781
3633 2 3.76392 10.8563 14.4729
71 3 9.11699 9.04985 14.4457
2117 3 9.06913 10.881 12.7851
2620 3 10.9047 9.08947 12.6737
3141 3 10.9144 10.7154 14.3685
510 3 12.5683 8.92827 14.4341
1617 1 12.6094 10.7356 12.709
3122 2 14.3694 8.87858 12.4001
3635 2 14.3584 10.6206 14.3767
511 3 16.1301 9.05138 14.3667
615 1 17.6921 9.06359 12.3736
1639 3 17.822 10.8458 14.3794
2118 3 15.9631 10.7658 12.672
513 3 0.147844 14.239 14.4155
514 3 1.92099 12.5909 14.1633
2621 2 0.00627582 12.472 12.3927
3123 2 1.93769 14.2572 12.5817
72 3 7.34914 14.2889 14.3952
515 3 5.49184 12.6157 14.3423
516 3 3.58123 14.1449 14.4465
3125 1 7.40497 12.5403 12.5628
3124 2 3.75328 12.5252 12.5393
3614 3 5.54328 14.3311 12.6025
73 2 10.7522 14.317 14.3347
1145 3 9.13159 12.5732 14.5075
3616 1 10.817 12.5198 12.5093
3615 1 9.12087 14.3445 12.5975
1147 3 12.432 12.5822 14.5749
1146 3 14.2851 14.2753 14.3203
2622 2 12.4668 14.2878 12.5416
3617 3 14.2185 12.676 12.5725
1149 3 15.9972 12.5974 14.3056
1622 3 17.8605 12.6272 12.5823
3146 2 17.8319 14.3154 14.3337
3618 2 16.2297 14.4165 12.5136
52 3 0.27065 16.0492 12.7112
518 3 0.0953066 17.8878 14.2326
1150 2 1.89209 15.9964 14.4532
2623 1 1.96955 17.8939 12.6462
53 1 3.50981 16.1284 12.5954
618 3 7.21198 15.9828 12.4596
1151 2 3.58225 17.667 14.2368
1642 1 5.40504 15.9784 14.4219
2142 2 7.19769 17.9239 14.1911
2624 3 5.30215 17.6882 12.5646
54 3 10.9226 16.094 12.4897
1643 1 8.97032 16.0688 14.2725
2649 2 10.7998 17.8146 14.4179
3619 3 9.09008 17.6428 12.4867
55 2 12.5383 17.9589 12.6453
620 1 14.3086 16.0125 12.728
1646 2 12.628 16.1476 14.2966
1644 2 14.2675 18.0132 14.3313
56 3 16.0999 17.9803 12.6206
1647 3 16.0256 16.1811 14.4729
2627 3 17.9527 16.2334 12.6717
3644 3 17.8361 17.966 14.5294
57 3 1.94687 0.186795 16.0875
621 3 0.0206567 2.10446 16.2208
1128 2 -0.0553589 0.0931073 17.8481
2122 3 1.73801 2.01944 17.7225
58 3 5.48446 0.120251 16.2296
1132 1 7.36115 0.196642 17.9546
1131 2 7.21501 1.93747 16.1164
1130 2 3.59147 0.375279 17.7239
1129 2 3.6711 2.12271 16.0496
2630 2 5.51675 2.0621 17.84
1133 1 10.7828 1.63988 16.0334
1626 1 10.7413 -0.220552 17.9075
2631 1 9.05934 1.93662 17.7905
3621 2 8.99369 -0.0618802 16.0707
59 3 12.5413 0.00476059 16.0275
1134 2 14.2949 1.72981 15.9433
2124 3 14.2565 0.28331 17.9897
3130 3 12.5527 1.74778 17.9657
502 2 16.0724 0.170565 16.2326
3133 3 16.1615 1.91127 17.9682
3623 1 17.9526 0.0544227 18.0103
3622 1 18.1188 1.84463 16.0272
503 3 1.77384 3.87928 15.9309
504 3 2.13792 7.22984 16.1324
1628 1 0.0930045 5.44688 15.9847
2125 1 -0.0219741 3.78744 17.8037
3134 1 0.0925316 7.33406 17.6599
3625 3 1.89224 5.48131 17.7696
61 1 5.54622 3.67463 15.9312
505 3 3.88155 7.28312 17.9
1135 1 7.34418 7.11886 17.9611
1631 3 5.5397 7.14141 15.9169
1630 3 3.77034 5.42213 16.1359
1629 3 7.34652 5.28578 16.0831
2127 2 3.80242 3.70582 18.0012
3135 3 7.44111 3.59372 17.9475
3627 2 5.58037 5.31071 17.9858
62 2 9.19831 5.36376 17.9764
63 2 10.7407 7.24682 17.85
506 1 9.03618 3.61645 16.0132
1632 2 10.7685 5.23141 16.0821
2129 3 9.09088 7.20849 16.1732
2635 2 10.6875 3.39938 18.0701
64 2 12.5602 5.32708 17.8313
1137 3 14.2262 7.17892 17.8666
1136 1 12.5046 3.60706 16.1712
2131 1 14.4717 5.24678 16.1963
2130 1 12.5238 7.27527 16.0764
3139 3 14.2881 3.37909 17.9737
66 1 17.8328 5.39883 16.1539
507 2 16.0701 5.29096 17.8522
1140 3 17.874 3.58641 17.9934
1139 3 16.2746 3.38124 16.0799
1634 2 17.8234 7.07923 18.1288
1633 1 16.2871 7.25828 16.3474
508 3 1.8953 9.13063 17.78
1141 2 1.76056 10.7671 16.1509
2132 1 0.291168 8.97519 16.0121
3632 1 -0.0396719 10.7689 17.8322
68 1 3.7281 10.8658 17.9133
509 1 7.12068 10.7264 17.9443
1142 1 5.50943 9.09798 17.9783
1635 2 5.30106 10.7028 16.1541
2134 2 7.16913 8.84582 16.0337
2133 3 3.63177 9.11176 15.959
1143 1 8.90131 9.13456 17.8398
1636 1 8.99028 10.7632 16.086
2637 1 10.9892 8.98927 16.163
3634 1 10.7187 10.8485 17.9502
1144 3 12.641 10.8189 16.1928
1638 3 12.4764 9.11316 17.9416
1637 1 14.3703 10.8936 17.8537
2638 3 14.5417 8.91354 16.2
512 2 17.856 8.93336 16.2237
1640 1 16.0815 9.06184 18.0083
2135 2 16.2096 10.7195 16.1462
2639 3 17.9185 10.755 18.0813
2137 3 0.0998748 14.3286 18.0356
2136 2 1.92153 12.545 18.0606
2641 3 2.02631 14.1988 16.147
2640 3 0.0639852 12.4941 16.1278
2140 1 7.12035 14.2173 18.0535
2139 3 3.63651 14.2184 18.0103
2138 2 5.33644 12.6282 18.0881
2643 3 5.45129 14.2147 16.1417
2642 1 3.55507 12.5545 16.0522
3142 3 7.19309 12.6008 16.2719
2141 2 9.16605 14.3645 16.2852
2645 1 8.94272 12.5746 17.9795
2644 3 10.785 14.5422 17.9636
3143 3 10.7413 12.4793 16.1693
2647 1 12.5057 14.4843 16.0109
2646 3 12.6357 12.5041 17.7615
3145 3 14.2881 14.4063 18.0249
3144 3 14.4928 12.648 16.0741
517 3 17.7406 14.464 18.0128
1148 3 17.6553 12.6245 16.1159
3148 1 16.1164 14.5352 16.1975
3147 1 16.291 12.6706 18.0632
2648 3 1.7286 17.8266 16.1285
3150 1 1.85141 16.0779 17.9165
3149 3 0.0770866 15.9352 16.0202
3636 1 0.156566 17.8646 17.8958
1641 2 3.55681 17.8046 17.8907
2143 1 6.94063 17.9136 17.8192
3640 3 5.37804 17.7487 16.0321
3639 1 7.2518 16.086 16.1156
3638 2 5.4018 15.975 17.9276
3637 3 3.7023 16.0219 16.0799
74 2 8.70913 17.8835 16.0422
519 1 10.6778 17.879 17.6692
3642 3 8.70686 16.0243 17.9505
3641 1 10.7909 16.1149 16.0059
75 1 12.6726 16.2038 17.9422
76 2 12.4929 17.9022 16.1055
1645 2 14.3777 17.839 17.8936
3643 2 14.2115 16.0283 16.0722
77 3 15.9903 16.0443 17.9885
2144 1 17.8131 16.2792 16.1605
2650 3 17.7516 17.8065 17.9038
3645 2 16.0923 17.8179 16.2095
520 1 -0.0262234 0.260426 21.1167
78 1 -0.00823048 1.89435 19.4373
2145 1 1.77707 1.89543 21.19
3151 1 1.89666 0.134775 19.5238
521 3 3.58132 0.290398 21.3432
80 2 3.56928 1.9067 19.6292
79 1 7.22735 1.86755 19.7234
2147 3 5.33255 1.97239 21.5136
2146 3 7.12286 0.231112 21.5307
2651 2 5.3807 0.317737 19.6363
81 3 10.7768 1.67306 19.7257
1648 1 10.7334 -0.0470762 21.595
2652 2 9.01333 1.78549 21.4234
3152 1 8.90765 0.0541014 19.8264
522 3 14.2322 1.91963 19.8018
1649 3 14.3241 0.102549 21.566
2653 3 12.3568 1.68621 21.5123
3646 1 12.6074 0.172355 19.7194
82 2 17.7737 -0.0527903 21.4532
2654 3 17.855 1.75915 19.7952
3153 1 16.1836 1.83881 21.5113
3647 1 15.9926 0.117472 19.7257
523 1 0.0483487 5.72607 19.4994
84 3 1.85893 7.23748 19.583
83 3 0.13713 6.99031 21.4885
1650 1 -0.0333437 3.71218 21.3391
3155 3 1.88555 5.40432 21.521
3154 3 1.84374 3.81559 19.533
524 2 3.77987 5.46388 19.5797
525 3 7.34573 5.46171 19.7614
526 3 3.57358 7.27947 21.4503
1153 2 7.06819 7.23541 21.4704
1152 3 5.47682 7.06075 19.7266
2655 2 3.67366 3.59934 21.5789
3156 2 7.17653 3.67932 21.5289
3649 1 5.20983 3.60528 19.7067
3648 2 5.38388 5.20835 21.4702
86 2 10.8815 7.06554 21.2538
85 3 8.86877 3.60963 19.7168
1155 1 10.7645 5.38873 19.5146
1154 2 8.93502 7.29703 19.6717
2656 3 10.7088 3.57175 21.5003
3650 2 8.98053 5.28546 21.6991
527 2 12.4771 7.10497 19.5108
88 1 12.5489 5.20062 21.4019
87 2 12.4817 3.51368 19.726
1156 1 14.2508 5.32306 19.4064
2148 2 14.1614 7.17842 21.1733
2657 3 14.3264 3.58958 21.6201
528 1 17.7745 3.54427 21.5259
89 3 16.0642 5.54036 21.5151
1157 2 15.9301 7.17673 19.6658
3158 1 17.9442 5.47648 19.8397
3157 3 17.7594 7.31592 21.4993
3651 3 16.1113 3.59366 19.7307
529 2 1.82302 8.9154 21.5184
530 1 1.81459 10.6987 19.8417
1158 1 0.167931 9.0306 19.6292
3652 2 0.00139905 10.738 21.2702
531 1 5.39064 9.10995 21.4029
532 3 5.43184 10.7995 19.7087
533 2 7.23409 10.8501 21.5586
1159 3 3.72013 8.91479 19.7027
1651 3 7.24544 9.11408 19.8731
3653 3 3.56422 10.7033 21.425
90 2 8.8999 10.8099 19.6687
1161 2 8.89842 9.14088 21.4099
1160 3 10.6848 10.8652 21.2815
1652 3 10.7071 8.97291 19.6072
534 1 12.5332 10.782 19.647
1162 3 12.346 8.91744 21.4344
1654 2 14.4534 10.8013 21.4453
1653 2 14.2503 9.06996 19.5193
1656 2 15.9999 10.8079 19.6732
1655 3 15.7453 9.01069 21.5084
3159 2 17.7443 10.8034 21.3672
3654 1 17.7365 8.79173 19.7114
1660 2 0.136376 14.3356 21.4914
1659 2 1.74932 14.4378 19.7111
1658 2 1.8103 12.7022 21.3051
1657 2 -0.0581008 12.5445 19.4762
1163 2 5.32155 14.3853 19.825
1661 3 3.5155 14.2895 21.3857
2151 2 7.19135 12.5905 19.8332
2150 3 5.32128 12.6114 21.3765
2149 1 3.63475 12.4441 19.7079
3160 1 7.2355 14.4068 21.7753
1662 3 8.83008 14.5132 19.692
2153 3 8.92701 12.6298 21.4797
2152 2 10.6934 12.5634 19.5055
2658 3 10.7611 14.2546 21.2896
2155 2 14.2193 12.6126 19.6069
2154 2 12.4908 14.3131 19.5976
2660 3 14.1808 14.3296 21.4703
2659 1 12.5497 12.4924 21.3089
535 2 17.8908 12.5457 19.8524
1164 3 17.7967 14.3695 21.5324
2156 3 15.9605 14.376 19.7333
2661 1 15.7961 12.5744 21.3383
1165 2 0.127822 17.877 21.3327
2157 2 2.00516 17.835 19.7068
2662 1 0.106894 16.0724 19.6677
3161 1 2.01776 16.2229 21.6721
1664 1 7.37058 17.7424 21.3774
1663 1 3.57646 18.1796 21.5654
2664 1 3.60073 16.1761 19.6639
2663 2 7.0732 16.0847 19.8146
3163 1 4.93827 16.2274 21.4888
3162 1 5.4232 17.9352 19.8366
536 2 10.6638 17.9476 21.4217
2665 1 10.6784 16.3247 19.6105
3164 1 8.68327 17.9156 19.6311
3655 2 8.86082 16.104 21.3626
2666 3 12.4755 17.9384 19.4324
3166 2 14.3549 16.2952 19.817
3165 3 14.3194 18.0784 21.3084
3656 1 12.4463 16.1797 21.2935
92 2 15.9988 16.0856 21.4819
91 1 17.8165 18.0927 21.5572
1166 1 17.86 16.1011 19.7399
3167 1 16.1528 17.8713 19.876
93 1 1.47116 1.94651 24.9252
1665 2 1.77828 0.128022 23.1708
2667 2 -0.0461059 0.26722 24.9801
3168 1 0.118006 1.95517 23.2544
2158 3 5.36268 -0.032578 23.3055
2670 3 3.46037 0.342571 25.0609
3170 2 7.15462 1.9733 23.2801
3169 3 3.52479 1.83744 23.3015
3659 3 7.14026 -0.0512123 24.978
3658 2 5.47416 1.79822 24.9244
537 3 9.01233 1.84837 24.8756
2671 2 8.7308 0.129867 23.1571
3171 1 10.5466 0.00570446 24.7834
3660 1 10.6338 1.74832 23.1715
2673 2 12.4086 0.0993824 23.3519
3663 2 14.2885 1.94801 23.295
3662 2 14.2593 0.0331724 24.7954
3661 2 12.5077 1.81623 25.0003
539 1 16.092 1.92404 24.9331
1167 3 17.8313 -0.0502519 24.9866
1668 3 17.9174 1.71454 23.2601
2160 1 16.1039 -0.152578 23.3413
99 2 1.89011 5.33753 24.9136
98 2 1.87896 7.0261 23.18
97 2 0.0509368 7.19539 25.1128
96 2 0.0502009 5.36535 23.2413
3173 1 1.69212 3.57983 23.1543
3172 1 -0.126087 3.74176 25.0436
540 3 3.62511 7.27815 24.918
541 1 5.51002 7.40963 23.2107
542 2 7.11739 5.54019 23.3572
543 2 5.40236 5.4445 24.9407
101 2 7.32018 7.26894 25.118
100 3 3.51275 5.37153 23.0648
2675 2 7.32253 3.48323 25.0049
3175 2 3.64009 3.6724 24.9649
3665 2 5.28557 3.59433 23.4915
546 3 9.09297 7.21545 23.2556
547 1 8.8768 5.40509 25.1067
102 2 10.7935 5.63712 23.1973
1170 3 10.7782 7.30758 25.107
3177 3 10.8211 3.61426 24.9853
3666 1 8.90058 3.70562 23.1408
548 3 14.2377 5.47429 23.068
549 2 12.4725 5.49925 25.1369
105 1 14.2501 3.82582 24.8198
1670 2 12.5827 7.28112 23.1053
3179 1 12.2676 3.87868 23.1772
3667 1 14.1687 7.12413 25.0517
1172 1 16.0125 5.51686 24.7557
1672 1 18.0503 3.64966 24.889
1671 2 15.9074 7.28088 23.0297
2678 3 17.819 7.16627 25.0105
2677 2 17.8813 5.5119 23.03
3668 2 16.1762 3.52511 23.3521
550 3 0.212327 8.91891 23.2889
106 1 1.79566 10.8644 22.9582
1175 2 1.96608 9.03733 25.0114
3669 1 0.191486 10.7943 24.9955
108 3 5.50784 10.7624 23.1858
1180 3 7.17967 10.978 24.8619
1178 2 7.23385 8.93872 23.2414
1177 3 3.54869 9.02167 23.1831
1176 2 5.41943 8.98554 24.992
3670 3 3.64268 10.7093 24.9266
551 1 10.833 10.7092 25.0272
552 2 9.04247 10.8616 23.209
1181 1 9.08587 9.14864 24.9117
1674 2 10.6488 8.98337 23.067
1182 1 12.5441 10.8479 23.1789
1676 2 12.6633 8.95053 24.9365
1675 3 14.2409 8.96488 23.3101
2163 1 14.5185 10.697 25.0028
1183 1 16.0278 8.76652 25.0768
1677 3 16.3361 11.0524 23.1834
2165 2 17.8556 10.6297 24.92
3671 3 17.8423 8.93352 23.1295
555 2 0.0636993 14.1803 25.1507
1184 3 1.92795 14.3659 23.3151
1678 3 1.78163 12.5411 24.9618
2166 3 0.0535871 12.5174 23.2396
113 3 7.31891 14.332 24.9031
1185 2 5.42185 12.6952 25.0319
2170 2 5.274 14.3928 23.2366
2169 1 3.58846 12.5163 23.1837
2168 2 3.64553 14.3055 25.001
2167 2 7.00226 12.6071 23.3194
1680 3 10.8059 14.398 25.1035
2171 3 10.8709 12.5942 23.2083
2682 2 8.9829 14.2928 23.218
2681 2 9.11059 12.4035 25.1197
114 1 14.4334 14.2028 25.2096
1681 1 12.4231 12.5045 24.9359
2684 2 14.3292 12.5212 23.2359
2683 2 12.5723 14.219 23.2102
557 1 17.9526 12.6511 23.2566
2173 1 15.8945 14.4103 23.2469
2685 2 16.1782 12.518 24.9652
3183 2 17.8377 14.283 25.0478
1684 3 1.92925 16.0472 24.9391
1683 2 1.81078 18.0395 23.2133
2688 1 0.0804752 16.1795 22.9262
2687 2 -0.0258662 17.9118 25.0275
2175 1 7.29577 17.9505 24.9044
2174 2 5.44046 17.9488 23.1823
2689 2 3.67591 17.9041 24.9036
3187 2 5.50294 16.0571 25.0812
3186 2 7.04868 16.234 23.2311
3185 1 3.73427 15.9766 23.327
1687 2 8.96569 17.7671 23.1619
1686 1 8.99257 16.0999 24.9452
2177 2 10.6853 17.8288 24.9182
3675 2 10.7406 15.8588 22.8913
2178 2 14.2505 17.8683 24.9353
2690 2 12.5575 17.8367 23.1146
3188 2 12.5325 16.1028 25.0471
3676 1 14.141 16.2138 23.1825
1187 3 17.7908 16.0766 23.194
1186 1 17.9422 17.731 24.9191
1689 3 15.9126 16.1259 24.9781
3189 1 15.9591 17.8907 23.1822
1188 1 0.0486074 0.174467 28.5914
2180 1 1.88836 1.87819 28.455
2668 2 1.72053 0.0905655 26.7144
3657 3 0.0287869 1.90325 26.8483
559 2 7.16815 0.0607495 28.3836
94 2 7.29908 1.86474 26.6828
1189 2 3.53531 -0.0101298 28.3428
1666 1 5.44504 0.0879006 26.6996
2181 2 5.16338 2.19421 28.3879
2669 1 3.58563 2.01351 26.7861
560 3 10.8512 0.228629 28.3312
95 3 9.03503 0.0832252 26.6865
2182 2 8.87777 1.87354 28.5706
2672 2 10.7941 1.97836 26.5673
538 2 14.4095 1.91248 26.8329
1667 1 12.7383 0.013687 26.6025
2184 1 12.5162 1.9784 28.3432
2183 1 14.2073 0.112606 28.7017
2159 3 17.9921 1.94425 26.5627
3193 1 16.0403 1.9027 28.5374
3679 3 17.7946 0.0437613 28.3952
3664 3 16.249 0.105335 26.6888
1168 3 1.79562 3.7532 26.8563
1669 2 1.82278 7.14584 26.6175
2186 2 0.2144 7.21924 28.2699
2185 1 0.0605211 3.74868 28.6756
2674 2 -0.0804883 5.37193 26.7959
3194 2 1.86073 5.53882 28.4796
544 2 3.60828 5.50754 26.5161
563 1 7.21136 7.20054 28.3918
1691 3 7.2395 3.53384 28.4012
1690 1 3.58965 3.78347 28.4455
2676 3 7.13627 5.44281 26.7236
3196 3 3.7041 7.21459 28.4203
3195 3 5.55061 5.39249 28.5095
3176 1 5.41374 3.38692 26.4075
3174 3 5.50113 7.30321 26.5628
545 1 10.8602 5.51637 26.8484
1171 2 9.00051 3.48557 26.6675
1169 1 8.87433 7.35149 26.8611
2694 2 10.7352 3.55387 28.505
3197 1 9.05003 5.38353 28.3476
3681 1 10.7184 7.04556 28.4618
104 2 12.612 3.67315 26.6736
103 3 14.4274 5.45653 26.6779
2695 1 14.3598 3.52118 28.4584
3178 2 12.5469 7.20983 26.8837
3684 1 14.119 7.18432 28.578
3683 2 12.5468 5.36213 28.4521
622 3 17.8963 3.64317 28.3936
1004 3 17.9284 7.09853 28.3915
1174 1 16.0351 7.05718 26.9072
1173 3 18.0874 5.41458 26.6926
3180 3 16.2292 3.59806 26.5879
3685 2 16.0689 5.31369 28.4975
1673 3 0.196118 8.99645 26.7904
2161 3 1.92955 10.8202 26.6738
2696 3 0.13485 10.6013 28.6175
3687 3 1.84858 8.89679 28.5906