ITEM: TIMESTEP
5000
ITEM: NUMBER OF ATOMS
4000
ITEM: BOX BOUNDS pp pp pp
9.4541273001517823e-02 3.5639518726998610e+01
9.4541273001517823e-02 3.5639518726998610e+01
9.4541273001517823e-02 3.5639518726998610e+01
ITEM: ATOMS id type x y z
1 3 0.00687617 2.01193 1.90074
1563 3 0.262764 0.0337644 -0.000606471
2064 3 1.70563 1.82451 0.0866303
3561 2 2.08723 0.264446 1.77374
564 2 3.76635 1.89058 1.75137
565 2 7.27677 1.80536 1.92028
1565 1 7.10263 -0.0952256 0.0804032
2065 2 3.78357 0.0940969 -0.122351
3061 1 5.36168 1.90781 0.0531379
3562 2 5.40206 0.137959 1.8191
566 1 10.7144 1.84816 1.96659
1070 2 10.6401 0.0817544 0.0776137
3063 1 9.11924 0.170952 1.85974
3062 2 9.04732 1.89101 0.048145
567 3 14.3266 1.95774 1.69783
2566 2 14.2675 0.189196 0.242722
3064 1 12.3514 1.87208 0.170863
3563 1 12.4709 0.0973746 2.08267
2 3 17.8058 0.251471 -0.0408789
3 2 16.2226 -0.0151942 1.91696
3066 2 17.7815 1.69985 1.83485
3065 3 16.0283 1.69537 -0.010737
4 2 1.96034 5.46146 0.00721372
5 2 1.90768 3.82773 1.80524
6 3 1.82322 7.25408 1.79029
1071 1 -0.051056 5.3943 1.80654
3067 3 0.0156545 3.61305 0.0122924
3565 2 -0.0682941 7.0971 0.0878424
7 2 5.57098 5.46335 0.142867
8 2 3.71307 7.26759 0.239629
1072 3 7.41269 5.27035 2.04582
1075 3 5.38192 7.04794 1.78498
1074 3 3.57233 5.44973 1.88298
1567 2 7.13598 7.0021 0.0718102
2570 2 7.32057 3.77919 0.037652
2569 3 3.57878 3.73435 0.0343792
3569 2 5.50677 3.58034 1.77078
9 1 8.95275 5.62541 0.0279887
10 3 8.98074 3.52389 1.84639
1077 2 10.7101 7.21963 0.0658794
1076 3 10.7488 5.51607 1.95635
1568 1 8.96548 7.01529 1.81349
3068 1 10.7383 3.63442 0.103044
11 2 12.4097 5.41278 0.0788115
12 3 14.1889 3.57384 0.0561168
570 1 12.5257 3.73149 1.70806
1571 1 14.1554 7.16774 0.236358
1570 1 14.1323 5.51389 1.86304
1569 2 12.329 7.32997 1.88123
572 2 15.9355 3.66547 2.11029
1081 3 15.9356 7.38317 1.95281
1079 3 17.7445 5.38876 1.88073
1078 3 15.939 5.56405 0.225322
1573 2 17.7024 3.63171 0.111663
2070 3 17.8264 7.36234 0.230048
575 1 1.83898 10.8863 1.89221
1082 2 1.58494 8.9027 -0.0446293
1574 3 -0.0770967 9.21465 1.8322
3070 2 0.169624 10.8938 0.148413
576 1 3.64798 10.582 0.166973
1085 2 5.48621 9.0897 0.348162
1083 1 5.48173 10.9242 1.99251
1577 1 7.32169 10.6584 0.325786
1576 3 7.42239 9.07493 1.91798
1575 1 3.50505 9.03508 1.78801
14 3 10.8811 10.8003 -0.0583537
1087 3 9.22374 10.8268 1.864
1086 3 9.11812 8.89068 0.0536696
2071 1 11.0176 9.03532 1.64241
580 1 12.5761 10.8427 2.03787
1088 2 14.2771 10.7291 -0.127693
2073 1 12.6782 8.90928 -0.038431
2074 2 14.3504 9.06494 1.96812
15 3 17.9176 8.94244 1.99009
1581 2 16.1096 10.7842 1.82185
2076 2 17.8797 10.756 0.0346963
2075 3 15.9897 9.04089 0.1321
2079 1 1.90322 12.5836 0.122292
2078 1 1.80474 14.1639 1.78603
2077 1 -0.0592382 12.5638 1.83526
2572 3 -0.0234313 14.3147 0.0826424
2082 3 5.46369 14.0832 1.90988
2081 2 3.65182 12.51 2.07272
2080 2 5.30017 12.4566 0.211606
2576 1 7.24545 14.1547 -0.0860582
2575 2 7.28709 12.4996 1.90443
3071 3 3.73076 14.3159 0.231583
1583 1 8.96909 14.3892 1.82418
2084 3 10.7087 14.3895 0.0597398
2579 1 10.8176 12.6773 1.97008
3073 2 9.22011 12.4877 0.274154
2085 2 12.8847 14.4318 2.13327
2580 3 14.3491 12.5791 2.00897
3074 3 12.6456 12.5892 0.115477
3574 1 14.4649 14.3807 0.250457
581 2 17.8683 12.4372 1.93485
1089 3 17.8826 14.2936 0.272874
2583 1 16.2392 14.2593 2.01869
3075 3 16.0433 12.5632 0.178095
16 3 0.059084 17.8537 0.0707679
2086 1 1.80729 17.8253 1.91644
2584 2 0.125586 16.0276 1.84764
3076 2 1.91631 16.0434 0.245924
17 2 5.48004 16.0735 0.0581116
1090 1 3.81092 17.8619 -0.038096
2585 2 7.17189 17.8736 0.123688
3079 3 5.46284 17.9303 1.8699
3078 1 7.0302 15.9932 1.66659
3077 1 3.66656 16.1496 1.97109
18 3 9.08703 16.0284 0.190068
1585 2 10.6637 17.8839 0.0642796
3080 3 11.012 15.9479 1.93538
3578 3 8.80698 17.817 1.75021
19 3 12.5962 16.1161 0.167496
2088 1 14.331 17.8043 -0.0726879
3081 1 14.3509 16.2391 2.08855
3581 2 12.6174 17.9111 1.92793
20 1 16.3447 15.9786 0.155773
1586 2 17.7844 16.0364 1.96157
3083 2 16.0893 17.7589 1.84552
3082 2 17.6985 17.915 0.143595
584 2 1.68589 1.91492 7.24129
1564 1 0.304808 -0.0390328 3.62897
2588 2 1.93339 0.0229288 5.32792
2563 2 2.01922 1.69133 3.6257
3084 1 0.136452 0.00866728 7.05237
3583 3 0.0338974 1.84439 5.35672
22 3 5.45467 1.84258 7.15605
1069 1 3.7113 -0.00941058 3.5031
1566 1 7.12648 0.265438 3.62041
2089 2 5.36973 -0.0467621 5.52193
2590 2 3.4542 0.310157 7.08882
2564 3 5.35261 1.8662 3.628
3085 3 7.27787 0.135215 7.1756
3585 1 3.54097 1.98512 5.53119
3584 3 7.03192 1.84422 5.37186
586 1 8.88796 1.7875 7.1138
2066 1 10.7785 0.218572 3.80682
2593 2 9.0069 0.0481967 5.38226
2565 3 9.02225 1.81166 3.7721
3086 1 10.8794 0.266987 7.02239
3586 1 10.8497 1.90406 5.5185
23 2 12.8951 1.9974 7.02679
24 2 14.5283 0.124681 7.05002
25 3 14.3767 2.00983 5.33536
2568 2 14.2729 0.0555287 3.66809
2567 2 12.5773 1.83471 3.62384
3087 1 12.7137 0.275832 5.36936
568 2 17.716 0.215093 3.77102
588 3 16.119 1.94021 7.14039
1587 1 17.8957 -0.0234326 7.13
3088 2 16.0961 0.16664 5.26791
3588 2 17.9016 1.9103 5.37861
3564 3 15.9709 1.79781 3.65966
27 2 1.73276 5.36042 7.09622
28 2 2.05645 7.30308 5.44499
589 2 0.0995592 5.46089 5.36291
2067 3 0.0247998 3.65584 3.57229
3090 2 2.04803 3.56858 5.27862
3590 2 0.176189 7.14184 7.26873
3589 1 0.0895045 3.60744 7.26181
3567 2 0.219565 7.30903 3.69983
3566 1 1.77115 5.47227 3.6045
29 3 3.57479 3.88949 7.26217
593 3 3.64862 7.17489 7.09945
592 3 7.27658 5.48417 5.48297
591 2 7.20688 7.32539 7.1232
590 2 3.6107 5.53728 5.41864
1095 2 5.40761 5.46485 7.16133
1094 1 5.42512 7.15788 5.43543
1073 1 3.64488 7.37052 3.73994
2068 2 7.31005 7.09706 3.63503
2069 1 3.66397 3.59028 3.71187
3593 1 5.29468 3.6531 5.48933
3592 3 7.30127 3.73264 7.27258
3570 1 5.45538 5.55212 3.82449
3568 2 7.03362 3.67566 3.76583
31 1 9.06305 3.64206 5.60798
569 1 10.7592 7.19327 3.76759
594 1 10.9277 5.32584 5.48715
1097 3 9.00113 5.45164 7.13621
1590 1 9.05395 7.11986 5.25344
1589 1 10.748 7.2553 7.0664
3594 2 10.689 3.62196 7.33504
3572 2 10.9097 3.69968 3.58163
3571 3 9.18268 5.20544 3.72281
33 2 12.5514 3.74898 5.39009
35 1 14.4441 3.70197 7.10523
571 2 12.5649 5.5166 3.74125
595 1 14.3544 7.28836 7.31106
1100 1 14.3625 5.49903 5.5522
1099 1 12.4375 5.36815 7.27909
1592 1 12.619 7.34159 5.45552
1572 1 14.257 7.32216 3.6027
3069 1 14.3137 3.74557 3.80879
573 3 16.0589 5.56381 3.61465
1080 3 17.8145 3.7329 3.47847
1595 2 16.0084 7.25178 5.54306
1594 2 16.3315 5.3924 7.19933
2094 2 17.9794 7.08127 7.2796
2092 2 18.0457 3.74217 7.34017
2571 1 17.9436 7.12448 3.68402
3092 1 17.8346 5.54983 5.35708
3595 1 16.2442 3.7491 5.29293
13 3 0.140512 10.8834 3.62633
597 1 0.179861 10.7759 7.11705
596 2 1.97375 10.7615 5.4621
574 2 1.68508 9.21325 3.52097
1102 2 1.90852 9.12388 7.09616
1101 3 0.123871 9.0163 5.39737
38 3 3.74137 10.7228 7.19746
578 3 3.65495 10.758 3.64872
577 1 5.46084 8.90716 3.48342
1106 1 7.3329 10.8589 7.19156
1104 1 5.46453 10.9649 5.28454
1103 1 3.63653 9.12795 5.37596
1084 1 7.1722 10.7395 3.59437
1597 1 7.28224 9.10259 5.29264
1596 1 5.57272 8.82963 7.01883
39 1 10.6819 10.815 7.19592
599 2 9.04786 10.7536 5.61929
579 3 10.813 10.8203 3.83843
1107 1 8.80674 9.09418 7.15962
1578 3 9.33259 9.03852 3.5396
2097 3 10.8055 9.13476 5.52309
1108 1 12.5709 10.7255 5.46555
1598 2 12.4178 9.00965 7.24491
1579 3 12.3621 9.05806 3.64697
2072 3 14.2836 10.7893 3.81015
2099 1 14.3269 10.9535 7.08011
2098 2 14.2673 9.05122 5.63318
1599 2 16.069 8.93333 7.20109
1580 2 16.18 9.21602 3.70342
2100 2 16.2092 10.6878 5.63948
3093 2 17.8571 10.8527 7.26143
3597 3 17.9404 8.86979 5.66855
3573 1 18.0158 10.8642 3.87348
1110 2 0.254065 14.4051 7.11004
1582 2 1.87152 12.6392 3.72892
2103 1 1.93458 12.4691 7.39592
2102 2 1.90744 14.24 5.42086
2101 2 0.202617 12.6024 5.40474
2573 3 0.0668319 14.4217 3.732
1112 3 7.36123 14.2466 7.18681
1600 3 5.38171 12.3796 7.23851
2104 1 5.44986 14.3062 5.40936
2083 1 3.6723 14.329 3.60078
2601 3 7.49549 12.4612 5.30483
2600 1 3.62645 12.6325 5.31144
2599 3 3.71791 14.3404 7.17509
2577 3 7.24364 14.3721 3.48193
2574 2 5.59379 12.6273 3.70888
2604 2 8.89619 14.3705 5.41327
2603 2 10.6503 14.3281 7.30659
2602 1 10.8618 12.7628 5.47566
2578 2 9.05134 12.5923 3.48024
3097 2 9.08972 12.5649 7.21533
3072 3 10.7694 14.4293 3.66172
602 2 14.2833 14.451 7.18762
1603 3 12.4384 12.407 7.42778
2605 1 14.4464 12.6194 5.40064
2581 2 12.5988 12.6054 3.7623
3098 2 12.6078 14.3402 5.53758
3575 1 14.4485 14.2029 3.89709
1114 2 17.8392 12.5832 5.39255
1584 1 17.9045 14.2994 3.75279
2582 3 16.0339 12.5018 3.63775
3100 2 16.2268 14.3874 5.51976
3099 2 15.995 12.672 7.2223
3599 2 17.885 14.3138 7.33072
582 2 -0.00974827 17.8665 3.4955
1605 2 1.96546 17.8311 5.3409
1604 3 1.90749 16.1633 7.20013
3104 3 0.0114091 16.1699 5.47682
3103 3 0.19084 17.8538 7.21222
3576 1 1.86733 16.1034 3.63341
2087 2 3.7982 17.8927 3.73356
2607 2 5.51303 17.8616 5.3588
2586 2 7.27346 17.8089 3.81527
3107 3 7.06804 17.83 7.28096
3106 2 5.43523 16.1718 7.2795
3105 1 3.66757 18.0428 7.16521
3602 2 3.74329 15.8511 5.25539
3601 1 7.14047 15.9786 5.41261
3577 3 5.52094 16.2019 3.67632
1091 3 10.8732 17.8197 3.71636
2107 2 8.84507 16.2267 7.22991
2608 1 8.9591 17.785 5.31281
3109 2 10.5543 17.955 7.17109
3603 2 10.6096 15.9872 5.57378
3579 1 8.91834 16.1333 3.56368
41 3 14.4542 16.231 5.58553
2610 2 12.4353 17.9312 5.49602
2609 3 14.1374 17.835 7.03141
2587 1 14.2808 17.9731 3.79128
3604 1 12.2865 16.2334 7.29654
3580 3 12.6415 16.0133 3.8114
583 2 16.0884 16.0409 3.81969
1606 1 17.7253 17.7896 7.24505
2109 2 16.2343 15.9586 7.35394
3112 3 16.1798 17.8757 5.56659
3110 3 17.9746 16.1476 5.63726
3582 3 17.9192 17.7138 3.73193
21 3 0.153158 1.93559 9.08515
604 2 0.183706 0.00460416 10.6142
2110 3 1.86862 1.86382 10.7208
2589 2 1.77724 0.0815126 8.98147
585 2 7.12023 1.95553 8.85381
1092 2 5.52834 0.160927 8.98247
1608 3 7.24348 0.00916437 10.6522
1607 3 3.88923 0.245732 10.7676
2111 3 5.5744 1.87257 10.6738
2591 2 3.44819 1.85492 8.8696
1116 2 10.6536 0.141586 10.6562
2612 3 9.04771 2.10007 10.5439
2592 3 10.9732 1.90589 8.91011
3587 3 9.0281 0.070297 8.94567
587 3 14.4495 1.79549 9.01574
1609 3 14.5574 0.227295 10.8588
2090 3 12.4762 0.0959789 8.93129
2613 1 12.7024 1.849 10.5837
26 1 16.2871 0.127689 9.00345
2594 1 17.8411 1.86616 9.19438
3116 2 16.3 1.8402 10.8652
3115 1 17.8475 0.0246415 10.9517
1093 1 1.9948 7.16268 8.97446
2091 1 1.85358 3.7267 9.00274
2615 2 0.155809 3.61231 10.7647
3118 3 0.0995794 7.21731 10.7611
3117 2 2.03245 5.55996 10.818
3089 1 -0.0132558 5.54743 9.08936
30 2 5.18071 3.67267 9.06858
45 1 7.18999 7.14347 10.6938
1096 2 3.4954 5.49035 8.7877
2112 2 7.35317 3.75445 10.6793
2616 2 3.5418 3.61955 10.7145
3091 1 7.26053 5.55548 8.91552
3608 1 3.65813 7.11806 10.6981
3607 2 5.34552 5.45611 10.7077
3591 2 5.35984 7.21832 8.73043
46 1 10.6858 7.17778 10.8121
1098 3 10.7982 5.37526 8.91654
1591 3 8.97962 3.76393 8.91487
1588 3 8.97661 7.15388 8.91837
2113 1 10.9022 3.71576 10.592
3609 2 9.10454 5.42962 10.6296
32 3 12.356 7.03103 8.97947
34 2 12.7426 3.72039 8.98397
36 1 14.3559 5.38466 8.86222
609 3 14.2796 7.15321 10.5265
3119 1 14.3635 3.60808 10.7814
3611 2 12.2971 5.45067 10.9016
1120 3 17.87 3.72469 10.7004
1615 1 17.8894 7.31042 10.7632
1593 3 18.1219 5.40967 8.97126
2093 2 16.2701 7.28498 9.0559
2595 2 16.0347 3.69724 9.0508
3612 3 16.1216 5.46574 10.7247
48 2 1.97513 8.94482 10.8122
2095 1 0.260888 8.83122 8.94028
2596 1 1.9201 10.5811 8.95912
3120 3 0.218487 10.7914 10.6562
37 2 3.57274 8.97639 8.79764
49 3 5.35978 8.99369 10.7377
612 1 7.11381 10.805 10.6682
1105 2 5.45435 10.453 8.9783
2096 1 7.27978 8.80385 8.84851
3121 2 3.6341 10.875 10.8615
613 2 8.96191 8.79992 10.744
598 3 10.5174 8.95816 8.94917
3613 3 10.663 10.6567 10.8798
3596 2 8.90591 10.8748 8.95194
50 1 14.3056 10.9737 10.6649
614 1 12.3639 8.82461 10.6986
2598 1 12.4495 10.5836 9.03407
2597 1 14.4456 9.20175 8.95967
51 1 17.9169 10.6252 10.8262
600 2 17.862 9.08047 8.85107
1122 3 16.1858 9.04812 10.7832
1109 1 16.2167 10.7574 8.78403
616 3 -0.0165853 14.3255 10.8431
601 1 0.297386 12.571 8.82929
1123 1 1.81108 12.5298 10.6996
3094 2 1.99168 14.4446 9.02155
1124 2 5.48714 12.5318 10.7125
1111 2 5.43164 14.2253 8.99585
1619 2 7.18363 14.232 10.7152
1618 2 3.67174 14.3623 10.7827
1601 2 7.1358 12.667 8.96018
3095 2 3.74813 12.5525 9.11642
617 2 10.7687 14.2339 10.9741
1125 1 8.86382 12.6168 10.752
3096 1 9.06429 14.3252 8.96931
3598 2 10.6739 12.5643 8.97172
1126 3 14.3715 14.2138 10.6406
1113 1 12.4109 14.5618 8.90003
1620 1 12.3808 12.5364 10.7524
1602 1 14.4271 12.5618 8.96047
1621 1 16.2392 12.5379 10.781
3126 2 17.9087 14.3532 10.8124
3102 2 15.9817 14.3629 9.10499
3101 1 17.7661 12.5352 9.01494
1623 3 0.205918 17.938 10.7385
2119 2 1.78522 16.0721 10.7117
2606 2 1.86874 17.8926 8.85027
3600 3 0.00677762 15.9452 9.02691
40 2 7.17156 16.0673 9.01592
619 3 3.64375 17.6404 10.7799
1127 3 7.19158 17.8496 10.7541
2120 3 5.27611 15.9584 10.7926
2106 2 3.62278 16.1273 8.92258
2105 1 5.45746 17.9511 9.04029
1624 3 10.6596 17.7494 10.9203
2108 3 10.7338 16.23 8.82708
2625 3 8.99559 16.0505 10.7205
3108 3 8.84068 17.8602 9.17154
603 3 14.2853 16.1125 8.89499
1115 2 12.6687 17.9256 8.87709
2626 1 12.4559 16.1182 10.7145
3620 3 14.2777 17.7632 10.8265
2628 3 16.0259 16.1036 10.7291
2611 1 17.8791 16.1454 9.25437
3127 2 17.8313 17.9003 10.6786
3111 3 15.9949 17.9048 9.01727
42 1 0.211211 1.92029 12.3463
2121 3 0.11871 0.130181 14.2239
2629 3 1.77229 1.83735 14.3688
3113 3 1.78944 0.105385 12.3719
43 2 3.80966 1.7834 12.5195
605 2 7.38722 1.79944 12.3937
1625 2 7.36505 -0.00311174 14.3375
2123 1 3.66178 0.246246 14.3637
3128 1 5.47545 1.86034 14.2043
3605 2 5.51491 0.111575 12.5463
606 2 10.6121 2.03629 12.4205
1627 3 10.8624 0.0754035 14.252
3129 2 9.03509 1.77942 14.1463
3606 3 8.99532 0.0706994 12.4524
1117 2 14.2082 1.90523 12.5027
2632 3 14.353 0.0516179 14.2941
3131 1 12.5368 1.78001 14.1186
3114 1 12.4907 0.0169747 12.4642
44 2 16.1317 0.158353 12.6165
501 1 17.9452 0.19446 14.2338
2614 2 17.7859 2.06724 12.6109
3132 1 16.0966 1.86916 14.2704
607 3 1.84344 3.62098 12.509
1119 1 1.7803 7.31718 12.4832
1118 1 0.0786097 5.27193 12.4706
2634 2 0.139332 7.1421 14.2379
2633 2 0.116724 3.65828 14.3744
3624 2 1.91922 5.31797 14.2476
60 2 7.20696 7.30084 14.4499
608 2 5.53546 3.65266 12.4601
1612 3 7.17649 5.50191 12.6312
1611 3 5.4951 7.16266 12.4755
1610 2 3.66056 5.4418 12.5912
2128 2 7.31027 3.36898 14.1248
2126 3 3.77322 3.5318 14.1365
3136 3 3.72123 7.30918 14.221
3626 2 5.6634 5.39704 14.3403
1613 3 10.7123 5.17951 12.6908
2114 3 8.90505 7.22016 12.6428
3137 2 10.781 3.56032 14.3641
3629 3 8.93058 5.29739 14.243
3628 3 10.7284 7.15554 14.2705
3610 2 8.94973 3.6833 12.4653
610 3 12.4736 3.55792 12.322
1614 2 14.2597 5.50606 12.4624
2617 3 12.4607 7.10041 12.3691
3138 3 14.3736 3.62836 14.2781
3631 1 14.1849 7.34085 14.2168
3630 1 12.4927 5.28462 14.4111
47 2 17.7577 5.53576 12.5124
65 3 16.0285 5.55589 14.3161
1138 1 17.6673 3.84926 14.3165
1121 1 16.096 3.68981 12.4148
2618 1 15.9493 7.16546 12.5422
3140 3 17.8369 7.31501 14.2774
67 3 1.76184 8.8949 14.3339
611 1 1.90465 10.6903 12.6303
2115 1 0.119757 8.98863 12.52
2636 2 0.210812 10.5965 14.4369
69 3 7.08409 10.7306 14.403
70 1 5.35245 8.9795 14.2186
1616 1 5.40635 10.9636 12.6099
2116 3 3.62444 9.02242 12.5471
2619 1 7.16419 9.09661 12.6057
3633 3 3.54626 10.8586 14.2636
71 1 9.00699 8.97009 14.2926
2117 3 8.86863 10.7753 12.5415
2620 3 10.5947 8.95697 12.5516
3141 3 10.7552 10.8563 14.215
510 1 12.4147 8.99425 14.1668
1617 1 12.5177 10.6874 12.3099
3122 1 14.3263 8.92514 12.4547
3635 1 14.16 10.7593 14.1485
511 1 16.0874 9.14352 14.4334
615 1 17.6706 9.02234 12.6798
1639 1 17.8042 10.8467 14.4027
2118 1 16.0085 10.8464 12.6427
513 2 -0.0705982 14.2823 14.3802
514 3 1.7112 12.4578 14.3844
2621 1 0.0484929 12.5425 12.6029
3123 3 1.70328 14.3146 12.5879
72 3 7.15428 14.2742 14.2707
515 2 5.36265 12.5436 14.2878
516 1 3.64141 14.2743 14.3468
3125 2 7.1702 12.5312 12.4348
3124 1 3.38374 12.5516 12.4807
3614 3 5.59179 14.3605 12.6223
73 3 10.6845 14.3605 14.1733
1145 1 8.90187 12.5282 14.3555
3616 2 10.6191 12.5153 12.4437
3615 3 8.92287 14.2879 12.5997
1147 2 12.5565 12.6198 14.1207
1146 1 14.2333 14.5382 14.2062
2622 3 12.5349 14.3031 12.3863
3617 2 14.3524 12.6034 12.4546
1149 2 15.9321 12.594 14.3025
1622 3 17.9198 12.6461 12.5197
3146 3 17.8623 14.3263 14.3766
3618 1 16.243 14.4246 12.4779
52 2 0.0555447 16.0627 12.6318
518 2 0.0232819 17.7463 14.2456
1150 2 1.83683 16.0192 14.2878
2623 1 1.81486 17.7938 12.5323
53 2 3.66766 15.9828 12.5926
618 2 7.32899 16.0784 12.6017
1151 3 3.61762 17.7247 14.2326
1642 2 5.39569 15.9653 14.3114
2142 2 7.22678 17.7 14.3791
2624 1 5.5753 17.5501 12.5561
54 1 10.7577 15.8293 12.5605
1643 3 8.9878 15.9759 14.302
2649 1 10.6946 17.9579 14.3378
3619 2 8.91125 17.7647 12.6609
55 3 12.3613 17.827 12.5948
620 1 14.2812 16.2268 12.5967
1646 3 12.387 16.0858 14.3301
1644 3 14.2743 17.8952 14.4254
56 3 16.2439 17.8123 12.4801
1647 3 16.108 16.1723 14.3211
2627 1 17.8917 16.098 12.4456
3644 2 18.0269 17.7842 14.4172
57 2 1.93167 0.153985 16.1955
621 3 0.183029 1.82465 16.0425
1128 3 0.133732 0.254069 17.9354
2122 2 1.95725 2.00735 17.7767
58 1 5.42502 0.240442 16.1487
1132 1 7.26251 0.0984406 17.967
1131 3 7.19296 1.78011 16.036
1130 2 3.57603 -0.0479312 18.0972
1129 3 3.80057 1.93355 16.026
2630 2 5.41767 1.75891 17.8571
1133 1 10.7601 1.87423 16.0907
1626 2 10.8778 0.156491 17.7218
2631 1 9.00361 1.81962 17.8582
3621 1 9.18355 -0.115039 15.9806
59 3 12.5649 0.28759 16.067
1134 2 14.3284 1.93156 15.8851
2124 1 14.1202 0.128644 17.91
3130 3 12.6526 2.0554 17.9128
502 3 16.0901 0.128652 16.2547
3133 3 16.0648 1.8123 17.8482
3623 2 17.8638 0.208551 17.7841
3622 3 17.9483 1.95807 15.9524
503 1 2.04326 3.78677 16.1324
504 3 1.77325 7.02855 16.0751
1628 2 0.0437071 5.39612 16.0611
2125 1 0.193885 3.72083 17.877
3134 1 0.190785 6.89971 17.832
3625 3 1.97397 5.32689 17.9208
61 3 5.3806 3.62443 16.063
505 1 3.72737 7.22422 17.8948
1135 2 7.22121 7.25915 18.0542
1631 2 5.49292 7.32967 16.1533
1630 2 3.71403 5.42578 16.1065
1629 2 7.27286 5.44663 16.0822
2127 1 3.84436 3.56398 17.7679
3135 1 7.25279 3.6259 17.8709
3627 2 5.59515 5.36114 17.794
62 3 8.99444 5.49094 17.9271
63 1 10.8141 7.26298 17.8351
506 1 8.96263 3.63201 15.8768
1632 3 10.7056 5.34626 16.0299
2129 2 9.07907 7.17081 16.0478
2635 3 10.6965 3.63496 17.7679
64 3 12.6364 5.51653 17.9732
1137 2 14.1254 7.13204 17.7847
1136 1 12.7581 3.68266 16.1241
2131 2 14.2602 5.51331 16.0202
2130 3 12.4307 7.02732 15.945
3139 3 14.3365 3.70007 17.8188
66 3 17.7913 5.44311 16.1501
507 2 16.008 5.3956 17.8507
1140 3 17.9205 3.51204 17.8921
1139 3 15.9875 3.74472 16.0304
1634 2 18.0107 7.24198 17.8466
1633 3 16.0764 7.33318 16.1977
508 1 1.75053 8.82108 17.6923
1141 3 1.89028 10.8129 16.1067
2132 1 0.106161 8.69159 16.2159
3632 1 0.0821764 10.7805 17.7235
68 1 3.62283 10.6826 17.8342
509 2 7.072 10.614 17.9732
1142 2 5.38178 9.00359 17.9881
1635 3 5.31802 10.775 16.1145
2134 3 7.19624 8.96106 16.1175
2133 1 3.73174 9.06095 16.1026
1143 1 8.8486 8.95132 17.7222
1636 3 8.9294 10.7098 16.0484
2637 3 10.7609 9.04894 16.1041
3634 2 10.9082 10.7455 17.7321
1144 2 12.4688 10.8216 15.8772
1638 3 12.6248 8.90012 17.9283
1637 1 14.1108 10.8301 17.6641
2638 3 14.1533 8.98591 16.0542
512 3 17.9099 8.96614 16.186
1640 3 16.0232 8.93501 18.0098
2135 1 15.972 10.8247 16.1631
2639 3 17.7732 10.8332 17.8617
2137 2 0.181833 14.5004 17.9667
2136 2 1.864 12.6335 17.9175
2641 1 1.69262 14.4448 16.0607
2640 3 -0.0380727 12.4811 16.1801
2140 1 7.24644 14.1708 17.7758
2139 3 3.5901 14.4226 17.8798
2138 2 5.45097 12.6409 17.9817
2643 1 5.45236 14.3022 16.1317
2642 1 3.68775 12.407 16.0869
3142 2 7.08536 12.4747 16.2635
2141 2 8.937 14.208 16.2597
2645 1 9.01807 12.2136 17.8349
2644 1 10.7739 14.2354 17.779
3143 3 10.8853 12.5531 16.0265
2647 2 12.5041 14.4199 16.0766
2646 1 12.6818 12.5425 17.8298
3145 1 14.2837 14.4277 17.8353
3144 1 14.0981 12.6434 15.8841
517 3 17.9771 14.3692 17.8761
1148 1 17.8844 12.628 16.2564
3148 3 16.1241 14.3714 15.9925
3147 1 15.9507 12.5504 17.8963
2648 2 1.81322 17.7196 16.0943
3150 3 1.72079 16.3097 17.8762
3149 3 0.0901373 16.1025 16.1585
3636 2 0.0937409 18.0346 17.7122
1641 1 3.66694 17.8967 17.9393
2143 1 7.26182 17.6557 17.9142
3640 2 5.35068 17.9298 15.9956
3639 3 7.15323 16.026 16.1296
3638 2 5.39906 16.2374 17.8622
3637 1 3.79698 16.0874 15.9571
74 1 9.0233 17.7319 16.1782
519 2 10.8194 17.911 18.0368
3642 2 9.03486 16.0989 17.82
3641 2 10.7083 16.0595 16.148
75 1 12.4199 16.0991 17.8977
76 3 12.4375 17.849 16.1602
1645 3 14.2802 17.8462 17.7853
3643 2 14.4741 16.2066 16.0912
77 2 16.0203 16.1057 17.794
2144 2 17.8737 16.0709 16.1171
2650 3 17.8464 17.7567 17.7652
3645 3 16.0516 17.8258 15.9559
520 2 0.257777 0.096463 21.4303
78 3 0.0288886 1.91121 19.5848
2145 3 1.93628 2.00705 21.5555
3151 3 1.87094 0.23529 19.8078
521 1 3.86084 0.167265 21.5063
80 3 3.75406 1.94101 19.6583
79 2 7.02457 1.94776 19.5958
2147 2 5.46101 1.91769 21.4714
2146 2 7.16476 0.226769 21.4259
2651 3 5.35878 0.0737887 19.5413
81 3 10.8486 1.96706 19.5522
1648 1 10.7262 0.218909 21.4548
2652 3 9.1114 1.99995 21.2994
3152 3 8.94484 0.0203268 19.5495
522 3 14.4335 1.89992 19.4669
1649 2 14.3181 0.0560315 21.3412
2653 2 12.5579 1.80933 21.5958
3646 1 12.5097 0.186678 19.7498
82 3 17.7619 0.0366543 21.2631
2654 2 17.9025 1.89639 19.6361
3153 1 16.0575 1.99819 21.3912
3647 3 16.0758 0.0197188 19.575
523 1 0.125732 5.18501 19.6448
84 3 1.82074 7.35423 19.6883
83 1 -0.0905777 7.18017 21.2358
1650 3 -0.0297109 3.62314 21.5109
3155 2 1.70607 5.41635 21.3337
3154 1 1.8803 3.59937 19.6177
524 1 3.64301 5.47999 19.5854
525 1 7.24647 5.67051 19.7841
526 1 3.45866 7.05917 21.4741
1153 1 7.20618 7.12206 21.4906
1152 2 5.20025 7.22368 19.6272
2655 1 3.58154 3.65324 21.4013
3156 2 7.30298 3.73177 21.3293
3649 3 5.56945 3.82888 19.5804
3648 2 5.31081 5.37929 21.4092
86 1 10.774 7.31729 21.4291
85 2 8.92536 3.5956 19.5672
1155 3 10.6752 5.40131 19.7317
1154 2 8.90888 7.41682 19.5808
2656 1 10.7618 3.76001 21.4249
3650 2 8.99182 5.52072 21.3328
527 2 12.6372 7.2801 19.8907
88 3 12.504 5.39819 21.5085
87 1 12.6284 3.59565 19.7472
1156 1 14.1873 5.52359 19.7875
2148 2 14.2905 7.07853 21.5187
2657 2 14.2885 3.65647 21.3318
528 3 17.8938 3.63411 21.389
89 1 16.0872 5.42769 21.4228
1157 2 16.0548 7.22406 19.5883
3158 1 17.7464 5.39081 19.6318
3157 2 17.6447 7.0515 21.24
3651 2 16.1109 3.66278 19.6438
529 1 1.93968 9.0862 21.4064
530 2 1.79302 10.6903 19.6067
1158 1 -0.185135 9.0089 19.3675
3652 3 0.133911 10.7539 21.4877
531 1 5.26296 8.93973 21.4109
532 1 5.40943 10.7868 19.6232
533 3 7.11531 10.8023 21.2936
1159 3 3.49783 8.96738 19.5481
1651 1 7.15294 9.01822 19.7283
3653 1 3.55521 10.6565 21.3496
90 1 8.86721 10.7567 19.6126
1161 3 9.07112 8.90848 21.5521
1160 1 11.0117 10.9144 21.5781
1652 1 10.7012 9.12048 19.5671
534 2 12.5845 10.5333 19.6507
1162 3 12.4419 9.09699 21.6314
1654 2 14.4603 10.7813 21.4552
1653 2 14.3711 8.94611 19.717
1656 3 16.1604 10.8493 19.8529
1655 1 16.0472 8.77094 21.4234
3159 3 17.8561 10.5594 21.5948
3654 2 17.9135 9.06693 19.7798
1660 2 0.0317506 14.351 21.4641
1659 3 1.96232 14.4747 19.6036
1658 1 1.91056 12.4622 21.0669
1657 1 0.0155456 12.5717 19.6151
1163 1 5.41762 14.361 19.5266
1661 3 3.62441 14.4459 21.339
2151 3 7.18468 12.4758 19.6155
2150 2 5.31517 12.5565 21.3247
2149 1 3.59918 12.507 19.5311
3160 2 7.04742 14.1351 21.3008
1662 1 9.19258 14.072 19.6265
2153 2 8.96362 12.4586 21.4087
2152 3 10.8497 12.2735 19.5832
2658 1 10.661 14.1244 21.4501
2155 1 14.5295 12.5711 19.5574
2154 1 12.3455 14.293 19.788
2660 1 14.6845 14.3946 21.3167
2659 2 12.6939 12.5498 21.3113
535 3 17.7844 12.5877 19.6785
1164 3 17.884 14.3851 21.4429
2156 1 16.1527 14.747 19.6166
2661 3 16.1204 12.4637 21.4561
1165 2 0.227635 17.8913 21.446
2157 1 1.66876 18.1915 19.5648
2662 1 -0.0309412 16.1399 19.614
3161 2 1.95323 16.2725 21.5364
1664 2 7.18018 17.803 21.4736
1663 2 3.63989 17.92 21.5771
2664 3 3.56722 16.2982 19.5737
2663 1 7.1732 16.0002 19.625
3163 3 5.34471 16.1372 21.4652
3162 2 5.43888 17.9487 19.6291
536 3 10.6823 17.8272 21.5834
2665 3 10.6671 16.019 19.5663
3164 2 9.07789 17.8901 19.6635
3655 1 8.85703 15.9366 21.4228
2666 2 12.531 18.0163 19.7565
3166 1 14.1021 16.1258 19.666
3165 1 14.4179 18.0426 21.428
3656 1 12.377 16.0642 21.2555
92 2 16.0534 16.2952 21.4166
91 3 18.1061 17.9693 21.3679
1166 3 17.9871 16.1482 19.7552
3167 3 15.9555 17.8195 19.5388
93 3 1.81001 1.9357 24.9281
1665 1 1.83565 0.14985 23.1845
2667 3 0.0217468 0.0913583 24.9295
3168 2 0.179998 1.91972 23.1232
2158 2 5.49428 0.233853 23.4489
2670 2 3.72119 0.0348769 24.8931
3170 2 7.35063 1.87082 23.1246
3169 1 3.6118 2.07299 23.3097
3659 2 7.19364 0.103733 24.9209
3658 2 5.62541 1.77941 24.9816
537 2 9.0065 2.0743 25.0478
2671 3 9.07413 0.191968 23.3476
3171 2 10.893 -0.0529492 24.9867
3660 1 10.9031 1.60168 23.2184
2673 1 12.5763 -0.0666384 23.1375
3663 3 14.342 1.81477 23.0718
3662 1 14.2915 0.15391 25.0254
3661 3 12.6145 1.98614 24.9672
539 2 16.2293 1.87092 25.0999
1167 2 18.0049 0.305595 25.0886
1668 1 17.8218 1.9081 23.1821
2160 1 16.0517 0.205033 23.0656
99 2 1.86333 5.45883 24.9563
98 2 1.80685 7.18716 23.0993
97 1 0.100775 7.11232 24.9488
96 3 0.00647683 5.36021 23.2507
3173 1 1.77001 3.70971 23.2029
3172 1 0.120294 3.59539 25.0074
540 3 3.50242 7.23969 24.849
541 3 5.44482 7.15291 23.0994
542 2 7.37944 5.45033 23.1272
543 3 5.48943 5.47435 24.9123
101 2 7.17748 7.22314 24.8511
100 1 3.56883 5.35987 23.2219
2675 2 7.28896 3.72016 25.0123
3175 3 3.76696 3.65795 25.0071
3665 3 5.4889 3.8338 23.1961
546 2 9.04802 7.217 23.2617
547 3 9.04263 5.53134 24.9495
102 1 10.7007 5.46537 23.2246
1170 2 10.8096 7.37476 24.9135
3177 1 10.9561 3.61653 25.0475
3666 1 9.15021 3.75494 23.262
548 2 14.3638 5.33538 23.3382
549 3 12.5365 5.52961 24.9453
105 3 14.2903 3.73446 25.1329
1670 2 12.7287 7.28671 23.2509
3179 3 12.6176 3.58777 23.2317
3667 2 14.4015 7.23605 25.123
1172 1 15.8978 5.33353 25.0456
1672 3 18.033 3.67983 24.9673
1671 2 16.2047 7.14871 23.2205
2678 3 17.8962 7.21983 25.0312
2677 1 17.7247 5.36378 23.2726
3668 1 16.1725 3.59878 23.3615
550 3 -0.0244969 8.90709 23.1489
106 3 1.92457 10.8643 23.0634
1175 3 1.75953 8.90188 24.8488
3669 2 0.0605887 10.7824 24.8755
108 2 5.44217 10.6573 23.1311
1180 2 7.15518 10.7319 24.9056
1178 1 7.19601 9.15743 23.0589
1177 3 3.56881 8.99346 23.1268
1176 2 5.21501 8.94471 24.9949
3670 1 3.58703 10.8061 24.9636
551 2 10.84 10.6472 24.9609
552 1 8.99489 10.7763 23.2137
1181 3 8.89763 9.03601 24.9872
1674 2 10.7718 9.03783 23.2667
1182 3 12.8781 10.9276 23.2378
1676 3 12.6795 8.98998 25.1131
1675 1 14.3907 9.00446 23.2452
2163 2 14.2818 10.8473 25.2956
1183 3 16.0518 9.04305 24.9306
1677 1 15.8653 10.7755 23.3475
2165 3 17.9236 10.7214 24.9396
3671 1 17.9131 8.84993 23.2246
555 1 0.0997516 14.4893 24.9887
1184 1 1.92113 14.4925 23.2
1678 3 1.97738 12.6742 24.9273
2166 3 0.235218 12.7239 23.1337
113 2 7.16065 14.2298 24.802
1185 2 5.48585 12.624 24.9384
2170 2 5.43343 14.3673 23.0681
2169 3 3.74977 12.6721 23.0595
2168 1 3.80743 14.2008 24.8723
2167 2 6.99828 12.4832 23.1736
1680 3 10.7513 14.3528 24.8927
2171 2 10.9383 12.5401 23.2667
2682 1 9.06155 14.1745 23.2324
2681 1 8.99866 12.3474 25.0689
114 1 14.277 14.3512 24.9523
1681 1 12.5351 12.5309 25.0158
2684 2 14.3924 12.7027 23.2289
2683 2 12.5088 14.3613 23.0391
557 1 18.0418 12.5778 23.2007
2173 1 16.2624 14.3095 23.2629
2685 2 16.0541 12.3714 24.9326
3183 2 17.8935 14.3891 24.9402
1684 2 1.97654 16.0733 25.0743
1683 2 1.75698 17.9008 23.3038
2688 2 -0.0195425 16.1152 23.3278
2687 1 -0.03038 17.8559 24.9825
2175 2 7.06221 17.775 24.884
2174 2 5.54401 17.9467 23.1332
2689 3 3.78641 18.0421 24.946
3187 3 5.51733 16.1179 25.1514
3186 2 7.22564 15.8857 23.0122
3185 3 3.7732 16.1197 23.2861
1687 1 8.91009 17.7896 23.0492
1686 2 8.93476 16.0799 24.6834
2177 1 10.8161 17.7899 25.0803
3675 3 10.7338 16.1244 23.2339
2178 2 14.5191 17.9171 24.7602
2690 1 12.6473 17.8716 23.3149
3188 1 12.6601 16.2642 24.734
3676 1 14.4536 16.1159 23.1147
1187 2 17.9643 16.0929 23.1819
1186 2 17.8506 17.7821 24.8644
1689 3 16.0615 16.1306 24.9191
3189 2 16.3822 18.0825 23.1158
1188 3 0.2405 0.177796 28.5113
2180 3 1.90537 1.82238 28.6312
2668 2 1.87256 0.24895 26.721
3657 3 -0.137068 1.88431 26.7164
559 3 7.27683 0.167525 28.262
94 1 7.22534 1.92398 26.7322
1189 3 3.91696 0.032457 28.4666
1666 2 5.41427 -0.066043 26.5524
2181 1 5.35291 1.9675 28.5558
2669 1 3.80483 1.79954 26.6534
560 3 10.671 0.224324 28.2346
95 2 9.0594 -0.116664 26.6193
2182 1 8.82226 1.93585 28.3893
2672 3 10.7165 2.02536 26.6862
538 3 14.3631 1.88423 26.7427
1667 1 12.533 0.214115 26.7078
2184 2 12.5364 1.83881 28.489
2183 2 14.1836 0.177258 28.5809
2159 2 17.7744 1.80932 26.8965
3193 3 16.1419 1.8809 28.7019
3679 1 17.8783 0.116649 28.6518
3664 3 16.0186 -0.0278001 26.775
1168 1 1.96288 3.58703 26.6306
1669 3 2.00749 7.27078 26.704
2186 2 0.116337 7.04593 28.5263
2185 3 0.237668 3.52853 28.3561
2674 1 0.0346353 5.48592 26.7408
3194 1 1.89572 5.49112 28.395
544 2 3.79152 5.32612 26.6452
563 3 7.27118 7.10138 28.5617
1691 1 7.22586 3.63 28.4962
1690 1 3.55904 3.69576 28.4395
2676 1 7.19476 5.48521 26.6468
3196 2 3.55095 7.22196 28.5079
3195 2 5.46669 5.39225 28.5313
3176 3 5.60919 3.66023 26.82
3174 3 5.49311 7.10661 26.6446
545 2 10.8247 5.60047 26.7927
1171 1 8.95681 3.84099 26.6688
1169 1 8.84716 7.19589 26.8423
2694 1 10.6621 3.59669 28.6242
3197 3 8.9455 5.37226 28.496
3681 1 10.5508 7.20763 28.8026
104 2 12.3874 3.77397 26.7257
103 3 14.216 5.5457 26.8647
2695 2 14.2581 3.67378 28.3596
3178 1 12.5042 7.2221 26.9175
3684 2 14.2537 7.23311 28.3793
3683 2 12.4924 5.49357 28.4959
622 2 17.7374 3.71472 28.5872
1004 1 17.824 7.20718 28.606
1174 1 16.0254 7.06809 26.6181
1173 2 17.815 5.50162 27.0315
3180 2 16.1961 3.72504 26.8084
3685 3 15.9758 5.42977 28.5168
1673 1 0.189366 8.85999 26.6297
2161 1 1.98928 10.6335 26.6842
2696 3 0.200225 10.6282 28.4286
3687 2 1.90038 9.13263 28.4966
122 3 7.29085 10.7711 28.4674