ITEM: TIMESTEP
5000
ITEM: NUMBER OF ATOMS
4000
ITEM: BOX BOUNDS pp pp pp
1.3505521145485844e-01 3.5599004788545031e+01
1.3505521145485844e-01 3.5599004788545031e+01
1.3505521145485844e-01 3.5599004788545031e+01
ITEM: ATOMS id type x y z
563 2 0.169451 0.0689844 0.0864634
1064 3 2.14192 2.03706 -0.0444218
1563 3 2.00845 0.206422 1.75968
2064 3 0.0536459 1.84183 1.94101
1 2 3.76213 1.88187 1.96387
565 2 7.39912 0.0601528 0.13006
2065 2 7.358 1.77719 1.73744
2565 3 3.91711 0.0869257 0.200414
3064 2 5.49139 1.88729 0.0971286
3564 1 5.40524 0.235085 1.82331
2 2 10.7739 2.03549 1.98808
1066 2 9.01324 1.91073 0.161853
1564 2 9.05298 0.134233 1.91215
2566 2 10.8568 0.392204 0.23635
567 1 14.231 0.158271 0.161857
2066 3 14.3512 1.85941 2.07958
3066 2 12.7018 1.93142 0.217625
3565 3 12.67 0.0412914 2.11284
751 2 17.8864 0.210362 0.17171
1068 2 16.0131 2.04491 0.0286989
1565 2 16.1838 0.15176 1.77386
2001 2 17.7964 1.99616 1.89192
3 1 0.139917 5.34365 1.88261
573 2 0.198575 7.07404 0.112569
1568 1 2.01303 7.1039 1.94173
2569 3 0.301567 3.72572 0.0537794
3068 2 2.03702 5.50414 0.160267
3566 1 2.01782 3.42151 1.82979
4 3 7.343 5.36726 1.87747
569 2 3.71563 3.7545 -0.0150738
577 2 7.25998 7.34219 0.29236
1070 3 5.55194 5.72374 0.0459501
1566 1 5.59807 3.45766 1.64713
2067 1 3.73568 5.26188 1.86841
2576 3 3.66928 7.3097 0.130374
2571 2 7.37875 3.70305 0.0271236
3570 1 5.49334 7.16377 1.82246
570 3 10.8207 3.77044 0.109316
1570 3 9.03944 7.22341 2.00896
2068 2 10.6937 5.4779 2.06755
2578 2 10.7084 7.185 0.41682
3070 3 9.06811 5.54309 0.247945
3567 3 9.09406 3.68636 1.90136
5 3 14.3709 5.4375 1.9341
581 2 14.4949 7.12312 0.142406
1072 2 12.494 5.43775 0.203388
1567 1 12.4518 3.77222 2.02368
2573 1 14.2779 3.67515 0.319808
3572 2 12.5891 7.15141 1.89913
253 3 17.7243 5.40182 1.93623
761 3 17.7436 7.23451 0.156933
1572 1 16.0165 7.21767 1.88404
2819 2 17.805 3.55898 0.0701638
3072 2 16.1294 5.42522 0.119656
3568 3 16.0297 3.70914 1.91554
1074 3 1.83976 8.9623 0.117755
2069 3 0.0513821 8.78823 1.75869
2574 3 0.15106 10.8037 0.220921
3569 1 1.86082 10.6772 1.97394
6 3 3.71069 8.88113 1.99775
575 2 3.49144 10.6388 0.289534
1569 1 5.38876 10.74 2.06557
2070 1 7.17405 9.03405 2.01772
2579 1 7.2532 10.7905 0.201352
3074 3 5.39409 8.98061 0.029739
7 1 10.8153 8.97794 2.07215
578 3 10.6875 10.7294 0.34826
1076 3 8.97628 8.9978 0.226505
3571 3 9.06462 10.7782 1.89906
1571 2 12.4608 10.8489 2.07435
2071 3 14.3295 9.08055 1.93599
2582 2 14.2973 10.706 0.073887
3076 1 12.4288 9.09141 0.259189
1078 1 16.1077 9.12167 0.196444
2006 2 17.8297 9.00413 1.87461
2825 3 17.9198 10.7417 0.26633
3573 3 16.2078 10.8274 1.98488
8 3 0.213623 12.5361 2.0497
583 2 0.219008 14.3079 0.144608
1573 2 1.97681 14.3035 1.95331
3078 1 2.06372 12.5963 0.21257
9 2 7.04142 12.6483 1.93995
585 2 7.26039 14.3717 0.171367
1080 1 5.35731 12.457 0.0941412
2072 2 3.78259 12.4949 2.05429
2585 3 3.65049 14.3375 0.278744
3574 1 5.42201 14.2672 1.86309
1574 3 8.96038 14.3125 1.93084
2073 1 10.6107 12.5378 1.95362
2586 3 10.7621 14.2255 0.229799
3080 2 9.06249 12.5415 0.219272
10 1 14.2718 12.4132 2.08525
587 2 14.4453 14.1419 0.208695
1082 2 12.6216 12.4772 0.347391
3575 3 12.5452 14.3236 2.13109
258 1 17.8104 12.4619 1.98403
771 3 17.7873 14.2773 0.215616
1575 3 16.0661 14.2622 2.04896
3082 1 16.0666 12.26 0.0315954
626 2 -0.0013448 17.7448 0.204993
1084 1 1.74608 16.1483 0.175752
1688 1 1.832 17.8146 1.80531
2074 2 -0.0417191 15.9939 1.87525
11 2 3.7854 16.3373 2.18162
630 2 7.24403 17.9205 0.355797
2075 3 7.23633 16.2344 2.06027
2691 3 3.75544 17.968 0.0873425
3084 1 5.54686 16.0727 0.189555
3690 1 5.53735 17.8564 1.98251
12 3 10.8609 16.0442 1.88628
1086 2 9.17815 16.1958 0.213519
1690 1 9.21687 17.8506 1.91041
2693 3 10.9611 17.8409 0.205178
634 2 14.2545 17.9451 0.0480028
2076 1 14.32 16.1192 2.33469
3086 1 12.8115 16.0579 0.418859
3692 1 12.5015 17.7468 2.00411
876 1 17.6936 17.895 0.0619668
1088 1 15.8779 16.0889 0.366551
1692 1 16.1544 17.8826 2.06513
2011 2 17.9501 16.0543 2.12066
13 2 0.213422 1.91324 5.51396
588 3 -0.0687119 0.16663 7.26961
1089 1 1.75615 1.89539 7.26881
2564 1 0.231294 0.0729878 3.76173
3063 2 1.96631 1.70782 3.72427
3576 2 1.77124 0.0960105 5.39578
14 3 7.20605 2.10291 5.29823
564 1 3.64652 0.271474 3.65791
1065 2 5.59211 1.97979 3.545
1577 3 3.56903 0.0964508 7.11169
1576 2 5.3979 0.199848 5.27878
2078 1 5.34153 1.80946 7.27611
2077 2 3.79214 1.80449 5.49639
2589 3 7.24737 0.265864 7.29498
2567 2 7.20724 0.26901 3.68218
566 2 10.7102 0.192493 3.63292
2079 3 10.6009 1.87286 5.48962
3065 1 8.96438 1.90031 3.39283
3088 2 8.91653 1.92875 7.22843
3578 2 10.8993 0.202987 7.17474
3577 1 9.00942 0.0755498 5.41759
15 3 12.3661 1.9661 7.08936
16 3 14.457 1.84133 5.57227
589 3 14.1782 0.0692319 7.19099
1067 2 12.5683 1.86609 3.61833
1578 1 12.4435 0.220937 5.42614
2568 3 14.4004 0.0887376 3.81143
263 2 18.0022 1.95271 5.55338
776 1 17.8861 0.0531831 7.32895
1090 2 16.3295 2.04602 7.16109
2815 3 17.7486 0.120614 3.57737
3067 1 16.2415 1.91342 3.77139
3579 2 16.1759 0.105365 5.48642
568 2 0.158107 3.56891 3.54908
1069 2 1.99867 5.26713 3.47519
1580 1 0.201732 3.65302 7.19773
1579 2 1.84051 3.6161 5.40124
2081 1 2.01962 5.4156 7.28858
2080 1 0.364781 5.29885 5.37659
2591 3 0.270601 7.17351 7.23612
2575 1 0.159764 7.02466 3.51926
3583 2 2.06417 7.05358 5.44614
17 2 3.7209 5.27462 5.41273
571 3 7.19452 3.66554 3.53259
592 3 7.10131 7.13142 7.29681
576 2 3.67883 7.1122 3.62355
1585 3 5.49149 7.18337 5.37246
2082 3 7.30467 5.42589 5.49649
2590 2 3.68955 3.55466 7.39645
2580 3 7.34153 7.17293 3.50211
2570 1 3.6569 3.50909 3.71245
3069 1 5.43241 5.4445 3.64075
3089 2 5.42404 5.32151 7.35078
3586 3 3.77151 7.14515 7.18403
3581 1 7.29381 3.69459 7.32217
3580 3 5.32064 3.61594 5.45258
18 3 10.7322 5.4008 5.47593
19 2 9.0056 5.63924 7.36886
590 1 10.7301 3.88739 7.22127
579 3 10.6799 7.13318 3.74715
1071 1 9.03365 5.15579 3.66577
1587 2 10.735 7.28678 7.34897
1581 3 8.99011 3.67539 5.45377
2572 2 10.6711 3.64857 3.80365
3587 1 8.73933 7.33479 5.38317
572 3 14.4906 3.76332 3.70489
1091 2 12.5223 5.43646 7.39081
1589 2 12.5654 7.07584 5.54631
1583 1 14.3038 3.71042 7.24598
2083 2 14.4205 5.42712 5.56043
2593 1 14.3599 7.02664 7.17496
2583 3 14.3717 7.15961 3.72021
3071 1 12.7246 5.64169 3.81865
3582 1 12.7302 3.69235 5.41869
757 3 17.8072 3.7217 3.72405
1073 1 16.2396 5.52962 3.81977
1768 2 18.1086 3.75076 7.27288
1582 2 16.1331 3.65899 5.4886
2084 3 16.2157 5.41573 7.18367
2017 2 18.0066 5.54189 5.41461
2841 2 17.91 7.23955 7.31255
2826 1 17.8882 7.18945 3.68495
3589 2 16.2274 7.09816 5.49595
20 3 0.302907 9.05463 5.39392
574 1 0.259346 10.795 3.70061
1584 3 2.01787 10.7303 5.31828
3073 2 1.98878 8.81679 3.65295
3090 3 1.98004 9.03989 7.14482
3584 1 0.252407 10.7775 7.2266
21 2 5.51829 8.93432 6.99096
22 1 7.2248 8.95987 5.26147
591 3 3.7836 10.6233 7.11067
580 1 7.21257 10.8658 3.59946
1075 2 5.41607 8.86556 3.77277
1588 2 7.16937 10.6424 7.26441
2085 1 3.66641 8.85897 5.45894
2577 3 3.67244 10.703 3.77511
3585 3 5.434 10.9421 5.29928
1092 2 8.75283 8.8826 7.19636
1586 1 9.10852 10.6076 5.28362
2086 3 10.6698 8.6639 5.49562
2592 2 10.5834 10.6773 7.17127
2581 2 10.803 10.7111 3.72622
3075 2 9.04113 9.04625 3.66917
23 1 14.3523 8.72476 5.4224
582 1 14.2152 10.6311 3.96164
1077 3 12.4583 8.75726 3.91106
2087 3 12.5664 8.73761 7.25104
3590 1 14.2929 10.5621 7.10014
3588 1 12.4382 10.6261 5.64158
270 1 17.8651 8.84341 5.29674
764 1 17.7563 10.5764 3.75849
1590 3 16.1546 10.6257 5.61825
3091 1 16.1105 8.84749 7.4023
3077 3 16.0585 8.90501 3.71571
3835 1 17.7278 10.586 7.30467
24 1 1.84974 12.6317 6.96756
593 2 0.142366 14.4469 7.23563
1079 3 1.99663 12.6196 3.72312
2088 1 0.0767405 12.6584 5.33636
2584 1 0.114467 14.372 3.72878
3591 3 1.86151 14.395 5.60332
25 3 3.74658 12.5746 5.44899
584 1 3.51521 14.3036 3.70918
1093 1 5.50804 12.4832 7.22255
1592 3 3.85755 14.2517 7.24253
1591 3 5.5038 14.2835 5.40113
2089 3 7.32231 12.4767 5.34194
2594 3 7.2591 14.3819 7.174
2587 1 7.15439 14.1832 3.67857
3079 3 5.44657 12.5555 3.61794
26 2 10.6882 12.6092 5.53483
586 1 10.7347 14.3765 3.79983
1081 2 9.06571 12.4424 3.69245
2090 1 8.92961 12.4792 7.28547
3593 1 10.7509 14.4174 7.29838
3592 3 8.81726 14.4305 5.38996
594 1 14.3651 14.3095 7.19763
1593 2 12.5366 14.3367 5.5448
2091 1 14.3359 12.5241 5.53373
2588 2 14.4031 14.3376 3.88733
3092 3 12.6271 12.4522 7.29939
3081 3 12.4541 12.5431 3.91411
27 3 16.051 12.4361 7.23492
781 1 17.8064 14.1096 7.43154
1083 3 16.0928 12.3676 3.77939
2025 3 17.8612 12.4526 5.59089
2835 3 17.7673 14.2973 3.67129
3594 1 16.1558 14.0949 5.55792
28 1 0.0847821 16.0264 5.34793
651 2 0.150877 17.6726 7.23101
1094 2 1.95566 16.1055 7.24917
2690 3 0.0988151 17.8324 3.6149
3083 2 1.83211 16.1085 3.75703
3701 2 1.91706 17.8934 5.51157
29 1 7.07912 16.279 5.63483
629 2 3.66463 17.9896 3.95104
1085 3 5.44079 16.1355 3.7255
1704 3 3.62049 17.945 7.3461
1703 1 5.52108 18.0574 5.64785
2093 3 5.26486 16.2297 7.301
2092 1 3.57819 16.0768 5.30729
2715 2 7.32241 17.7131 7.39681
2695 2 7.41798 17.8575 3.80732
632 3 10.7557 17.8668 3.74634
2094 1 10.7672 16.1313 5.55212
3093 1 9.02103 16.0403 7.34316
3085 2 9.08563 16.0834 3.75668
3704 2 10.9074 17.8992 7.37013
3703 2 9.03797 17.974 5.67724
30 2 12.497 16.0137 7.18138
31 1 14.2804 16.1614 5.56646
653 1 14.3839 18.0024 7.41927
1087 2 12.4244 16.1503 3.74853
1706 3 12.5653 17.9632 5.57239
2698 3 14.3251 17.9704 3.96966
278 3 17.8049 15.9984 5.61181
901 1 18.0526 17.937 7.1702
1095 1 16.1117 15.9791 7.24323
2878 1 17.9262 17.936 3.82302
3087 2 16.1137 16.0626 3.88821
3707 2 16.1099 17.9932 5.55415
1594 2 1.77705 0.196168 8.87191
2095 2 -0.00521585 1.94532 8.94596
2595 2 0.143268 0.245177 10.7461
3094 1 1.79377 1.89258 10.8735
33 3 7.04495 1.99545 9.0615
595 3 3.65881 0.146472 10.9194
1096 1 5.32267 1.8982 10.6989
2597 2 7.12673 0.125063 10.8582
2596 1 5.50333 0.0873819 9.13207
3095 2 3.62558 1.81392 9.07488
596 2 10.6503 0.176732 10.7908
1097 2 10.6585 1.86273 9.0493
3096 1 9.11283 2.0339 10.6074
3596 1 8.84692 0.0860693 8.92058
597 1 12.5058 0.35803 8.89694
1098 3 12.5074 1.97823 10.8356
2098 2 14.4676 1.92038 8.84338
2598 3 14.3179 0.140576 10.8045
1597 3 16.0795 0.152745 8.93127
2032 2 17.8789 2.04118 8.91429
2845 1 17.7968 0.131521 10.7279
3097 2 16.1217 1.88852 10.7878
598 2 0.00436929 3.61291 10.7093
1099 2 1.75415 5.57243 10.7256
2603 2 0.0673218 7.26984 10.7877
2599 3 1.78483 3.46356 9.08962
3098 3 0.0136392 5.32873 8.98538
3602 2 1.82154 7.04062 9.07303
36 1 3.7385 5.3831 9.05718
605 3 3.71674 7.15049 10.7493
604 1 5.31015 7.32278 9.07352
600 3 7.30117 3.51266 10.8013
1100 3 7.00215 5.45629 9.09298
2606 3 7.16699 7.27429 10.8435
2600 2 3.66997 3.69028 10.7858
3099 2 5.46764 5.46717 10.8974
3599 2 5.31814 3.62367 9.00146
606 3 10.719 7.15475 10.6658
599 2 9.02031 3.81114 8.88549
1101 3 8.86836 5.46267 10.9135
1605 1 8.79667 7.17221 9.11672
2100 2 10.8094 5.40103 9.03935
2601 1 10.6919 3.70857 10.8458
601 2 14.4118 3.5657 10.5852
1600 1 12.4317 3.57573 9.05172
2609 3 14.23 7.3365 10.8659
2608 1 12.521 7.15802 9.12162
3101 2 14.2621 5.45498 8.98405
3100 3 12.5853 5.35166 10.7978
786 1 17.8118 3.6671 10.7617
1102 2 16.1973 5.46214 10.9353
2853 3 18.08 7.23106 10.704
2602 2 16.0876 3.68055 8.92525
3348 1 18.0788 5.38394 8.97884
3608 3 16.2213 7.01734 9.01716
39 3 0.188554 8.96646 8.88957
603 3 0.0369622 10.7281 10.5671
602 3 1.91402 10.8681 8.96805
3102 1 1.8543 9.02688 10.7485
607 1 7.22509 10.6781 10.8541
1104 3 5.37535 8.99585 10.8265
1103 2 3.57764 9.0111 9.14645
1603 1 5.27573 10.522 9.04984
2104 2 7.30788 9.12604 8.93985
2604 2 3.57068 10.6689 10.7836
2607 3 10.7068 10.7383 10.7988
2605 3 8.98675 10.7484 9.1258
3104 3 8.87936 8.98143 10.8031
3103 2 10.6687 8.99228 9.03188
42 1 14.2224 8.90172 9.03627
609 2 14.2782 10.6796 10.827
1105 3 12.5098 9.01257 10.7591
3606 1 12.4264 10.8242 8.99328
289 3 17.8942 8.93863 9.01343
792 3 18.0945 10.8144 10.8931
608 2 15.9792 10.5719 9.09411
3105 1 16.2363 8.81232 10.8035
1107 2 1.99458 12.5527 10.717
1106 2 0.0857056 12.6575 9.0015
1609 1 2.03173 14.1394 8.87918
2610 1 0.302265 14.2867 10.8524
610 3 3.69715 14.2955 10.7665
2107 2 3.98376 12.4684 8.80057
2612 2 7.21245 14.1197 10.7719
2611 1 5.53769 14.3299 9.03345
3107 1 7.22975 12.5231 8.84407
3106 3 5.45061 12.3961 10.7282
45 2 10.8553 12.5304 8.91054
611 1 10.7448 14.2577 10.7698
1108 1 8.96539 12.6378 10.5566
3611 2 9.02788 14.3164 9.02323
612 2 12.6067 14.2456 9.01852
1109 1 14.2966 12.4633 8.92213
2613 2 14.3658 14.219 10.7592
3108 1 12.5696 12.5661 10.7072
1293 3 18.0577 12.2109 8.79654
1110 3 16.0747 12.4149 10.7583
1612 1 16.2292 14.1842 8.90784
2860 3 17.9078 14.3664 10.7039
1719 3 1.77598 18.0198 9.07232
2110 3 0.166678 16.0726 9.04939
2721 3 0.00338125 17.7627 10.8526
3109 2 1.90802 16.0374 10.9707
48 1 7.27866 15.9464 9.1899
659 2 3.68502 17.6443 10.8448
1111 3 5.55633 16.1202 10.7991
2724 2 7.28481 17.5626 10.7748
2722 1 5.54264 17.9139 9.13818
3110 3 3.57293 16.043 9.11706
661 1 10.8057 17.9064 10.7527
1112 2 10.8371 16.0135 9.0979
3111 3 9.03931 15.9692 10.7961
3723 1 9.1622 17.9199 9.07368
663 1 12.4994 17.9221 9.04058
1113 2 12.5863 15.9743 10.9196
2113 1 14.2399 15.9483 9.05473
2727 2 14.5171 18.0579 10.6697
1725 1 16.1625 17.7915 9.16257
2047 3 17.9736 16.1533 8.95746
2908 2 17.7795 17.8574 10.8673
3112 1 15.99 15.99 10.6792
32 2 0.145611 1.92091 12.5104
613 1 0.0723547 0.0360936 14.2816
1114 2 1.7865 2.10296 14.1843
3595 3 1.78218 0.183166 12.6128
34 3 7.188 1.93743 12.6262
614 2 7.23087 0.0402545 14.216
1595 2 5.42909 0.296927 12.6655
2096 2 3.57293 2.09863 12.4934
2614 1 3.5017 0.454194 14.4052
3113 1 5.3103 1.86455 14.3283
1115 3 8.73859 1.81851 14.4104
2097 1 10.8403 1.91626 12.5802
2615 2 10.8907 0.165174 14.3202
3597 3 9.01452 0.243002 12.6165
35 2 14.2932 1.96335 12.4726
615 2 14.2232 0.13429 14.2702
1596 2 12.4569 0.0237588 12.6497
3114 3 12.5528 2.09043 14.2564
282 3 17.8553 1.82665 12.5521
801 3 17.9598 0.153865 14.3647
1116 3 16.1169 1.84216 14.2727
3598 2 15.945 0.0244806 12.5188
618 1 0.0657178 7.24768 14.2421
1598 2 1.80075 3.61945 12.4314
2099 2 0.026518 5.5046 12.5011
2616 2 -0.0551263 3.79057 14.1946
3115 3 1.87193 5.40659 14.2735
3603 2 1.9481 7.18624 12.4666
37 1 3.66573 5.40333 12.7257
620 1 7.09883 7.32602 14.2163
616 2 3.54649 3.58593 14.309
1117 2 5.37345 5.52792 14.268
1604 3 5.32776 7.20988 12.4714
2101 2 7.12659 5.56968 12.6383
2620 1 3.53486 7.21612 14.1703
2617 1 7.23484 3.78087 14.3553
3600 3 5.47444 3.74941 12.6339
38 3 10.7572 5.45446 12.4817
617 1 10.7477 3.63914 14.1792
1599 3 8.95059 3.64231 12.5935
2621 3 10.8307 7.12115 14.4054
3116 2 8.97873 5.4834 14.2401
3605 1 8.97923 7.23955 12.6157
622 1 14.5112 7.27776 14.1626
1118 1 12.6082 5.35194 14.2389
1607 1 12.3825 7.35254 12.5373
2102 1 14.4008 5.53306 12.5283
2618 2 14.4349 3.68993 14.2206
3601 2 12.6118 3.72065 12.5718
806 1 17.8762 7.32167 14.3914
1601 1 16.1159 3.71883 12.4967
2036 3 17.9318 5.59274 12.4546
2866 3 17.9138 3.69746 14.3471
3117 3 16.143 5.48733 14.3656
3609 2 16.1259 7.28123 12.6215
40 2 -0.0413195 9.02324 12.5368
1119 3 1.79049 8.86993 14.2208
1602 2 1.72666 10.5848 12.5282
2619 3 0.246459 10.8271 14.3541
41 1 7.23623 9.04969 12.5168
619 3 3.65053 10.7109 14.359
2103 1 3.54892 9.14156 12.5323
2622 1 7.11894 10.785 14.3721
3118 3 5.52077 8.95838 14.3117
3604 1 5.45296 10.8693 12.5338
621 1 10.8033 10.5765 14.3713
1120 2 8.94293 8.82724 14.3197
1606 1 8.99716 10.7734 12.6165
2105 2 10.6549 8.86308 12.5576
43 1 14.2852 8.94879 12.4792
2623 1 14.3683 10.6566 14.2826
3119 2 12.7172 8.97077 14.4377
3607 3 12.426 10.7143 12.6207
290 2 18.0266 8.94309 12.3591
1121 1 16.1051 9.05604 14.3997
1608 3 16.1763 10.7958 12.4908
2870 2 17.8574 10.9057 14.3809
623 1 0.0975973 14.3252 14.2326
2106 2 0.0945383 12.4157 12.3021
3120 2 1.80696 12.5516 14.1822
3610 2 1.9097 14.333 12.6145
44 2 3.56365 12.3358 12.5316
624 3 7.24957 14.2243 14.3842
1122 3 5.3631 12.6425 14.4214
1610 3 5.35249 14.1745 12.5788
2108 2 7.29277 12.5466 12.5156
2624 2 3.77641 14.2556 14.3624
46 3 10.7642 12.4482 12.6258
2625 1 10.7122 14.2848 14.2241
3121 2 9.03633 12.4698 14.2883
3612 3 9.05177 14.1782 12.466
625 1 14.4384 14.3496 14.2329
1123 3 12.5568 12.4881 14.414
1611 3 12.5413 14.237 12.6309
2109 2 14.381 12.3568 12.5022
811 2 17.8746 14.2848 14.2593
2044 1 17.899 12.4918 12.6151
3122 3 16.1794 12.4551 14.3146
3613 3 16.0742 14.0123 12.5096
47 2 0.0230762 15.9293 12.5736
676 3 0.0121993 17.9123 14.3006
1124 3 1.96579 16.1582 14.3931
3720 1 1.9166 17.7684 12.6996
49 1 7.38217 15.8908 12.5967
678 1 7.25627 17.778 14.2778
1721 1 5.52629 17.8147 12.567
2111 1 3.67297 16.0682 12.677
2740 2 3.77528 17.8096 14.2386
3123 3 5.47764 16.0281 14.2829
1125 3 9.0345 16.0826 14.2305
2112 3 10.8739 16.0921 12.5104
2741 2 10.696 17.9297 14.2003
3724 1 9.04855 17.8029 12.4696
50 2 14.3839 16.0166 12.5277
680 1 14.262 17.924 14.3146
1724 3 12.5591 17.8474 12.6361
3124 2 12.4613 16.0682 14.2629
297 3 17.7057 16.0259 12.4057
926 2 17.8782 17.9587 14.3885
1126 3 16.0938 16.0048 14.2059
3726 1 16.2003 17.972 12.3826
1613 2 1.83737 0.299101 16.1097
2114 2 -0.0439469 1.70862 16.0012
2626 3 0.182801 0.136642 18.031
3125 1 1.84263 1.99454 18.017
51 2 3.72085 2.00905 16.0301
502 1 3.49312 0.216828 17.9685
1128 1 5.29778 1.95262 17.8549
2115 2 7.12533 2.01989 16.1377
2628 2 7.11671 0.228855 17.8371
3614 1 5.39341 0.21357 16.0891
52 3 10.7483 1.86371 16.068
503 1 10.8021 0.181996 17.9271
1614 2 8.97468 0.224081 16.0938
3127 1 8.80134 1.99776 17.8869
1130 1 12.5716 1.85518 17.8392
2116 1 14.2243 1.9469 16.0463
2630 1 14.1903 0.202908 17.7905
3615 2 12.4979 0.0933322 16.177
1615 1 16.1453 0.0870727 16.1968
2051 3 17.8337 1.91528 16.224
2501 3 18.0306 0.219916 17.8712
3129 2 15.7753 1.92842 17.8196
53 1 0.185473 5.44942 16.2238
506 2 0.117718 3.73745 17.6529
1132 3 1.89653 5.42561 17.8937
1618 1 1.91431 7.10883 16.0869
2636 3 0.206019 7.23989 17.8078
3616 3 1.81561 3.64285 16.0321
54 1 7.22717 5.40415 16.026
508 3 7.18303 3.89637 17.7604
513 3 3.65472 7.3026 17.9389
1616 3 5.29745 3.76397 15.9868
2117 1 3.542 5.50272 16.0613
2640 2 7.11949 7.24843 17.8456
2632 3 3.61617 3.73834 17.8868
3131 2 5.57481 5.56966 17.841
3620 2 5.20764 7.14128 16.0657
515 1 10.8358 7.39474 17.902
1134 3 8.89524 5.45552 17.7667
1620 1 8.98895 7.04793 16.1452
2118 2 10.6801 5.47466 16.0615
2633 1 10.8542 3.77806 17.8618
3617 3 9.0603 3.59315 16.0033
55 3 14.3917 5.61767 16.0151
510 2 14.2466 3.54636 17.9691
1617 2 12.4974 3.75833 15.9829
2644 2 14.2092 7.31777 17.8395
3133 1 12.4758 5.46002 17.8258
3622 2 12.6168 7.23479 16.0676
303 1 17.9949 5.50105 16.2856
819 1 17.7793 3.59712 17.8345
1136 3 16.1172 5.44975 17.7574
1622 3 16.1263 7.34049 16.1279
2511 2 17.9798 7.34088 17.8466
3618 3 16.1636 3.70377 16.1897
511 1 0.233432 10.8019 17.8909
2119 2 0.0786312 8.94718 15.8773
3135 1 2.00678 9.19703 17.9656
3619 3 1.926 10.8117 16.1307
56 2 3.56684 8.91614 15.9631
516 2 7.10963 10.7962 17.9378
1138 1 5.36946 9.04837 17.7069
1619 1 5.43493 10.8881 16.0409
2120 1 7.16493 9.11546 16.0736
2638 3 3.69535 10.7597 17.9644
57 2 10.9148 8.97598 16.1319
2641 1 10.7048 10.8439 17.8234
3137 2 9.0898 9.00553 17.9109
3621 1 9.09462 10.7081 15.8461
519 1 14.4437 10.8849 17.8104
1140 1 12.5777 8.92454 17.8673
1621 2 12.4626 10.7239 16.084
2121 2 14.3088 9.04661 16.1165
825 2 17.8824 10.7229 17.871
2056 2 18.0389 9.02902 15.9743
3139 1 16.1479 9.00665 17.8798
3623 3 16.0576 10.8588 15.9196
58 2 0.216538 12.6147 16.0756
1142 3 1.92723 12.6725 18.0177
1623 3 1.99715 14.2289 16.1266
2646 2 0.130726 14.21 17.8189
59 1 7.32019 12.5042 16.1298
522 1 3.79524 14.211 17.8889
2122 3 3.65371 12.5014 16.2417
2648 1 7.08412 14.2734 17.854
3141 2 5.45386 12.6153 17.9411
3624 1 5.5577 14.3656 16.2067
523 3 10.849 14.2175 17.7458
1144 3 8.73436 12.4998 17.8896
1624 1 9.03978 14.4147 16.0003
2123 2 10.5098 12.5131 16.0064
60 2 14.4505 12.6699 15.9764
2650 1 14.4212 14.4966 17.8336
3143 1 12.4837 12.3812 17.6546
3625 1 12.6384 14.3697 15.8717
308 1 17.8941 12.7445 16.1952
1146 1 16.0803 12.6386 17.7385
1625 2 16.2234 14.3587 16.1665
2521 3 17.8865 14.4277 17.8681
1738 1 1.80736 17.8582 16.0471
2124 3 0.166444 15.9031 16.2026
2751 3 0.0379202 17.8536 17.8059
3145 1 1.91092 16.059 17.8985
61 1 3.68663 16.253 16.1267
691 2 3.5642 18.0107 18.0183
1148 3 5.3488 16.2246 17.8611
2125 3 7.23307 16.097 16.0674
2755 1 7.03627 17.8639 17.9314
3740 1 5.45312 17.9942 15.988
62 3 10.9054 16.123 15.9842
693 2 10.7611 18.0755 17.8837
1740 1 9.00025 17.9591 16.189
3147 2 9.08183 16.3118 17.7603
1150 2 12.5873 16.0605 17.7278
2126 2 14.378 16.0754 16.0985
2759 1 14.3606 17.7812 17.8224
3742 3 12.5462 17.8086 16.0503
1742 3 16.1794 18.0552 16.0993
2061 2 17.877 16.1251 16.1611
2938 3 17.8781 17.8905 17.8628
3149 1 16.022 16.0327 17.6892
501 1 0.13925 0.318704 21.3695
63 2 -0.00416797 1.94949 19.5945
1127 2 1.87858 1.86244 21.4855
3626 3 2.02056 0.223934 19.6861
504 1 7.28272 0.254705 21.3948
64 2 7.03866 1.99469 19.5671
1626 1 5.27972 0.332226 19.606
2127 3 3.56453 2.03684 19.7252
2627 2 3.56145 0.142695 21.5755
3126 3 5.37754 1.9877 21.4718
1129 2 8.92421 2.01159 21.2233
2128 3 10.6809 2.0437 19.4242
2629 3 10.706 0.347127 21.2824
3627 3 8.96408 0.319293 19.5787
505 1 14.313 0.285276 21.4314
65 1 14.4715 1.84587 19.6984
1627 3 12.463 0.0628524 19.6148
3128 1 12.53 1.9315 21.3056
815 2 17.7261 0.267481 21.3505
313 1 17.7216 2.01974 19.7797
1131 1 16.1405 2.28469 21.5922
3628 1 16.0323 0.0994713 19.7932
512 3 0.0786277 7.28043 21.4487
1628 1 1.79735 3.68159 19.7119
2129 1 0.183695 5.37845 19.6136
2631 1 0.152475 3.71622 21.4544
3130 1 2.06303 5.62487 21.4234
3631 1 1.94118 7.25792 19.5766
507 1 3.82039 3.87448 21.4926
517 2 7.1499 7.38392 21.3403
66 2 3.77503 5.53079 19.7116
1133 1 5.55764 5.61237 21.3068
1632 2 5.47631 7.17944 19.6038
2130 2 7.20899 5.53447 19.6155
2639 1 3.69536 7.37516 21.3736
2634 3 7.19743 3.60487 21.3255
3629 1 5.55535 3.74592 19.5471
509 1 10.7363 3.70343 21.4289
67 1 10.816 5.26682 19.5125
1629 2 8.8379 3.87141 19.5661
2642 1 10.8166 7.31399 21.467
3132 3 8.8834 5.69594 21.5276
3633 2 9.0151 7.08011 19.6013
520 1 14.524 7.21703 21.4058
1135 3 12.3999 5.48895 21.3828
1634 1 12.5529 7.25429 19.7229
2131 1 14.275 5.55933 19.5886
2635 3 14.2177 3.9218 21.491
3630 3 12.6393 3.74181 19.616
826 2 17.7296 7.18402 21.4823
1630 2 16.0052 3.71006 19.5856
2316 1 17.8063 5.5324 19.7112
2507 3 17.9131 3.66089 21.4879
3134 3 16.1064 5.40467 21.4607
3635 3 16.0757 7.1474 19.5001
68 3 0.113464 8.95428 19.6461
1137 1 1.77121 8.96786 21.5172
1631 1 1.98968 10.8427 19.8193
2637 2 0.0285088 10.8708 21.4338
514 2 3.82314 10.7977 21.4514
69 1 7.24341 8.90703 19.583
2132 2 3.79803 8.95196 19.7638
2643 2 7.20699 10.7396 21.4857
3136 1 5.4167 9.1397 21.5587
3632 1 5.47299 10.8143 19.5936
518 1 10.9891 10.7325 21.5115
1139 1 9.03394 9.07832 21.233
1633 3 8.88866 10.8282 19.6231
2133 3 10.6906 8.94424 19.6594
70 3 14.3604 9.02508 19.6458
2645 1 14.1646 10.7111 21.3567
3138 2 12.5036 8.98485 21.3638
3634 3 12.7052 10.9232 19.5512
318 1 17.7007 9.15852 19.5333
1141 2 16.1205 9.15434 21.3596
1635 2 16.0159 10.8028 19.7177
2514 3 17.7809 10.9916 21.2185
521 3 0.30284 14.3623 21.5097
2134 1 0.124218 12.5377 19.695
3140 1 1.84021 12.5632 21.5825
3636 1 1.97705 14.472 19.7671
524 1 7.21221 14.2101 21.4557
71 2 3.7612 12.5921 19.7768
1143 1 5.43887 12.568 21.4545
1636 2 5.35865 14.4569 19.5874
2135 3 7.15923 12.5152 19.7816
2647 2 3.62697 14.2565 21.422
72 3 10.6701 12.5539 19.5493
2649 2 10.7377 14.2702 21.3742
3142 1 9.01489 12.4596 21.4384
3637 2 8.98094 14.3175 19.8149
525 3 14.3459 14.2787 21.3833
1145 2 12.508 12.697 21.3873
1637 1 12.4996 14.1276 19.4425
2136 2 14.2795 12.6219 19.522
835 3 17.6136 14.2514 21.3798
2321 3 17.7831 12.5646 19.4582
3144 2 15.9647 12.5893 21.4378
3638 1 15.9249 14.5688 19.5528
690 3 0.027539 17.9417 21.136
73 2 0.152702 16.1258 19.6696
1147 2 1.86463 16.2054 21.3325
3751 1 1.82589 17.7159 19.6204
695 1 7.1206 17.8321 21.483
74 2 7.22021 15.888 19.6588
1502 2 5.3106 17.7801 19.6096
2137 1 3.61579 16.0382 19.6139
2754 3 3.66473 17.8315 21.4114
3146 2 5.57972 16.1849 21.4435
1149 2 8.97676 16.2177 21.5401
2138 3 10.7888 15.9553 19.4776
2757 3 10.7549 17.9505 21.3311
3753 2 8.91766 17.9093 19.5705
698 2 14.1108 17.795 21.3486
75 1 14.0359 16.2112 19.5887
1504 2 12.4975 18.0175 19.4651
3148 2 12.398 16.0085 21.4109
941 1 17.9552 17.7774 21.3885
323 2 17.9502 15.9464 19.691
1151 3 15.906 16.1809 21.3228
3755 3 16.0981 17.9495 19.5144
1638 2 1.85269 0.0896314 23.3204
2139 1 0.182448 1.85009 23.2147
2651 3 0.107433 0.223572 24.966
3150 2 1.88113 1.97146 25.069
526 1 7.31232 0.248926 24.8801
77 3 5.5457 2.01388 24.8622
76 1 3.63244 1.88448 23.4045
2140 3 7.3347 1.95719 23.1726
3640 3 3.75931 0.139751 25.0298
3639 1 5.55197 0.218437 23.2432
78 1 10.6905 1.99481 23.1299
1152 2 8.97824 1.98395 24.9853
1640 1 10.8531 0.21989 24.9615
1639 2 9.05681 0.16734 23.1693
2142 3 14.3534 2.05163 23.1637
2141 2 12.5391 1.93792 25.15
2652 1 14.2663 0.233007 24.948
3641 2 12.6459 0.170186 23.1629
1641 3 16.1335 0.27724 23.3151
2326 2 17.8594 1.96464 23.1194
2526 2 17.8914 0.282989 24.8706
3151 1 16.0066 2.13073 25.0042
528 1 -0.0790198 7.21154 24.985
80 2 1.84678 5.52873 24.8827
79 1 0.0769699 5.53754 23.1156
1645 3 1.9453 7.26189 23.1344
3643 1 0.0382074 3.55376 24.8756
3642 3 1.92289 3.63002 23.2034
527 1 3.74492 3.64372 25.1061
81 2 7.14807 5.57589 23.1424
1153 3 5.41773 5.56818 25.0466
1648 3 3.68765 7.24059 24.99
1643 1 7.22361 3.80398 25.0339
1642 1 5.51918 3.73454 23.1569
2143 1 3.76123 5.3986 23.2395
2655 3 7.02349 7.24174 25.0401
3648 3 5.28382 7.18904 23.2495
1649 2 8.85133 7.2539 23.2928
2145 3 8.92669 5.59475 24.949
2144 3 10.7265 5.79512 23.2957
2653 1 10.6814 3.83492 25.0805
3650 2 10.8197 7.35343 25.0504
3644 3 8.93842 3.9047 23.1571
530 1 14.3604 7.30577 24.8628
82 3 14.1522 5.53754 23.2989
1644 1 12.2848 3.8536 23.2128
3152 2 12.4618 5.59372 24.9421
3652 1 12.5589 7.16777 23.2507
3646 1 14.2212 3.74553 24.8763
841 1 17.9619 7.11102 24.9068
329 2 17.8988 5.54493 23.2535
83 2 16.201 5.46115 25.0822
1651 3 16.1083 7.36815 23.2302
3893 2 17.9832 3.79826 24.9631
3645 3 16.08 3.87556 23.2215
1154 2 1.90442 9.03202 25.0431
1646 1 0.0974423 10.684 25.0425
2146 2 0.158169 8.97522 23.1469
3647 2 1.98624 10.8422 23.2584
84 3 3.61885 9.00689 23.2345
1647 2 5.26295 10.7762 23.3283
2148 2 7.18252 9.08712 23.1576
2147 1 5.41721 9.1008 24.911
2654 2 3.50747 10.692 25.0216
3651 3 7.27299 10.9169 24.9816
529 2 10.8347 10.7611 25.0687
85 2 10.7799 8.91249 23.2006
3153 2 9.09848 9.11241 25.077
3649 1 9.35735 10.8731 23.1139
86 3 12.6763 9.00743 24.9002
1652 1 14.2607 10.7764 24.7885
1650 1 12.5089 10.7115 23.249
2149 2 14.2745 9.14108 22.8737
1155 1 16.2563 9.14698 24.8541
1835 2 18.0656 10.9812 25.0122
2333 1 17.9425 9.26754 22.956
3653 2 16.0348 10.9044 23.0818
87 1 0.140192 12.5684 23.309
1653 3 1.95075 14.3982 23.2344
2150 2 1.83057 12.5546 24.9345
2656 2 0.134002 14.3413 24.9115
531 3 7.20146 14.2495 24.9728
88 3 7.30753 12.5034 23.1192
2151 2 3.61553 12.5995 23.2908
3154 3 5.24497 12.6421 24.9788
3655 3 3.52803 14.3127 24.8942
3654 1 5.40982 14.3318 23.2881
89 3 9.26399 12.4938 24.9217
1655 1 10.6817 14.3424 25.0449
1654 2 9.05253 14.2993 23.1715
2152 1 10.9079 12.6445 23.312
90 3 14.1968 12.6043 23.2211
1156 2 12.6046 12.4691 25.0067
2657 2 14.3095 14.3722 25.1921
3656 1 12.4458 14.3512 23.228
337 3 17.8687 12.575 23.1084
1656 3 15.9742 14.2199 23.3382
2153 1 16.0855 12.6002 24.8218
2531 2 17.7909 14.3343 24.9885
1513 3 1.99757 17.7919 23.0856
2154 3 0.185756 16.1551 23.2229
2776 3 0.0400808 18.0835 24.9733
3155 1 1.77439 16.1626 24.98
715 1 7.16763 17.9344 24.9518
92 3 5.41507 16.1896 24.9728
91 1 3.86193 16.0834 23.1723
2155 3 7.21211 16.1192 23.245
3767 2 3.73165 17.6969 25.0136
3766 3 5.28505 17.8984 23.2157
93 2 10.8648 16.1818 23.2257
1157 2 8.81906 16.1377 25.0301
1515 2 8.94314 17.8892 23.1385
1516 3 10.7331 17.8178 24.9364
2157 3 14.4071 16.037 23.1584
2156 2 12.4538 16.0156 24.9565
2778 2 14.3514 17.7364 24.7728
3769 1 12.6414 17.848 23.077
1519 3 16.036 17.7795 23.0875
2341 3 17.8463 16.0208 23.0581
2963 2 17.868 17.841 24.7636
3156 1 16.0873 15.9892 24.9906
532 2 -0.0461987 0.0405999 28.4654
94 2 0.0961771 2.07116 26.7418
1158 3 1.94819 1.84674 28.4368
3657 3 1.9797 0.0408507 26.7943
533 3 5.45841 -0.0150702 26.7401
534 1 7.31711 0.212296 28.4371
1159 2 3.62634 1.83873 26.7217
2159 3 7.37688 1.91918 26.7229
2658 3 3.82205 -0.00860791 28.3612
3157 2 5.61575 1.78994 28.4207
1160 1 9.13999 2.01384 28.4596
1658 2 9.04802 0.192638 26.6241
2659 1 10.698 0.158954 28.4617
3158 1 10.8409 1.90223 26.6906
535 3 14.3066 0.0166389 28.5018
97 1 14.4696 1.96284 26.6335
2660 3 12.4636 0.108274 26.8837
3159 1 12.6614 1.93569 28.5544
845 3 17.8725 0.162615 28.4422
344 1 18.1097 1.98632 26.6281
1161 3 16.1886 1.90024 28.3654
3660 3 16.2105 0.146988 26.646
536 3 1.90873 3.71381 26.7494
540 2 0.0797466 7.14112 28.6637
1162 1 0.067248 5.50662 26.7781
1664 3 1.94397 7.11034 26.8433
2661 1 0.0748151 3.60029 28.4434
3160 2 1.9038 5.37824 28.6093
537 3 3.73336 3.61924 28.5763
543 3 7.45731 7.36558 28.7455
1163 2 5.49516 5.47015 28.5511
1661 3 5.57825 3.63834 26.733
2162 1 3.62272 5.38137 26.8244
2668 3 3.62557 7.28541 28.6065
2667 3 5.35746 7.31632 26.8297
2663 2 7.22453 3.76812 28.7758
3161 1 7.26927 5.43963 27.0088
538 2 10.8355 3.74117 28.5071
99 1 10.8407 5.66659 26.761
2669 2 10.7723 7.2597 28.6757
2662 2 9.10618 3.80966 26.783
3162 1 9.06249 5.47131 28.5271
3668 3 8.94904 7.3923 26.8358
545 1 12.6353 7.34553 26.8363
546 2 14.4015 7.32904 28.3928
1165 1 14.4014 5.44333 26.7019
1164 2 12.7043 5.69368 28.4299
2664 2 14.3719 3.72007 28.4728
3663 3 12.4841 3.79199 26.7381
853 3 17.9501 7.31495 28.5767
539 1 16.0033 3.6055 26.591
1349 3 17.8834 5.54117 26.8111
1670 1 16.1808 7.32856 26.5901
2536 3 17.9645 3.64337 28.4333
3163 1 16.126 5.44199 28.4724
1166 2 1.74336 9.0969 28.4921
2165 1 0.111866 8.89089 26.818
2666 1 0.121344 10.9091 28.6765
2665 1 1.80059 10.7679 26.7986
541 2 3.67561 10.7802 28.5288
103 2 7.39876 9.25332 26.8951
2670 1 7.10137 11.0322 28.7604