ITEM: TIMESTEP
5000
ITEM: NUMBER OF ATOMS
4000
ITEM: BOX BOUNDS pp pp pp
-4.3480186132775600e-02 3.5671350186132983e+01
-4.3480186132775600e-02 3.5671350186132983e+01
-4.3480186132775600e-02 3.5671350186132983e+01
ITEM: ATOMS id type x y z
563 1 -0.0922729 -0.0701788 0.0450462
1064 1 1.78257 1.9146 -0.113646
1563 2 1.78825 0.0863274 1.71955
2064 3 -0.00149918 1.79121 1.64019
1 1 3.4388 1.52662 1.901
565 3 7.11039 -0.00521424 -0.070484
2065 2 6.75566 1.65162 1.65992
2565 3 3.44162 -0.121496 -0.150677
3064 1 5.1895 1.88436 -0.318038
3564 2 5.29551 0.00516067 1.78748
1066 1 8.87848 1.95667 -0.302496
1564 1 8.94365 0.23001 1.67479
2 1 10.6116 1.9486 1.64848
567 2 14.4085 -0.141551 0.0867427
2066 1 14.1477 1.50189 1.79787
2567 3 10.6568 0.10365 -0.0961039
3066 1 12.5168 1.47598 -0.152656
3565 3 12.2602 0.111564 1.88226
751 2 17.7244 0.00157427 0.00544924
1068 2 15.9154 1.83045 -0.0741822
1565 3 16.2798 0.0416868 1.78477
2001 1 17.7611 1.94975 1.79903
3 2 -0.0288455 5.24425 1.84558
573 3 0.0416903 7.02708 -0.0175168
1568 3 1.67549 7.1596 1.80871
2569 1 -0.00922437 4.00724 -0.0944378
3068 2 1.94634 5.23979 -0.205147
3566 3 1.74962 3.62077 1.71178
4 2 6.94614 5.5647 1.70996
569 2 3.70893 3.37546 -0.00577423
575 1 6.96641 7.0941 0.0894976
1070 3 5.15307 5.29377 -0.0155495
1566 2 5.34345 3.69073 1.5963
2067 1 3.27406 5.32387 1.82166
2575 2 3.50393 7.08842 -0.125269
2571 1 6.93945 3.52247 -0.0349117
3569 3 5.12433 7.04499 1.67471
1569 1 8.88519 7.08642 1.69786
3070 2 8.60969 5.40407 -0.360601
3567 2 8.5281 3.59952 1.52952
5 1 13.9543 5.392 2.08044
571 1 10.6243 3.62652 -0.15238
577 3 14.3047 7.07709 0.0399695
1072 3 12.4899 5.29998 0.178253
1567 2 12.5046 3.50252 1.91478
2068 1 10.3296 5.14697 1.77794
2577 3 10.6732 6.85758 0.0289756
2573 1 14.292 3.52072 0.0622622
3570 3 12.3367 7.07993 1.96945
253 2 17.6282 5.49413 2.12501
761 1 17.8559 7.14113 0.0191322
1570 3 15.9485 7.11826 2.00048
2819 1 17.7694 3.50066 -0.0531681
3072 3 16.0491 5.5069 0.164659
3568 3 15.9908 3.76156 1.58897
1074 1 2.11395 8.98001 -0.0445617
2069 1 -0.388191 8.89494 1.7728
6 1 3.44928 8.81145 2.01132
2070 1 7.01035 8.77043 1.73913
3074 3 5.03783 8.90983 -0.139312
1076 3 8.95433 8.70229 0.0471204
7 3 10.5537 8.61211 1.835
2071 2 14.3076 8.77462 1.98429
3076 1 12.4131 8.83899 0.0337319
1078 3 15.9585 8.80414 -0.208015
2006 3 17.7554 8.97439 1.79472
8 1 -0.262204 12.3592 1.70365
583 2 -0.0644898 14.4605 0.129542
1573 2 1.87283 14.3954 1.54193
2579 3 -0.274517 10.5986 4.59817e-05
3078 1 1.65883 12.2951 0.132038
3571 2 1.6655 10.603 1.56067
9 3 7.01151 12.5021 1.75402
585 2 7.16929 14.21 -0.0447755
579 2 3.61943 10.8994 -0.215778
1080 2 5.36951 12.6335 -0.0768823
1571 3 5.32859 10.5575 1.71937
2072 3 3.441 12.4992 1.58902
2585 3 3.59105 14.2468 0.0144976
2581 1 6.90385 10.8587 -0.103951
3574 1 5.10569 14.1566 1.86519
1574 3 9.22116 14.3456 1.85351
3080 3 8.67628 12.3972 -0.0606618
3572 3 8.76996 10.4545 1.56999
10 3 13.9643 12.4812 1.87016
587 1 14.2593 14.3003 0.116058
581 3 10.6935 10.3628 -0.147268
1082 3 12.4715 12.3145 -0.106833
1572 1 12.5163 10.7546 1.72452
2073 3 10.5631 12.3919 1.8549
2587 3 10.7087 14.2563 0.0604311
2583 3 14.1207 10.5221 -0.0530516
3575 1 12.2274 14.1212 1.70377
258 2 17.808 12.2967 1.68809
771 1 17.6957 14.1819 -0.118489
1575 2 15.8672 14.1326 1.81281
2829 1 17.4993 10.7884 -0.112312
3082 2 15.7889 12.3733 0.00198951
3573 3 16.0485 10.5997 1.67642
626 2 -0.10287 17.9026 -0.145215
1084 1 1.79538 16.0632 -0.0741512
1688 1 1.91964 17.7694 1.66403
2074 2 0.023132 16.0934 1.65725
11 3 3.62645 15.9989 1.7893
628 3 7.35417 17.8187 -0.111797
2075 2 6.96198 15.8679 1.68801
2690 3 3.86235 17.5907 0.130002
3084 1 5.47998 15.8395 -0.157684
3689 3 5.41851 17.7379 1.64863
1086 2 8.86481 15.8874 -0.128984
1689 3 8.74739 17.5297 1.71563
12 3 10.9726 16.2268 1.81122
630 3 13.9885 17.9194 -0.0436962
2076 2 14.1865 16.0105 1.73566
2692 1 10.4828 17.93 0.00295406
3086 3 12.4281 15.8391 -0.0678736
3690 3 12.4127 18.0462 1.77705
876 3 17.8273 17.9585 -0.0200963
1088 1 15.9937 16.2777 -0.00551585
1690 3 16.0503 17.8058 1.86883
2011 3 17.8499 15.9929 1.56052
13 3 0.0183736 1.81942 5.12222
588 1 0.0450378 -0.147569 6.94546
1089 3 1.71962 2.03214 7.0514
2564 2 0.163072 0.0267446 3.41031
3063 1 1.77948 1.78778 3.36635
3576 3 1.70134 -0.0166842 5.19743
14 1 7.00301 1.73805 5.37282
564 2 3.62626 0.0885047 3.48672
1065 1 5.32474 1.60366 3.42885
1577 2 3.54862 -0.00763964 6.87605
1576 3 5.50984 0.0124952 5.20608
2078 1 5.34306 1.67226 7.0078
2077 1 3.41536 1.72803 5.15407
2589 2 6.97118 0.0941491 7.12396
2566 2 7.2855 0.163602 3.55607
3065 3 8.77995 1.9101 3.45507
3088 1 8.86677 1.74895 7.17878
3577 1 8.94519 0.0264908 5.28479
15 3 12.5169 1.5689 7.1859
16 3 14.3572 1.64825 5.26236
566 3 10.6008 0.141116 3.70546
589 3 14.3857 -0.131796 6.90215
1067 3 12.2757 1.79346 3.74621
1578 1 12.4591 -0.115671 5.21142
2079 1 10.7269 1.98726 5.32301
2568 3 14.2963 0.11302 3.57348
3578 3 10.7614 -0.0334028 7.10428
263 1 17.5969 1.7495 5.43884
776 3 17.6935 0.0679002 7.00865
1090 2 15.9782 1.63979 7.08101
2814 3 17.8577 0.0407358 3.5341
3067 2 15.9952 1.7624 3.59593
3579 1 16.071 0.0166294 5.20802
568 3 -0.163875 3.47452 3.51494
1069 1 1.7362 5.1784 3.62752
1580 1 -0.193028 3.49161 7.02741
1579 2 1.50252 3.64716 5.39052
2081 1 1.1826 5.34691 7.13292
2080 2 -0.250564 5.20564 5.17085
2591 1 -0.261912 7.00992 6.89314
2574 1 -0.180064 7.0145 3.47515
3583 2 1.37934 7.0789 5.34192
17 2 3.3005 5.19692 5.38106
570 1 6.8283 3.80975 3.48918
591 2 7.32168 7.00548 7.14636
574 2 3.4161 7.17337 3.72754
1584 1 5.40564 7.13498 5.37656
2082 2 6.94628 5.31303 5.3061
2590 1 3.49728 3.51208 7.02801
2576 1 7.1178 6.96673 3.57894
2570 1 3.77409 3.65701 3.49917
3069 1 4.9666 5.54656 3.82957
3089 2 5.19879 5.45196 6.97069
3584 3 3.33294 7.0236 6.69615
3581 1 7.02582 3.52073 7.12489
3580 2 5.1923 3.41954 5.41206
18 2 8.91589 5.45537 7.22868
1071 2 8.69831 5.3538 3.49522
1581 2 8.73147 3.7604 5.49311
3585 1 8.71102 7.2424 5.41415
19 3 10.5393 5.20847 5.22029
572 2 14.2425 3.21389 3.48593
590 3 10.6328 3.62864 7.0893
576 2 10.2217 6.9993 3.47186
1091 3 12.3021 5.35498 7.12172
1586 2 10.5449 7.10183 7.01803
1585 3 12.1234 6.99169 5.22282
1583 1 14.2492 3.45308 7.12218
2083 2 14.0322 5.27983 5.22279
2592 1 14.3805 7.11557 6.87333
2578 3 14.1184 7.08365 3.70066
2572 3 10.4364 3.49297 3.61698
3071 1 12.5523 5.04757 3.64165
3582 2 12.5215 3.46533 5.49538
756 3 17.7406 3.5645 3.64125
1073 1 16.1677 5.0482 3.75072
1768 2 17.6238 3.34056 7.0883
1582 2 16.0308 3.7739 5.45368
2084 1 16.3212 5.40904 6.89689
2017 2 17.9952 5.56427 5.275
2841 1 17.9842 7.17894 7.1878
2824 3 17.9857 7.158 3.68589
3586 3 16.1085 6.99227 5.13417
20 3 -0.179139 8.92902 5.53046
3073 2 1.81312 8.98017 3.49458
3090 1 1.99473 8.87014 7.10505
21 1 5.16917 8.88736 6.88494
22 2 7.02792 8.81972 5.45817
1075 3 5.41683 8.84298 3.56597
2085 1 3.3879 8.96779 5.12783
1092 2 8.79026 9.05194 7.12435
3075 3 8.84884 8.75942 3.4168
23 2 14.1091 8.81998 5.3693
1077 1 12.4496 8.82134 3.44561
2087 3 12.3288 8.73487 6.82563
2086 3 10.6018 8.71178 5.20639
270 3 17.6217 8.80902 5.32062
3091 3 15.858 8.8157 7.30454
3077 1 16.1361 8.81897 3.48551
24 1 1.76904 12.3354 7.14398
593 2 -0.0612731 14.0864 7.19957
578 2 0.0310407 10.7414 3.33588
1079 1 1.51197 12.6116 3.24075
1587 2 1.76648 10.6663 5.32418
2088 3 -0.206981 12.6997 5.07978
2584 1 0.0512784 14.1865 3.34955
3591 3 1.82639 14.4146 5.47288
3587 3 0.0356635 10.7549 7.00067
25 1 3.68904 12.5768 5.38553
592 2 3.5015 10.6933 6.99672
584 2 3.37445 13.9742 3.56558
580 3 7.20308 10.6334 3.59567
1093 1 5.32902 12.3434 7.24583
1592 3 3.65359 14.3191 7.07793
1591 1 5.49707 14.1837 5.11795
1589 2 6.98333 10.5348 6.87789
2089 3 7.03576 12.3689 5.4193
2594 3 6.87242 14.2645 7.04172
2586 2 7.02131 14.1526 3.40044
2580 3 3.13622 10.9461 3.56332
3079 1 5.29929 12.3327 3.51834
3588 2 5.04226 10.7645 5.29249
1081 1 8.79863 12.3023 3.5395
1588 3 8.81564 10.566 5.37689
2090 1 8.63147 12.2429 7.04793
3592 3 8.7956 14.2104 5.21085
26 3 10.6163 12.1392 5.07007
594 1 14.1827 14.1325 7.15564
586 1 10.6924 14.2896 3.80093
582 3 14.1842 10.4476 3.59594
1593 1 12.3364 14.1989 5.33391
2091 2 14.4013 12.5775 5.29369
2593 2 10.3634 10.7776 7.02708
2588 1 14.3241 14.5279 3.62739
2582 1 10.4887 10.3654 3.2997
3092 3 12.5341 12.4361 7.11608
3081 1 12.5903 12.3724 3.72254
3593 3 10.5589 14.1548 7.07142
3590 1 14.2473 10.8675 6.88286
3589 3 12.4478 10.4657 5.17192
27 2 15.9356 12.4541 7.18241
781 1 17.7474 14.1187 6.96392
766 1 17.8861 10.7666 3.6932
1083 1 16.2116 12.3025 3.43399
1590 1 15.9803 10.3653 5.28045
2025 3 17.7992 12.36 5.5186
2834 1 17.6717 14.1051 3.60557
3837 2 17.918 10.2579 7.14772
3594 2 16.1908 14.2753 5.37508
28 3 -0.160849 16.0134 5.45184
651 1 -0.108578 17.8044 7.30727
1094 1 1.78219 16.0914 6.99022
2689 3 -0.066504 17.7975 3.48205
3083 1 1.77434 15.8831 3.74903
3701 3 1.71741 18.0004 5.3719
29 1 7.02601 16.1199 5.09458
627 2 3.52696 17.809 3.7207
1085 1 5.51926 15.9332 3.367
1702 2 3.41831 17.8773 7.10637
1701 3 5.23444 17.8221 5.55347
2093 1 5.28022 16.0542 6.91091
2092 3 3.69998 15.9997 5.31631
2714 3 7.1767 17.7931 6.94417
2691 1 7.09394 17.693 3.58469
3093 2 8.92685 15.8777 7.09348
3085 3 8.97455 16.0184 3.47837
3702 2 8.82623 17.8486 5.33093
30 2 12.3675 15.8981 7.19095
31 1 14.3645 15.9559 5.54
652 1 14.4016 17.7693 7.04358
629 3 10.7853 17.6294 3.71588
1087 2 12.6179 15.9952 3.60509
1703 2 12.736 17.809 5.29345
2094 1 10.511 16.0122 5.46311
2693 2 14.2067 17.8475 3.58347
3703 1 10.6708 17.8302 7.18582
278 3 17.8507 16.0227 5.22327
901 2 17.7712 17.7927 7.16357
1095 3 16.1658 15.8864 7.26249
2876 2 17.8423 17.6073 3.55682
3087 1 16.1252 16.056 3.5062
3704 3 16.0606 17.6295 5.23431
1594 1 1.71807 -0.0253542 8.60262
2095 2 0.260911 1.62156 8.95253
33 1 7.22147 1.86742 9.06343
2596 2 5.32333 0.101504 8.7244
3095 2 3.63422 1.7038 8.8467
3596 3 8.68909 0.0688669 8.9625
596 3 12.5059 -0.0657529 8.90013
1097 1 10.6401 1.87182 8.88351
2098 3 14.1791 1.83985 8.84927
1597 1 16.078 -0.207203 8.87666
2032 1 17.901 1.86148 8.89888
2599 2 1.82284 3.5635 8.8413
3098 2 -0.0603422 5.28581 8.90935
3602 3 1.52343 7.07633 8.83606
36 1 3.57996 5.33412 8.66376
602 1 5.3831 7.16037 8.71828
1100 3 6.98638 5.22024 8.95554
3599 2 5.23956 3.39703 8.78023
599 2 8.75837 3.61064 8.88598
1603 3 8.72442 7.31089 9.03826
1600 2 12.3142 3.55194 9.01541
2101 2 10.5509 5.54967 8.95883
2605 3 12.3373 7.138 8.7709
3101 2 14.0839 5.38745 8.66079
2602 2 15.9271 3.66246 8.87516
3348 3 17.9561 5.40819 8.86521
3605 3 15.9277 6.81697 8.6676
39 1 -0.000438077 8.93567 9.02813
1103 1 3.55527 8.82505 8.62377
2104 1 6.87881 8.85776 8.96841
42 2 14.0325 8.78595 8.74992
3104 1 10.4552 9.05284 8.80957
289 2 17.8781 8.58199 8.8255
605 2 1.74492 10.6696 8.93083
1106 1 -0.127662 12.5229 8.96734
1609 2 1.79229 14.2037 8.76389
1606 2 5.14858 10.5121 8.98411
2107 2 3.37988 12.4064 8.76844
2611 3 5.29798 14.2285 9.03295
3107 3 6.914 12.1984 9.06615
2608 2 8.82556 10.6012 8.81875
3611 2 8.82686 13.9064 8.79755
45 2 10.6681 12.2509 8.6869
611 1 12.5167 14.2199 8.94145
1109 2 14.3423 12.2843 8.96003
3608 1 12.5974 10.5873 8.83221
608 1 16.0459 10.7103 8.78011
1293 2 17.7848 12.3081 8.79943
1612 1 15.9257 14.1283 9.10882
1719 1 1.75628 17.8611 8.79738
2110 1 0.018759 15.6594 8.88432
48 3 7.21261 16.0398 8.85256
2721 3 5.55938 17.764 8.79739
3110 1 3.51361 15.9589 8.98503
3721 1 8.78985 17.7642 8.81732
659 1 12.1995 17.8744 8.85845
1112 1 10.5166 15.9518 8.99048
2113 2 14.3593 16.0114 8.85597
1722 1 16.1769 17.511 8.83952
2047 3 17.9456 15.8862 8.95547
32 3 -0.138728 1.96995 12.7453
613 3 -0.0117577 -0.0223895 14.2475
1114 2 1.83729 1.8819 14.1175
2595 1 -0.270227 0.0186059 10.6755
3094 3 1.53939 1.8241 10.9075
3595 1 1.70941 0.00026312 12.4587
34 3 6.94922 1.8634 12.5125
614 2 6.93393 -0.0630588 14.3417
595 3 3.4684 0.0595613 10.4261
1096 3 5.41918 1.62192 10.7697
1595 1 5.34925 0.0596973 12.6103
2096 3 3.42331 2.15839 12.3622
2614 3 3.57334 0.229952 14.1217
2597 3 6.71994 -0.0227246 10.6161
3113 1 5.35716 2.03311 14.1213
1115 1 8.9926 1.79995 14.2574
3096 1 9.00327 1.9352 10.7838
3597 1 8.92956 0.120205 12.5175
35 3 14.1826 1.75225 12.57
615 1 14.0025 0.0984818 14.1693
597 2 10.6155 -0.0906227 10.5886
1098 1 12.5806 1.69745 10.7439
1596 1 12.2186 -0.275933 12.4053
2097 2 10.8182 1.7175 12.3626
2615 1 10.8253 -0.0383756 14.2724
2598 1 14.0482 -0.0829262 10.6854
3114 2 12.3915 1.77187 14.2102
282 1 17.9536 1.86845 12.1529
801 2 18.001 0.1387 14.2656
1116 2 16.0758 1.64957 14.0469
2845 2 18.1642 -0.11117 10.3667
3097 3 15.9418 1.68015 10.4582
3598 1 16.3387 0.0892657 12.2073
618 2 -0.157437 6.99769 14.0474
598 1 -0.148208 3.63238 10.5668
1099 3 1.66414 5.44462 10.5564
1598 3 1.67449 3.74059 12.2744
2099 2 -0.206774 5.09253 12.3081
2616 3 -0.0546158 3.48589 14.3544
2603 1 -0.219222 6.99272 10.7236
3115 2 1.49145 5.39938 14.2902
3603 2 1.71588 7.15611 12.5992
37 1 3.29715 5.4579 12.595
619 2 7.12307 7.06546 14.3129
616 3 3.60043 3.66052 14.1899
603 2 3.24449 7.22985 10.556
600 2 6.99012 3.49712 10.6831
1117 1 5.05694 5.44867 14.3234
1602 1 5.10513 7.0407 12.5643
2100 2 6.9537 5.37292 12.4762
2619 2 3.36201 7.04139 14.3629
2617 1 7.28356 3.56034 14.0006
2604 2 7.01288 7.13521 10.7825
2600 1 3.42224 3.54616 10.4476
3099 3 5.07914 5.49635 10.6755
3600 2 5.26014 3.74561 12.3092
1101 1 8.78371 5.35367 10.3151
1599 2 8.8524 3.67147 12.2957
3116 1 8.88392 5.20981 14.229
3604 2 8.81442 7.01836 12.5016
38 2 10.5086 5.29826 12.338
620 2 14.2506 7.04863 13.9897
617 2 10.6574 3.69276 14.157
604 3 10.593 7.20195 10.7734
601 3 14.2594 3.48201 10.8041
1118 1 12.5801 5.48379 14.2941
1604 3 12.3145 7.11713 12.4968
2102 2 14.1453 5.2489 12.3749
2620 3 10.6539 6.94979 14.5525
2618 1 14.5071 3.62492 14.2999
2606 1 14.179 7.27949 10.3653
2601 3 10.5378 3.60954 10.5999
3100 1 12.6053 5.45442 10.5921
3601 1 12.5915 3.66917 12.3346
806 1 17.8074 7.19546 14.2235
786 3 17.7943 3.59165 10.6852
1102 2 16.0758 5.37559 10.6657
1601 2 16.1033 3.71507 12.4734
2036 2 17.6731 5.28547 12.3969
2866 2 17.8115 3.54398 13.9302
2853 1 17.8983 7.00415 10.5446
3117 1 16.0831 5.4383 14.286
3606 3 16.0503 7.06091 12.2364
40 3 -0.12537 8.8733 12.3338
1119 1 1.59763 8.78545 14.2711
3102 3 1.66581 8.85175 10.6207
41 3 7.08407 8.86635 12.4298
1104 2 5.5244 8.92659 10.835
2103 2 3.57988 8.96823 12.5293
3118 1 5.12634 8.7895 14.4379
1120 3 9.03402 8.63464 14.1695
3103 1 8.82362 9.11588 10.724
43 1 14.3417 8.66976 12.3674
1105 2 12.4991 8.89091 10.7522
2105 1 10.7547 8.91746 12.5315
3119 3 12.5707 8.80458 14.3391
290 1 17.5811 8.80793 12.5876
1121 2 15.7893 8.73331 14.3642
3105 3 15.8934 8.63095 10.438
623 3 0.212136 14.2109 14.0988
606 3 0.00660145 10.8919 10.8664
1107 2 1.95275 12.6265 10.8681
1605 3 1.72217 10.6658 12.4253
2106 2 0.0142643 12.4553 12.8556
2621 1 -0.0420865 10.4251 14.2422
2610 2 -0.0963558 13.8959 10.7475
3120 1 2.03918 12.4126 14.2025
3610 3 1.83554 14.2186 12.4553
44 3 3.69234 12.4126 12.6311
624 3 7.11155 14.2292 14.104
621 3 3.47362 10.4141 14.3478
610 3 3.57098 14.324 10.7152
607 1 6.99528 10.6778 10.6898
1122 3 5.45428 12.5227 14.1926
1610 1 5.45914 14.415 12.3395
2108 3 7.25551 12.3321 12.6138
2624 3 3.79914 14.3298 14.1408
2622 1 6.93056 10.6995 14.3298
2612 2 7.1192 13.8374 10.5818
2607 2 3.32356 10.3674 10.6552
3106 1 4.91695 12.2912 10.6444
3607 3 5.4292 10.5799 12.6272
1108 1 8.92447 12.2443 10.5174
1607 3 8.73836 10.5774 12.4795
3121 2 8.984 12.4499 14.3632
3612 3 9.02467 14.1162 12.4574
46 3 10.6908 12.275 12.4814
625 2 14.4571 13.7285 14.2727
622 1 10.593 10.4928 14.3595
612 3 10.7653 13.9804 10.5781
609 1 14.3197 10.6498 10.7419
1123 2 12.4023 12.3797 14.3218
1611 2 12.3099 14.0647 12.5109
2109 2 14.0029 12.3917 12.2286
2625 2 10.9419 14.408 14.372
2623 1 14.1631 10.4082 14.3144
2613 1 14.1113 14.1263 10.647
2609 2 10.6131 10.5355 10.7916
3108 2 12.4478 12.0281 10.7807
3609 2 12.5006 10.5902 12.5964
811 1 17.7294 13.9728 14.3029
794 2 17.9217 10.3968 10.6703
1110 2 16.0523 12.1889 10.5638
1608 2 15.9364 10.5155 12.5491
2043 2 17.6997 12.2941 12.3868
2871 1 17.7903 10.2224 14.3224
2860 1 18.0011 13.9555 10.5341
3122 2 15.9696 12.1461 14.3268
3613 2 16.068 14.0848 12.2426
47 1 -0.179711 16.0049 12.3764
676 2 0.136135 17.6504 14.4186
1124 1 1.66576 16.1432 14.2669
2720 2 -0.0218274 17.7739 10.5479
3109 3 1.5579 16.0484 10.5867
3720 3 1.88987 17.8129 12.5103
49 2 7.09603 16.1371 12.617
677 1 7.04206 17.6246 14.265
658 1 3.6738 17.7933 10.725
1111 3 5.63408 15.7758 10.7669
1720 3 5.28279 17.9028 12.4297
2111 2 3.62824 16.1688 12.363
2739 2 3.62743 17.5347 14.4477
2722 1 7.40025 17.8412 10.8243
3123 3 5.28395 16.0572 14.5456
1125 3 8.87474 15.8918 14.1616
3111 3 8.63378 15.6815 10.7962
3722 2 9.14093 17.5146 12.4567
50 1 14.3012 15.6148 12.7906
678 1 14.5719 17.6949 14.3938
660 1 10.6222 17.7996 10.7285
1113 3 12.5071 16.034 10.7595
1721 2 12.5315 17.6567 12.5592
2112 1 10.7798 15.7912 12.4743
2740 1 10.766 17.5823 14.1419
2723 2 14.0358 17.8128 10.6135
3124 3 12.6408 16.0053 14.3407
297 1 17.9518 15.7327 12.4184
926 1 17.7373 17.6013 14.3313
1126 2 16.121 15.7429 14.1261
2907 2 17.9891 17.747 10.689
3112 3 16.0111 15.7662 10.7994
3723 3 15.8747 17.6104 12.3043
1613 3 1.71121 0.00854171 16.1545
2114 3 0.0352372 1.69058 16.0733
2626 2 -0.223664 0.0922887 17.8003
3125 3 2.0137 1.6163 17.7126
51 3 3.70983 1.93665 15.8685
502 3 3.67371 -0.00958949 17.7394
1128 1 5.34441 1.82506 17.7897
2115 3 7.02166 1.92072 15.7169
2628 2 6.8038 0.273754 17.5444
3614 2 5.2453 -0.257558 15.9146
1614 3 8.84955 0.0935638 15.6457
3127 2 9.00302 1.59639 17.6641
52 3 10.8071 1.81718 15.9451
504 1 10.6531 -0.159341 17.5702
1130 3 12.557 1.77139 17.8202
2116 3 14.2901 1.81804 15.9424
2630 2 14.2823 -0.0302862 17.7937
3615 1 12.5096 0.039559 15.8361
1615 1 16.0085 -0.144262 16.0786
2051 1 17.8666 1.81723 16.1664
2501 2 17.9044 -0.0566084 17.7695
3129 3 15.9866 1.41985 17.7868
53 2 0.200492 5.084 16.2678
506 1 0.333283 3.3285 17.9016
1132 2 1.84118 5.41513 17.9635
1618 1 1.57321 7.39863 16.0577
2636 2 -0.0534409 7.29678 17.851
3616 2 1.59185 3.36529 16.1459
54 1 7.11905 5.03111 15.7863
508 1 7.35232 3.44531 17.8441
512 2 3.59854 6.99626 17.791
1616 1 5.18286 3.73169 16.0107
2117 3 3.34959 5.46213 16.098
2638 1 7.18095 7.01922 17.9239
2632 2 3.49098 3.55532 17.8583
3131 1 5.341 4.99331 17.7533
3619 1 5.33607 7.11068 16.1298
1134 3 9.17277 5.31343 17.8285
1619 3 8.77785 6.90098 16.1109
3617 2 9.02054 3.47201 15.8199
55 3 14.3343 5.21991 15.9617
510 3 14.4959 3.24217 17.7576
514 2 10.817 7.06324 17.8504
1617 3 12.5561 3.63477 15.8844
2118 2 10.6848 5.1398 16.1143
2640 1 14.3012 6.98604 18.1324
2634 1 10.6589 3.20017 17.9068
3133 3 12.4945 5.00568 17.7425
3620 3 12.5345 6.85665 16.2078
303 1 17.9607 5.42711 16.2371
819 3 17.7823 3.60122 18.0153
1136 2 15.9489 5.33013 17.8778
1620 3 16.0672 7.13169 16.0143
2511 3 17.8545 7.13554 17.8313
3618 3 16.2925 3.61951 15.8562
2119 2 -0.364244 8.80627 16.1571
3135 2 1.72779 8.80569 17.9525
56 3 3.45645 8.9605 16.1984
1138 1 5.29554 9.08143 17.7017
2120 2 7.11391 8.72185 16.0675
3137 2 9.1785 8.83709 17.6745
57 1 10.6279 8.86202 15.9763
1140 1 12.5007 8.85139 17.905
2121 1 14.1007 8.85055 16.2212
2056 2 17.8531 8.76291 16.0515
3139 3 16.1525 8.75084 17.8012
58 2 -0.155525 12.5081 16.1005
516 1 -0.162719 10.7652 17.6137
1142 2 1.39302 12.5463 17.9426
1623 2 1.78665 14.1453 16.1672
2646 1 -0.106787 14.3143 17.7737
3621 3 1.73423 10.682 16.0037
59 3 7.42517 12.5674 15.902
518 2 7.29167 11.1062 17.65
522 2 3.48796 14.3017 17.9223
1621 3 5.23539 10.574 16.0825
2122 1 3.58587 12.4776 15.8655
2648 1 7.22836 13.9756 17.8114
2642 3 3.56248 10.7479 17.8176
3141 3 5.33344 12.3995 17.8259
3624 2 5.39522 14.1519 16.1065
1144 2 9.08328 12.67 17.7901
1624 1 9.22728 14.3441 15.9424
3622 3 8.87687 10.5703 16.0265
60 3 14.0756 12.3327 16.0844
520 1 14.1379 10.4928 17.7809
524 2 10.8625 14.4059 18.0223
1622 3 12.3793 10.4374 16.031
2123 3 10.7391 12.2192 16.1153
2650 2 14.6082 14.2104 17.5043
2644 2 10.5258 10.6076 17.8557
3143 1 12.4192 12.4181 17.7128
3625 1 12.5069 14.3982 16.1932
308 3 17.7314 12.3186 15.9626
829 1 17.6903 10.4714 17.7594
1146 2 16.2687 12.3765 17.7943
1625 1 15.9965 13.9027 15.8383
2521 2 17.8583 14.2687 17.9585
3623 2 15.9801 10.4134 15.9321
1738 2 1.69942 17.888 16.1144
2124 1 0.0277103 15.8739 15.8615
2751 1 -0.216121 17.8344 17.9088
3145 2 1.49047 16.2937 17.984
61 1 3.33611 15.835 16.1295
690 1 3.48442 17.7638 17.9505
1148 3 5.31276 15.9532 17.8675
2125 1 7.1569 15.8701 16.0718
2753 3 7.11079 17.7417 17.8048
3739 3 5.5327 17.781 16.109
1739 3 8.96376 17.5865 16.0753
3147 1 8.9408 16.0151 18.017
62 3 10.8566 16.1564 16.0333
692 3 10.8437 17.8593 17.9518
1150 2 12.4949 16.1449 17.7921
2126 2 14.55 15.763 15.8544
2755 1 14.5998 17.9753 17.9419
3740 2 12.7563 17.7474 15.8566
1740 2 16.3412 17.6088 16.2352
2061 2 17.7256 15.6104 16.0098
2938 2 17.9785 17.746 17.8403
3149 3 16.1129 16.0104 17.8967
501 1 0.0883671 0.163175 21.4449
63 2 0.116659 1.83332 19.7077
1127 1 1.7798 1.79791 21.3469
3626 1 1.80293 0.0291911 19.3158
503 2 7.19773 -0.277702 21.2359
64 2 7.05284 1.53866 19.6972
1626 1 5.06093 0.186922 19.6154
2127 2 3.40614 1.82311 19.5469
2627 2 3.20593 -0.0240079 21.5358
3126 1 5.17027 1.83419 21.3477
1129 1 8.69319 1.70228 21.3728
3627 3 8.74728 -0.177812 19.3874
505 3 14.215 -0.10037 21.2911
65 1 14.2775 1.79061 19.5665
1627 1 12.3453 0.183258 19.7544
2128 3 10.6492 1.57055 19.6016
2629 2 10.5273 0.188874 21.4321
3128 3 12.364 1.83309 21.6042
814 1 18.2442 -0.200162 21.5132
313 1 17.7695 1.68635 19.8347
1131 3 16.0818 1.68484 21.3977
3628 2 16.3632 -0.0185032 19.6899
511 1 -0.0508115 7.04377 21.4171
1628 1 1.76537 3.79524 19.8672
2129 1 -0.128292 5.47799 19.5579
2631 1 -0.158784 3.81016 21.2689
3130 1 1.84609 5.68423 21.3242
3631 1 1.65237 7.0866 19.4957
507 2 3.69241 3.77605 21.3681
513 2 7.19157 7.13407 21.1767
66 2 3.58611 5.37296 19.5662
1133 1 5.35169 5.36283 21.2404
1631 2 5.28077 7.16382 19.3677
2130 3 7.35045 5.3004 19.3152
2637 3 3.58761 7.11712 21.2044
2633 1 6.92632 3.68302 21.1678
3629 2 5.46745 3.54108 19.4023
1629 2 8.79021 3.20393 19.6644
3132 1 8.90619 5.18796 21.2099
3632 3 8.90441 7.18523 19.5392
509 3 10.5034 3.37486 21.0344
515 1 14.1651 6.89083 21.2456
67 3 10.9965 5.20923 19.3187
1135 3 12.479 5.18721 21.4148
1632 2 12.5272 6.93619 19.5261
2131 2 14.208 5.26419 19.5682
2639 2 10.8134 6.8824 21.2223
2635 2 14.38 3.55075 21.4475
3630 1 12.5139 3.12838 19.6598
824 2 17.8624 7.14799 21.6975
1630 2 15.9341 3.43998 19.6656
2316 1 17.8146 5.30838 19.8089
2506 1 17.8421 3.42942 21.5165
3134 1 15.9985 5.28835 21.6313
3633 2 16.276 6.9926 19.9105
68 3 -0.319504 8.97764 19.4474
1137 3 1.74888 8.91139 21.1256
69 2 7.04252 8.89649 19.4577
2132 1 3.52683 8.8307 19.6648
3136 3 5.17971 8.97437 21.2425
1139 3 8.88094 9.011 21.3551
70 2 14.3147 8.79532 19.6423
2133 2 10.7359 8.76155 19.6943
3138 1 12.4666 8.61473 21.282
318 2 18.0422 8.93232 19.6181
1141 1 16.0848 8.8443 21.2206
521 1 -0.252145 14.4018 21.3732
1633 3 1.61656 10.7136 19.5341
2134 2 -0.243527 12.8083 19.533
2641 1 -0.220387 10.6286 21.0672
3140 3 1.3325 12.5539 21.2874
3636 1 1.60832 14.4044 19.5157
517 3 3.32051 10.6708 21.1327
523 3 7.07171 14.0781 21.4635
71 2 3.46773 12.361 19.315
1143 1 5.01081 12.3149 21.2383
1636 1 5.17661 14.2186 19.5697
2135 2 7.22698 12.4979 19.6978
2647 2 3.18486 14.0042 21.2997
2643 3 7.12611 10.5591 21.4425
3634 2 5.59139 10.58 19.5755
1634 1 8.98052 10.9408 19.6656
3142 2 8.844 12.5211 21.4636
3637 1 9.09025 14.1604 19.7837
519 2 10.6197 10.6461 21.3926
525 3 14.3217 14.3497 21.4974
72 2 11.0152 12.5001 19.5967
1145 1 12.732 12.027 21.2242
1637 2 12.6708 14.0335 19.4598
2136 3 14.3417 12.2814 19.597
2649 2 10.6477 14.2377 21.5749
2645 1 14.3384 10.5712 21.4403
3635 2 12.516 10.4201 19.6153
834 2 17.8963 14.1916 21.325
1635 2 16.0785 10.7391 19.6272
2321 2 17.7936 12.5231 19.6652
2516 1 18.0435 10.5907 21.5303
3144 1 15.8184 12.4828 21.3977
3638 2 15.8594 14.0458 19.5418
689 1 -0.0211495 17.7895 21.3004
73 3 -0.13493 16.1041 19.5737
1147 2 1.49979 16.2036 21.4997
3751 2 1.60019 17.8583 19.6732
691 3 7.29184 17.7175 21.5201
74 1 7.19627 15.8257 19.6422
1501 2 5.29025 17.6215 19.6065
2137 3 3.39821 16.0741 19.7969
2752 1 3.31093 17.8926 21.2057
3146 1 5.2734 16.0203 21.3284
1149 1 8.92308 15.9283 21.3182
3752 2 9.00233 17.6515 19.6482
693 3 14.3936 17.7367 21.5221
75 2 14.339 15.9594 19.531
1502 3 12.4624 17.902 19.8386
2138 1 10.9602 16.0949 19.714
2754 3 10.6211 17.7366 21.3491
3148 2 12.5781 15.9284 21.5642
939 2 18.0041 17.5973 21.4229
323 2 18.0422 16.2194 19.5218
1151 3 16.2905 15.8504 21.3337
3753 3 16.1805 17.7939 19.7087
1638 2 1.46012 0.185812 23.1308
2139 3 -0.251228 1.85414 23.2037
2651 3 0.055511 -0.186317 25.0006
3150 3 1.73322 1.80201 25.0333
526 3 7.07856 0.0489152 24.7995
77 2 5.00168 1.97435 25.0182
76 1 3.55 1.90875 23.2587
2140 3 7.06814 1.80639 23.0589
3640 2 3.40652 -0.0489651 24.7683
3639 1 5.19294 -0.0934934 23.0554
1152 2 8.8099 1.76636 24.928
1639 2 8.75029 0.0345384 22.9955
78 2 10.3928 1.86518 23.0939
1640 1 10.492 -0.160437 24.784
2142 2 14.3611 2.08228 23.1459
2141 2 12.4596 1.69865 24.7301
2652 3 14.1614 0.000816264 24.9944
3641 2 12.3324 -0.161915 23.2396
1641 3 16.0675 -0.100695 23.0666
2326 3 18.1811 1.72073 23.1627
2526 3 17.4228 0.0190169 25.1196
3151 1 16.0536 1.76148 24.8515
528 1 -0.213573 7.09426 25.0465
80 1 1.89488 5.32771 25.0178
79 2 0.020241 5.26262 23.1488
1645 3 1.57459 7.05974 23.1912
3643 2 -0.28178 3.54618 24.8536
3642 1 1.60721 3.87737 22.9632
527 2 3.38203 3.67845 24.852
81 3 7.156 5.53244 23.0106
1153 1 5.23857 5.38419 24.8544
1646 1 3.71835 7.17267 24.9998
1643 1 6.98456 3.63979 24.9056
1642 3 5.19349 3.78953 23.3114
2143 1 3.57835 5.56242 23.2514
2654 1 7.24931 7.19445 24.9303
3647 2 5.35795 7.36029 22.8717
1647 3 9.14667 7.18156 22.8224
2144 2 8.91671 5.28275 24.8407
3644 2 8.83163 3.51595 23.2109
529 2 14.2957 6.86385 25.1966
82 2 14.2809 5.25748 23.1215
1644 1 12.4429 3.68711 23.1636
2145 1 10.2915 5.23838 23.1298
2653 3 10.8165 3.32224 24.8627
3152 2 12.3348 5.33942 25.1313
3649 3 10.4996 7.09286 24.8479
3648 3 12.4707 7.02593 23.2789
3646 1 14.157 3.58773 25.0054
841 2 17.8861 7.3115 24.9587
329 3 17.85 5.2362 23.2334
83 1 16.2203 5.29215 25.1454
1648 2 15.9976 7.33064 23.4345
3893 2 17.9265 3.39316 25.1083
3645 2 16.1516 3.41976 23.2612
1154 1 1.7993 8.96181 24.9083
2146 2 -0.136007 9.18695 23.1916
84 1 3.396 8.78787 23.0111
2148 1 7.1512 8.7538 22.9846
2147 2 5.46474 8.73264 24.9037
3153 2 8.90316 8.68827 24.7727
86 1 12.4485 8.89236 24.7926
85 1 10.6473 8.98384 23.0392
2149 3 14.3191 8.95718 23.3287
1155 1 16.257 8.87407 24.9928
2333 2 17.8304 9.03013 23.1453
87 3 -0.118857 12.3745 23.0555
1653 1 1.45903 14.2577 23.018
1649 2 -0.444459 10.5639 24.9749
2150 1 1.73722 12.3446 24.9621
2656 3 -0.149801 14.0682 25.0319
3650 2 1.60594 10.5928 23.2799
531 3 6.96587 13.8897 25.0722
88 3 6.92204 12.4417 23.0227
1650 1 5.16667 10.6599 23.0557
2151 2 3.28964 12.3617 23.145
2655 2 3.56372 10.614 24.8285
3154 1 5.15535 12.5185 24.7877
3655 2 3.4632 14.0951 24.8441
3654 1 5.49796 14.4369 23.3453
3652 3 7.17824 10.6654 24.825
89 1 8.89241 12.3811 24.9279
1654 3 8.89153 14.4599 23.1384
3651 2 8.85569 10.7976 23.1019
530 2 10.5937 10.66 24.8742
90 2 14.2561 12.3307 23.1866
1156 3 12.4687 12.3012 25.1194
1655 3 10.6605 14.3138 24.9031
1652 2 14.2909 10.8324 25.0064
1651 1 12.364 10.4761 22.9724
2152 3 10.5393 12.4337 23.0729
2657 1 14.2345 14.1057 24.9906
3656 2 12.3626 14.2217 23.3104
337 2 17.7935 12.6045 23.1863
1837 1 17.9617 10.6272 25.0256
1656 2 16.0177 14.3381 23.184
2153 1 16.0122 12.4336 24.8576
2531 1 17.8045 14.1316 25.0452
3653 3 16.0101 10.5318 23.0495
1513 1 1.81045 17.7978 23.2795
2154 3 -0.1954 16.1023 23.3309
2776 1 -0.131248 17.772 25.0599
3155 2 1.60743 16.0783 24.9801
714 2 7.16662 17.9355 25.0512
92 1 5.0999 16.2364 25.1703
91 3 3.47281 15.9924 23.1772
2155 1 7.23956 16.0907 23.2093
3765 2 3.51809 17.657 24.8632
3764 1 5.37512 17.7036 23.1925
1157 3 8.98352 16.0953 25.0982
1514 3 9.03439 17.9162 23.3096
93 1 10.8395 15.9478 23.4151
1515 1 10.7581 17.7979 25.103
2157 2 14.0615 15.9741 23.4089
2156 2 12.3696 16.0506 25.003
2777 1 14.2883 17.6355 24.9877
3766 1 12.4675 18.0315 22.8101
1516 1 16.019 17.5452 23.1843
2341 2 17.7084 15.965 23.4824
2963 3 17.6681 17.6393 25.0136
3156 2 15.9822 15.8417 25.036
94 1 -0.370226 1.90421 26.5796
3657 2 1.54094 0.0609325 26.7653
533 1 5.23694 -0.0371634 26.3367
1159 1 3.47535 1.78941 26.7496
2159 3 6.9191 1.60887 26.4092
1658 2 8.83801 -0.0387051 26.6186
97 1 14.4458 1.51819 26.7843
2659 2 12.6526 -0.428234 26.7296
3158 3 10.5584 1.57656 26.6604
344 3 17.7795 1.66045 26.9573
3660 2 15.9491 -0.271713 26.8168
536 1 1.51509 3.5818 26.5479
1162 3 -0.101131 5.15152 26.6028
1664 3 1.57817 7.09651 26.6988
1661 1 5.6484 3.57023 26.7342
2162 3 3.62873 5.25111 26.8115
2665 3 5.36054 7.18717 26.8849
3161 3 7.07139 5.40146 26.8917
2662 2 8.78141 3.42186 26.7471
3666 3 9.16577 6.8328 26.75
542 2 12.2588 6.9165 26.604
100 1 10.6366 4.97602 26.9194
1165 1 14.18 5.20027 26.7688
3663 3 12.4725 3.21465 26.4958
539 2 16.0616 3.30892 26.7296
1349 2 17.6313 5.33739 26.8275
1667 3 16.1497 7.00544 26.9201
2165 2 -0.189791 8.88131 26.7966
103 1 7.17735 8.92288 26.6233
3164 2 3.42199 9.04973 26.7572
1168 1 10.6467 8.75542 26.6899
2168 2 14.2105 8.8138 26.5945
2352 2 17.7175 8.90931 26.8942
2668 1 1.63054 10.7432 26.8538
3167 3 -0.0502661 12.4886 26.8939
3672 1 1.67662 14.1006 26.7253
548 2 5.09489 14.1332 26.6106
106 2 3.28515 12.5426 26.5411
1171 3 6.88604 12.0103 26.7858
3669 3 4.839 10.7822 26.8113
545 3 8.99211 10.5752 26.7473
1673 3 8.86267 14.003 26.6683
1670 1 12.4003 10.3275 26.8476
2171 3 10.6904 12.4646 26.5462
2674 2 12.5059 14.2293 26.8732
3170 1 14.0503 12.2715 26.9226
2671 3 16.1141 10.781 26.6872
3417 3 17.7088 12.3173 26.7776
3675 1 15.7654 14.0753 26.7511
109 3 -0.048153 15.8922 26.8745
3782 2 1.79356 17.9211 26.7525
721 1 5.094 17.8176 26.8245
1174 1 3.29756 15.9881 26.8666
2174 3 6.98377 16.2687 26.7724
1533 1 8.80924 17.9499 26.759
112 3 14.261 15.8917 26.657
2784 2 12.425 17.8035 26.9906