ITEM: TIMESTEP
5000
ITEM: NUMBER OF ATOMS
4000
ITEM: BOX BOUNDS pp pp pp
7.8247589136953621e-02 3.5655812410863007e+01
7.8247589136953621e-02 3.5655812410863007e+01
7.8247589136953621e-02 3.5655812410863007e+01
ITEM: ATOMS id type x y z
1 3 0.164411 1.70551 1.67635
1563 1 0.242741 -0.0659372 -0.0969475
2064 1 1.97126 2.05432 0.0692629
3561 2 1.79122 0.0394783 1.85276
564 3 3.76455 1.77927 1.76613
565 3 7.2225 1.67903 1.79527
1565 2 7.32095 -0.0197239 -0.00418705
2065 2 3.44968 0.0577069 0.146812
3061 1 5.50378 1.85772 -0.0281033
3562 3 5.51776 0.00185342 1.66592
566 2 10.593 1.85981 1.95875
1070 2 10.7388 0.150536 0.0665912
3063 2 9.03519 0.151636 1.9253
3062 3 8.92959 1.95297 0.0975633
567 1 14.2555 1.88262 2.12332
2566 1 14.2823 0.163354 0.0925842
3064 1 12.4324 1.85564 0.0401095
3563 1 12.6537 0.388793 1.95373
2 1 17.9108 0.0756899 0.098776
3 3 16.0553 0.127479 1.97064
3066 1 17.9341 1.96511 2.00392
3065 3 16.1374 1.86958 0.165912
4 2 1.81733 5.50304 -0.0678552
5 2 1.74923 3.73435 1.81292
6 3 1.76144 7.10266 1.73895
1071 1 -0.128044 5.25375 1.83262
3067 1 0.171759 3.64557 -0.0841359
3565 3 0.10075 7.27293 0.0456923
7 2 5.30723 5.34557 -0.167254
8 3 3.66044 7.07225 0.0398951
1072 2 7.11576 5.47274 1.45023
1075 1 5.28143 7.12335 1.72833
1074 2 3.42772 5.48809 1.78583
1567 1 7.14807 7.2239 0.0749233
2570 2 7.31885 3.64184 -0.0964291
2569 1 3.72609 3.44836 -0.0215714
3569 1 5.48645 3.61946 1.55524
9 3 9.22261 5.38184 0.122977
10 1 8.88202 3.72545 1.76095
1077 1 10.8218 7.1207 0.0360799
1076 2 10.805 5.55588 1.78491
1568 1 8.91008 7.35759 2.09258
3068 3 10.8622 3.59081 0.159792
11 1 12.8314 5.54582 0.0267058
12 2 14.4474 3.71782 0.274271
570 3 12.6843 3.70675 1.7979
1571 2 14.3125 7.3159 0.015185
1570 2 14.344 5.47159 1.87929
1569 3 12.6252 7.34673 1.86648
572 3 16.0752 3.80511 1.89623
1081 2 16.2437 7.14961 1.97033
1079 1 18.0797 5.45798 1.83381
1078 3 15.9989 5.48814 0.0621504
1573 1 17.8826 3.49707 0.166658
2070 1 17.84 7.31854 0.197683
575 3 1.8317 10.633 1.8277
1082 2 1.99842 8.84716 -0.0927181
1574 2 -0.0531038 9.05449 1.82042
3070 3 0.0097429 10.7366 -0.020979
576 2 3.65613 10.6159 0.0242222
1085 3 5.24775 8.94135 0.0470862
1083 1 5.41247 10.8797 1.77013
1577 3 7.26609 10.5956 0.073207
1576 1 7.09734 9.00107 1.6903
1575 1 3.67851 8.92078 1.6907
14 2 10.9242 10.772 -0.0493378
1087 1 9.05698 10.7939 1.72236
1086 1 9.13864 8.92887 -0.0240874
2071 3 10.6613 9.02705 1.83153
580 2 12.8717 10.8274 1.83116
1088 2 14.5782 10.8043 0.0381864
2073 1 12.7552 9.28379 -0.00580153
2074 1 14.4956 9.0256 2.04196
15 1 17.865 9.16684 1.82018
1581 2 16.0895 10.6792 1.94034
2076 3 17.9282 10.8251 0.0918092
2075 3 16.1108 8.87804 0.156175
2079 2 1.89313 12.4711 0.25751
2078 1 1.70643 14.4156 2.01489
2077 2 -0.0324973 12.5046 1.68376
2572 3 0.162184 14.5238 0.0576931
2082 3 5.42685 14.4134 1.8772
2081 1 3.62556 12.5038 1.83715
2080 2 5.36875 12.5164 0.141014
2576 2 7.12355 14.2817 0.19613
2575 3 7.26947 12.5858 1.67764
3071 1 3.51336 14.4309 0.166373
1583 2 9.0699 14.2945 1.66783
2084 1 10.9075 14.2582 0.0593285
2579 2 10.8607 12.4887 1.81438
3073 3 9.18303 12.4933 -0.029738
2085 2 12.5247 14.2094 1.81022
2580 1 14.2531 12.6067 1.72398
3074 1 12.9231 12.4448 0.0334534
3574 1 14.3443 14.4832 0.252416
581 1 17.8894 12.3178 1.98169
1089 1 17.8904 14.3598 0.214797
2583 2 16.1639 14.3528 1.87024
3075 2 16.2881 12.6223 0.0832945
16 1 -0.0336976 17.9644 0.29262
2086 3 1.74374 18.0182 2.11327
2584 3 0.0470425 16.1763 2.00488
3076 3 1.78961 16.2289 0.238911
17 2 5.45404 16.1431 0.115755
1090 2 3.57613 17.8245 0.118236
2585 2 7.2483 17.8421 0.120163
3079 1 5.36669 17.9265 1.8063
3078 1 7.30927 16.1027 1.8529
3077 2 3.45592 16.2335 1.80804
18 1 8.78525 16.0162 0.13391
1585 1 10.5837 17.877 0.154552
3080 1 10.8346 15.9568 1.83608
3578 3 8.9596 17.8294 1.89631
19 2 12.4654 16.024 -0.106743
2088 3 14.2766 17.9713 -0.0387933
3081 2 14.3061 15.9727 1.90483
3581 1 12.5289 17.7934 1.92006
20 3 16.1726 15.9856 0.0634121
1586 3 17.8847 16.1503 1.92398
3083 1 16.0505 17.9897 1.78768
3082 2 17.8462 17.8722 0.150806
584 2 1.86285 2.03834 7.02913
1564 2 0.159 0.0913041 3.61124
2588 3 1.74586 0.149996 5.27142
2563 2 1.98732 1.92375 3.53689
3084 2 0.261764 0.105347 7.29398
3583 2 -0.0710261 1.95766 5.26016
22 1 5.48196 1.89374 7.20632
1069 3 3.72617 0.0214262 3.66515
1566 1 7.2591 -0.0172295 3.71936
2089 1 5.43363 0.132428 5.43093
2590 3 3.6871 0.205478 7.31435
2564 2 5.61541 1.70666 3.59466
3085 3 7.23823 -0.0718049 7.093
3585 2 3.85039 1.96369 5.24002
3584 2 7.26536 2.00611 5.54491
586 3 8.86987 1.6862 7.17927
2066 3 10.8851 0.0431509 3.67201
2593 3 8.97459 -0.0495249 5.32709
2565 3 8.93266 1.93924 3.75336
3086 1 10.6805 0.016731 7.22389
3586 3 10.56 1.79215 5.3774
23 2 12.4821 1.94994 7.16686
24 2 14.1421 0.09734 7.23514
25 1 14.2704 1.82703 5.39948
2568 2 14.3682 0.0977869 3.56049
2567 1 12.3387 1.80063 3.637
3087 1 12.57 0.384849 5.39421
568 3 17.7745 0.0801734 3.62935
588 3 16.1477 1.69187 7.26515
1587 3 17.9884 0.0618953 7.09812
3088 2 16.0011 0.2328 5.37818
3588 3 17.8573 1.86481 5.41637
3564 2 15.9919 1.99157 3.61171
27 1 1.67793 5.50341 7.13131
28 1 1.70442 7.19547 5.17145
589 1 0.0464826 5.48551 5.29886
2067 1 0.0828542 3.71006 3.51963
3090 3 1.94642 3.66933 5.35353
3590 3 -0.000684639 7.18028 7.10197
3589 2 -0.00746948 3.8395 7.26904
3567 2 -0.0759638 7.2215 3.35559
3566 1 1.95311 5.67508 3.42816
29 3 3.74046 3.70788 7.05849
593 3 3.67662 7.37293 7.13571
592 1 7.25202 5.53146 5.16741
591 3 7.43477 7.37208 7.14668
590 1 3.56275 5.4707 5.33052
1095 2 5.26781 5.35655 6.95149
1094 1 5.3017 7.08695 5.19817
1073 2 3.66117 7.30689 3.41203
2068 3 7.00978 7.18835 3.46748
2069 2 3.66509 3.66317 3.38765
3593 1 5.47133 3.63931 5.19884
3592 1 6.99115 3.81231 7.21556
3570 3 5.53 5.41602 3.50568
3568 3 7.3392 3.61084 3.48756
31 1 8.8859 3.7468 5.58892
569 1 10.6657 7.27051 3.55231
594 1 10.6745 5.54712 5.3682
1097 1 9.03349 5.5501 7.36171
1590 3 9.00789 7.20414 5.19243
1589 1 10.7076 7.28925 7.22349
3594 3 10.7172 3.59621 7.16181
3572 3 10.7904 3.81017 3.64202
3571 2 8.83979 5.43935 3.37782
33 2 12.5337 3.51836 5.39757
35 1 14.152 3.59112 7.19145
571 1 12.6252 5.41154 3.57632
595 1 14.1616 7.18844 7.30077
1100 1 14.2558 5.45669 5.50778
1099 3 12.3784 5.39847 7.01112
1592 3 12.4419 7.27015 5.17592
1572 3 14.4732 6.8823 3.67605
3069 1 14.3282 3.64522 3.86365
573 1 16.1961 5.31468 3.77054
1080 2 17.9899 3.69637 3.68744
1595 1 15.999 7.29908 5.60472
1594 1 16.0445 5.46262 7.04506
2094 3 17.9494 7.15026 7.20324
2092 3 17.8643 3.5321 7.08924
2571 1 18.0533 6.98274 3.59899
3092 2 17.8302 5.43806 5.43816
3595 2 16.0473 3.4857 5.63537
13 2 -0.0185971 10.6344 3.47
597 3 0.0935078 10.7904 7.36608
596 3 1.95524 10.6701 5.28502
574 2 1.90051 8.89035 3.51768
1102 3 1.93765 8.72919 7.19976
1101 2 0.000363627 8.76096 5.31226
38 3 3.80689 10.7089 7.16207
578 1 3.62597 10.7375 3.41883
577 3 5.52487 8.93909 3.62862
1106 2 7.3053 10.5918 7.19487
1104 2 5.48884 10.6729 5.39555
1103 3 3.67346 9.02091 5.25169
1084 3 7.30673 10.851 3.35562
1597 3 7.3253 9.08058 5.40031
1596 2 5.45854 8.92478 7.10617
39 1 10.6212 10.9311 7.28571
599 1 9.08888 10.7732 5.499
579 3 10.7798 10.7303 3.62871
1107 1 9.06692 8.95422 7.16224
1578 2 8.89517 9.07934 3.41581
2097 1 10.69 9.14831 5.41639
1108 1 12.6029 10.8418 5.31199
1598 2 12.3899 9.07638 7.25601
1579 2 12.7532 9.05286 3.44937
2072 1 14.4574 10.7635 3.71791
2099 3 14.314 10.821 6.98254
2098 3 14.3419 8.86438 5.49439
1599 1 16.0879 8.95728 7.14761
1580 1 16.1135 8.7453 3.5785
2100 2 16.0742 10.7591 5.24351
3093 1 17.6311 10.7316 7.1092
3597 1 17.8365 8.91308 5.36289
3573 3 17.7854 10.601 3.6994
1110 1 0.146714 14.3254 7.1049
1582 2 1.79205 12.4306 3.44478
2103 2 1.95592 12.4878 6.78891
2102 3 1.75477 14.3611 5.37216
2101 2 0.11679 12.507 5.38085
2573 2 0.0285646 14.2502 3.5758
1112 1 7.07424 14.0335 7.06658
1600 1 5.41527 12.4963 6.76359
2104 3 5.4117 14.3475 5.2325
2083 2 3.5956 14.3728 3.37073
2601 3 7.24333 12.5431 5.38993
2600 2 3.5748 12.5326 5.24281
2599 1 3.4918 14.2348 6.94688
2577 1 7.42845 14.2023 3.58727
2574 3 5.37346 12.4866 3.53058
2604 2 8.89704 14.3204 5.46063
2603 2 10.6885 14.5123 7.38217
2602 3 10.7569 12.7259 5.53114
2578 2 9.02678 12.5934 3.61687
3097 2 9.03015 12.6653 7.2276
3072 3 10.8081 14.2615 3.64798
602 3 14.3368 14.3504 7.09369
1603 2 12.476 12.5766 7.32939
2605 2 14.4765 12.6336 5.29493
2581 3 12.4994 12.5278 3.85469
3098 3 12.3441 14.389 5.36803
3575 1 14.1911 14.352 3.74437
1114 3 17.8515 12.4717 5.43006
1584 1 18.0235 14.2054 3.44608
2582 2 16.0478 12.5391 3.44679
3100 2 16.3094 14.2103 5.39371
3099 2 16.1884 12.7474 7.30441
3599 2 17.844 14.5042 7.06482
582 1 -0.00591977 17.9251 3.84275
1605 3 1.97937 17.9551 5.31339
1604 3 1.93191 16.018 7.03769
3104 1 -0.0721143 16.2252 5.26247
3103 3 0.0366752 17.9296 7.23598
3576 2 1.77393 16.0981 3.65632
2087 3 3.69762 17.9018 3.64323
2607 3 5.22855 17.5756 5.54821
2586 3 7.11254 17.8924 3.53397
3107 3 7.24822 17.8239 7.16
3106 2 5.34918 16.0214 7.16815
3105 2 3.40912 17.8488 7.25693
3602 3 3.60159 15.8895 5.25343
3601 3 7.06076 16.1079 5.24535
3577 3 5.34361 16.1031 3.52746
1091 3 10.6609 17.867 3.43985
2107 1 8.97444 15.9503 7.12499
2608 3 8.85452 17.6542 5.37747
3109 3 10.8402 17.7075 7.20965
3603 2 10.6653 15.9667 5.41392
3579 1 8.97451 15.956 3.62353
41 2 14.4484 16.1609 5.49415
2610 1 12.5911 17.611 5.33672
2609 3 14.3071 17.6421 7.07206
2587 1 14.2394 17.8487 3.82123
3604 2 12.5044 15.9397 7.10551
3580 2 12.5413 16.0375 3.52509
583 3 16.2541 16.1542 3.55342
1606 1 17.9129 17.7312 7.24174
2109 2 16.1114 16.0581 7.10664
3112 1 16.0957 17.9183 5.52999
3110 2 17.9159 16.1214 5.3108
3582 3 18.137 17.9285 3.79441
21 2 0.0368882 1.97641 8.89226
604 3 -0.108543 0.115007 10.7204
2110 3 1.59541 1.79264 10.6003
2589 1 1.87265 0.248718 8.87421
585 1 7.10864 1.99575 8.93984
1092 2 5.49527 0.083232 9.06573
1608 1 7.0184 0.0589914 10.7036
1607 2 3.62734 0.22825 10.6914
2111 1 5.23918 1.90575 10.8524
2591 3 3.60918 2.02217 8.97854
1116 3 10.6147 0.0249234 10.8653
2612 2 8.9945 1.86093 10.4302
2592 1 10.6976 1.86467 8.98964
3587 1 9.04287 0.0753025 8.93223
587 3 14.1803 1.7945 8.91936
1609 2 14.1158 0.0536003 10.5216
2090 2 12.2522 -0.0246965 8.83077
2613 2 12.3997 1.86296 10.9473
26 2 15.9986 0.157906 9.15459
2594 1 17.8856 1.78097 8.90021
3116 2 16.1042 1.75898 10.6698
3115 1 17.8359 0.00527008 10.7602
1093 2 1.7687 7.23765 8.918
2091 2 1.81102 3.79971 8.92757
2615 1 0.0146868 3.57823 10.7396
3118 1 -0.0580223 7.41913 10.6158
3117 1 1.89331 5.41821 10.7765
3089 3 0.123017 5.46787 8.88884
30 2 5.42745 3.82836 8.96843
45 2 7.27807 7.39679 10.7485
1096 1 3.5972 5.58472 9.04918
2112 3 7.19105 3.70414 10.5983
2616 3 3.57291 3.76585 10.7638
3091 2 7.30224 5.81692 8.90732
3608 1 3.4706 7.14087 10.6582
3607 1 5.40361 5.51061 10.7297
3591 1 5.35412 7.04966 8.93656
46 3 10.7288 7.14568 10.833
1098 2 10.6297 5.39947 8.95611
1591 2 8.90388 3.60329 8.80151
1588 3 9.16895 7.35545 9.14396
2113 2 10.8134 3.71696 10.5971
3609 3 8.9324 5.36668 10.9072
32 3 12.6002 7.10147 8.93395
34 1 12.4888 3.71907 8.96211
36 3 14.1769 5.33677 8.84259
609 1 14.176 7.16683 10.9922
3119 2 14.1668 3.58562 10.7358
3611 3 12.6267 5.37773 10.675
1120 1 17.8558 3.69358 10.568
1615 2 17.9389 7.18496 10.6189
1593 2 17.8875 5.4506 8.78486
2093 1 16.0526 7.05335 9.00063
2595 3 16.0494 3.66783 8.93729
3612 1 15.8254 5.33264 10.582
48 3 2.0348 9.07624 10.7086
2095 1 -0.0621446 8.99947 8.83791
2596 3 1.92008 10.6857 8.82925
3120 2 0.0727343 10.833 10.5743
37 2 3.88154 8.90798 9.05385
49 1 5.22499 9.00837 10.8646
612 3 7.19337 10.5872 10.7617
1105 1 5.41158 10.8534 8.80503
2096 3 7.07673 9.03895 9.02656
3121 1 3.6421 10.8045 10.7323
613 2 8.91091 9.00856 10.7115
598 2 10.4882 9.0862 8.96389
3613 2 10.6227 10.7432 10.8207
3596 2 8.94553 10.7956 8.9485
50 2 14.1895 10.5977 10.6978
614 3 12.4502 8.9386 10.6629
2598 3 12.5215 10.7097 8.9078
2597 3 14.4024 8.97569 9.00373
51 1 17.9638 10.8537 10.6915
600 1 18.0072 9.08511 8.9357
1122 3 16.0339 8.89533 10.8494
1109 1 16.2665 10.6022 8.92169
616 1 0.206295 14.4546 10.826
601 2 0.229546 12.7158 9.03093
1123 2 1.92619 12.27 10.6684
3094 1 1.83523 14.2113 9.04318
1124 3 5.36245 12.518 10.6996
1111 3 5.31316 14.1839 8.82148
1619 2 7.28697 14.1249 10.894
1618 3 3.65662 14.0113 10.5848
1601 3 7.10607 12.5483 8.93819
3095 3 3.64609 12.3858 8.70936
617 3 10.5694 14.3257 10.6047
1125 1 8.88977 12.5628 10.7864
3096 3 8.91504 14.3156 9.02005
3598 2 10.7242 12.5042 8.94479
1126 2 14.2926 14.2581 10.7276
1113 1 12.5078 14.3631 8.89987
1620 3 12.3286 12.3206 10.695
1602 1 14.3835 12.533 8.97638
1621 2 16.0315 12.4156 10.5737
3126 1 17.9813 14.412 10.665
3102 3 16.4234 14.3718 9.02404
3101 3 17.9498 12.6013 9.01436
1623 2 0.259405 17.5606 10.9586
2119 3 2.07364 16.085 10.966
2606 3 1.74602 17.8555 8.942
3600 1 0.0455331 15.9836 8.94396
40 2 7.19542 15.8851 8.93562
619 1 3.86855 17.788 10.7486
1127 3 7.20927 17.6822 10.6943
2120 1 5.39051 15.8504 10.7293
2106 3 3.67507 16.1044 8.91491
2105 2 5.49279 17.6947 8.95127
1624 2 10.8858 17.7501 10.7527
2108 1 10.7641 16.0393 9.00263
2625 1 8.92817 15.914 10.7519
3108 2 9.06492 17.7179 8.92894
603 2 14.3246 15.943 9.03205
1115 1 12.7362 17.6872 9.01481
2626 2 12.4255 16.0422 10.6949
3620 2 14.1597 17.8269 10.7935
2628 3 15.9742 16.2441 10.8297
2611 2 18.1335 16.2591 9.0475
3127 3 17.8335 18.0858 10.7533
3111 1 15.9221 17.7246 8.93487
42 3 -0.00181224 1.83199 12.5511
2121 2 0.168271 0.0330585 14.3108
2629 2 1.72985 1.90339 14.1948
3113 3 1.78495 0.0871591 12.3836
43 3 3.3951 1.94338 12.4152
605 3 7.07218 2.08758 12.4557
1625 2 7.14694 0.320637 14.2463
2123 3 3.60778 0.13051 14.1711
3128 2 5.36306 2.09017 14.2157
3605 2 5.32493 0.223905 12.5036
606 2 10.7504 1.99144 12.4231
1627 3 10.5997 0.0843203 14.3082
3129 1 8.96657 2.09971 14.2591
3606 2 8.8734 0.220051 12.6216
1117 1 14.2289 1.86273 12.4727
2632 2 14.2635 0.266802 14.1546
3131 1 12.4808 1.83601 14.0421
3114 3 12.4601 0.0157415 12.5642
44 2 16.009 0.205551 12.4621
501 2 18.1386 0.381507 14.3494
2614 2 17.8848 1.99738 12.4193
3132 1 15.9611 1.79666 14.3382
607 2 1.6459 3.65315 12.5575
1119 3 1.6328 7.16527 12.3345
1118 3 0.0392172 5.45788 12.2124
2634 1 0.148765 7.08291 14.0487
2633 1 -0.0868898 3.54349 14.2856
3624 1 1.57644 5.23617 14.1996
60 2 7.06066 7.17075 14.3628
608 1 5.23851 3.66406 12.4233
1612 2 7.0816 5.52768 12.5819
1611 3 5.3827 7.19254 12.4884
1610 2 3.54759 5.40336 12.45
2128 2 7.21867 3.82382 14.212
2126 3 3.52879 3.74777 14.3582
3136 2 3.42091 7.05277 14.288
3626 2 5.28724 5.52922 14.3432
1613 3 10.5837 5.54141 12.5682
2114 2 8.79091 7.26236 12.9032
3137 3 10.9176 3.70053 14.4505
3629 1 8.89839 5.29852 14.2679
3628 2 10.7959 7.22114 14.3113
3610 3 8.78039 3.50206 12.5249
610 1 12.6353 3.74965 12.4472
1614 2 14.3339 5.58616 12.6299
2617 3 12.3881 7.04489 12.6288
3138 3 14.2734 3.80837 14.3142
3631 1 14.4541 7.08582 14.3073
3630 3 12.5894 5.52416 14.3893
47 2 17.9308 5.26466 12.1643
65 1 16.1603 5.46825 14.3442
1138 1 17.7679 3.72597 14.2885
1121 1 16.1109 3.7479 12.3956
2618 2 16.241 7.1203 12.614
3140 2 17.8749 7.1273 14.2629
67 2 1.7766 8.87469 14.2955
611 1 1.93178 10.7225 12.3989
2115 2 0.0408007 9.11075 12.4903
2636 1 -0.014895 10.8961 14.3503
69 1 7.07532 10.5984 14.2231
70 2 5.47954 8.79947 14.3737
1616 2 5.35973 10.7578 12.6454
2116 1 3.52058 8.87081 12.7685
2619 1 7.10013 8.9774 12.6162
3633 1 3.77748 10.75 14.1993
71 2 8.54224 9.06426 14.3731
2117 2 8.97788 10.8312 12.4509
2620 3 10.6081 8.86366 12.5385
3141 3 10.6602 10.6943 14.2735
510 1 12.5426 8.80108 14.3438
1617 1 12.5169 10.791 12.448
3122 1 14.3619 8.99078 12.5136
3635 3 14.2274 10.6233 14.104
511 3 16.1447 8.89725 14.1771
615 3 17.9258 8.94077 12.3735
1639 1 17.8564 10.7409 14.239
2118 1 16.0849 10.8942 12.3871
513 1 0.0163091 14.0319 14.3551
514 1 1.93869 12.3522 14.1827
2621 3 0.195431 12.5204 12.4443
3123 2 1.83491 14.1122 12.5774
72 1 7.0491 14.3432 14.1282
515 2 5.47218 12.4495 14.3508
516 2 3.53069 14.2434 14.4226
3125 2 7.2588 12.5221 12.6885
3124 3 3.67964 12.4069 12.4843
3614 3 5.13379 14.4064 12.5722
73 3 10.7873 14.3609 14.3947
1145 1 8.96052 12.3813 14.4493
3616 1 10.8197 12.4939 12.5359
3615 1 9.16662 14.1256 12.664
1147 2 12.477 12.3788 14.3005
1146 2 14.3356 14.3541 14.1005
2622 3 12.6745 14.2278 12.5555
3617 3 14.0853 12.4342 12.3808
1149 3 16.0366 12.4641 14.4119
1622 1 17.9632 12.3326 12.6739
3146 1 17.9166 14.3221 14.1868
3618 2 16.1889 14.0409 12.4701
52 2 0.223571 15.9982 12.7488
518 3 0.151272 17.8658 14.5638
1150 3 1.83099 15.8808 14.4613
2623 3 1.89766 17.8361 12.718
53 1 3.75315 16.1852 12.6034
618 2 7.25835 15.998 12.5819
1151 2 3.59051 17.6425 14.4103
1642 2 5.37024 16.1151 14.2629
2142 3 7.28966 17.7363 14.1425
2624 1 5.6361 17.768 12.7067
54 3 10.8917 15.9357 12.6064
1643 1 9.00992 16.1935 14.3135
2649 3 10.7745 17.9026 14.0872
3619 1 8.90698 17.6872 12.3874
55 2 12.4887 17.8691 12.4376
620 3 14.3708 15.9617 12.4664
1646 1 12.5634 16.0447 14.3604
1644 3 14.4121 17.8624 14.5214
56 2 15.8553 18.028 12.5359
1647 2 16.1361 15.9774 14.052
2627 3 17.8698 16.1145 12.3556
3644 3 18.0297 17.7892 14.2623
57 2 1.7858 0.196971 16.1859
621 1 -0.0717441 1.84319 16.1377
1128 3 0.0714948 0.110566 17.7774
2122 3 1.79412 2.01939 17.9067
58 1 5.41913 0.166007 15.9957
1132 1 7.19106 0.0905142 17.8668
1131 2 7.12968 1.79054 16.136
1130 1 3.58857 0.175144 18.0458
1129 3 3.61644 1.63776 15.9905
2630 2 5.46638 1.86409 17.8008
1133 1 10.9178 1.91135 16.045
1626 3 10.6352 0.203661 17.7648
2631 2 8.88321 1.93275 17.8293
3621 2 8.96407 0.207046 16.0582
59 2 12.5681 0.126305 15.7352
1134 2 14.0968 2.01343 15.9737
2124 2 14.2154 0.195588 17.7333
3130 2 12.5432 2.04808 17.9696
502 1 16.171 0.0582353 16.206
3133 1 15.9866 1.77006 17.7052
3623 1 17.946 0.253523 17.7623
3622 1 18.1205 1.97035 15.9934
503 3 1.74458 3.47464 16.1488
504 1 1.66062 7.23992 16.159
1628 2 0.0797613 5.42825 16.0307
2125 3 -0.232715 3.67964 17.8861
3134 2 0.201054 7.08921 17.8668
3625 2 1.88901 5.48043 17.88
61 3 5.32234 3.56883 15.9762
505 2 3.60773 7.22994 17.9336
1135 1 7.06578 7.02384 18.044
1631 1 5.19458 7.03911 16.0841
1630 3 3.42502 5.54359 16.1218
1629 3 7.14813 5.31676 16.0999
2127 3 3.69658 3.52739 17.8225
3135 3 7.07135 3.87436 17.8833
3627 1 5.40195 5.46795 17.9494
62 3 9.19506 5.29155 17.6575
63 2 10.7908 7.22497 17.7079
506 1 9.25645 3.39842 16.1498
1632 1 10.8708 5.55108 15.9029
2129 3 9.0273 7.04633 16.0628
2635 1 10.8513 3.62078 17.8935
64 1 12.4661 5.38182 17.9795
1137 2 14.5347 7.06849 17.9975
1136 1 12.618 3.6851 16.1617
2131 1 14.3124 5.54262 16.2759
2130 2 12.7602 7.07757 16.248
3139 2 14.482 3.85295 17.9527
66 3 18.1129 5.37604 16.1186
507 2 16.2802 5.56414 17.8071
1140 3 18.0895 3.60348 17.8705
1139 1 16.3059 3.50974 16.1483
1634 2 18.0778 7.24798 17.9957
1633 2 16.2592 7.12664 15.9912
508 1 1.97954 8.94843 17.9024
1141 1 1.96639 10.7347 16.2126
2132 2 -0.181119 9.01967 15.9528
3632 3 0.141926 10.611 17.7442
68 3 3.68846 10.8057 17.9211
509 3 7.23868 10.7366 17.8763
1142 3 5.40841 8.97194 17.9358
1635 1 5.43288 10.8053 16.1057
2134 3 7.09943 9.0259 16.2598
2133 2 3.62213 9.03947 16.0059
1143 1 8.89118 8.81462 17.8866
1636 3 8.92894 10.8249 16.1777
2637 3 10.8693 8.89585 16.0271
3634 2 10.5936 10.7307 17.8394
1144 2 12.5415 10.8219 16.0204
1638 1 12.5585 9.06073 17.6733
1637 1 14.2774 10.8162 17.7556
2638 3 14.5459 8.88093 15.957
512 2 17.8213 9.17862 16.0249
1640 3 16.1273 8.86869 17.7864
2135 1 16.1721 10.7436 16.2886
2639 3 17.9829 10.7397 17.8468
2137 1 0.196203 14.3835 17.9749
2136 1 1.92767 12.7064 17.9077
2641 1 1.88614 14.3352 16.0271
2640 2 0.302725 12.5085 16.1831
2140 2 7.11126 14.4011 17.9205
2139 2 3.47616 14.3592 17.7778
2138 3 5.30244 12.5178 17.827
2643 1 5.5829 14.3798 16.1244
2642 1 3.91311 12.6094 16.0762
3142 1 7.07759 12.4443 16.2838
2141 1 8.91058 14.3674 15.9867
2645 2 8.87314 12.52 17.9697
2644 2 10.5815 14.2453 17.7738
3143 1 10.6801 12.4535 16.1048
2647 3 12.5866 14.1048 15.8881
2646 3 12.351 12.4041 17.7907
3145 3 14.2043 14.3377 17.7634
3144 3 14.402 12.4041 16.1068
517 2 17.958 14.1796 17.9205
1148 1 18.0051 12.5554 15.9853
3148 2 16.0412 14.1022 16.15
3147 2 16.2334 12.4458 17.8819
2648 2 1.84348 17.9667 16.1512
3150 3 1.87988 16.0824 17.929
3149 1 0.0466615 16.1381 16.1338
3636 2 0.115774 17.8028 17.7183
1641 2 3.5821 17.8997 17.872
2143 1 7.04265 17.8952 17.7957
3640 3 5.37085 17.9954 16.145
3639 3 7.17227 16.201 16.1152
3638 2 5.33551 16.1155 17.8946
3637 2 3.61642 16.2137 16.1195
74 3 9.14093 17.9356 16.1773
519 3 10.7875 17.949 17.8346
3642 2 8.93901 15.9812 17.5663
3641 2 10.7753 16.1315 15.9843
75 2 12.4903 16.1684 17.549
76 1 12.5288 17.8946 15.8912
1645 1 14.1184 17.7572 17.7543
3643 2 14.4121 15.8773 15.9778
77 2 16.1776 15.7607 17.7347
2144 2 17.9422 15.8677 16.0148
2650 3 17.7081 17.8821 17.9088
3645 1 16.2015 17.6537 16.0041
520 1 0.173349 0.159356 21.5067
78 2 0.165086 1.87231 19.6093
2145 1 1.96988 1.90212 21.4339
3151 1 1.83666 0.0570124 19.6948
521 3 3.64448 0.0368294 21.4885
80 2 3.53525 1.9759 19.7264
79 2 7.34413 1.9008 19.4815
2147 2 5.41058 1.83014 21.4351
2146 3 7.28226 0.0751275 21.5093
2651 2 5.35717 0.177918 19.5638
81 1 10.9556 1.89513 19.6072
1648 2 10.6128 0.134892 21.4629
2652 2 9.00281 1.86337 21.337
3152 2 9.00593 0.331131 19.5891
522 2 14.3157 1.67717 19.5488
1649 1 14.3718 0.00557148 21.3346
2653 2 12.528 1.92545 21.554
3646 2 12.3228 0.0143384 19.6089
82 1 17.8474 0.152626 21.5338
2654 2 17.8206 1.79612 19.5512
3153 1 15.9521 1.92703 21.5792
3647 1 16.108 0.176865 19.4507
523 1 0.0245725 5.5366 19.7251
84 2 1.91839 6.99452 19.7165
83 2 0.214282 7.12166 21.3923
1650 1 0.186463 3.51484 21.4515
3155 2 1.71081 5.2676 21.4915
3154 1 1.82526 3.82292 19.6335
524 3 3.74773 5.43015 19.603
525 2 7.37254 5.36574 19.6623
526 2 3.71608 6.94748 21.4799
1153 1 7.36479 7.07489 21.5413
1152 3 5.37989 7.3745 19.837
2655 3 3.6972 3.65411 21.3513
3156 1 7.16049 3.69843 21.5449
3649 2 5.52579 3.76435 19.7041
3648 1 5.41814 5.60276 21.3546
86 1 10.6791 7.33963 21.4154
85 2 8.95057 3.64233 19.7327
1155 3 10.7709 5.29711 19.6629
1154 2 9.10704 7.26247 19.5744
2656 2 10.8153 3.74279 21.4953
3650 3 9.02542 5.32837 21.3813
527 3 12.4518 7.37668 19.6391
88 3 12.5276 5.54944 21.3168
87 3 12.698 3.8097 19.7429
1156 1 14.5387 5.54839 19.6576
2148 3 14.4841 7.20837 21.3641
2657 2 14.1474 3.6923 21.2725
528 3 17.8448 3.44453 21.4785
89 3 16.2599 5.49642 21.1963
1157 2 16.1788 7.30153 19.7178
3158 3 18.0796 5.44809 19.6168
3157 2 17.9068 7.20933 21.4804
3651 2 16.0995 3.55994 19.6682
529 3 1.75689 8.96869 21.3819
530 3 1.86465 10.89 19.7043
1158 2 0.108302 9.02957 19.5114
3652 1 0.0424227 10.9401 21.4428
531 2 5.38325 8.91769 21.5724
532 1 5.44185 10.7026 19.7336
533 1 7.21082 10.6335 21.4891
1159 3 3.56199 9.05267 19.8278
1651 2 7.28913 8.98945 19.8022
3653 2 3.61969 10.7871 21.5256
90 1 8.92071 10.633 19.7807
1161 3 8.89395 8.98183 21.6882
1160 3 10.7298 10.5776 21.5231
1652 1 10.6741 9.09257 19.5214
534 2 12.629 10.7673 19.5453
1162 3 12.5458 8.89338 21.4194
1654 1 14.2652 10.6946 21.2507
1653 2 14.3319 8.83107 19.6223
1656 3 16.1145 10.6769 19.4666
1655 3 16.2115 8.91514 21.3995
3159 3 17.8522 10.7576 21.2271
3654 1 17.9896 9.00928 19.6971
1660 1 0.0285677 14.3783 21.4497
1659 3 1.82235 14.3977 19.6756
1658 2 1.83846 12.7056 21.5873
1657 3 0.069821 12.7379 19.7813
1163 1 5.48583 14.4415 19.5941
1661 3 3.60687 14.3509 21.4247
2151 1 7.08755 12.5949 19.4729
2150 3 5.56108 12.3805 21.4508
2149 3 3.68576 12.5702 19.6083
3160 3 7.11244 14.3559 21.229
1662 2 9.12096 14.2998 19.6159
2153 1 9.07413 12.5047 21.2631
2152 1 10.785 12.4353 19.5351
2658 1 10.9236 14.2107 21.2877
2155 1 14.3031 12.6406 19.6065
2154 3 12.4677 14.1908 19.6092
2660 1 14.2289 14.0826 21.2498
2659 2 12.4198 12.3628 21.3893
535 3 17.9892 12.5538 19.6468
1164 1 17.8587 14.149 21.4579
2156 3 16.2029 14.093 19.5049
2661 3 16.0198 12.5026 21.5282
1165 2 -0.0964433 17.8196 21.5807
2157 1 1.86132 17.9035 19.7585
2662 1 0.149069 16.2479 19.7666
3161 1 1.9818 16.1277 21.3817
1664 3 7.21403 17.7386 21.3363
1663 1 3.69264 18.0848 21.4922
2664 1 3.64022 16.1111 19.5785
2663 2 7.34029 16.2031 19.4726
3163 2 5.48858 16.2136 21.3059
3162 1 5.37955 17.7965 19.6428
536 3 10.6017 17.8401 21.4559
2665 3 10.5933 16.13 19.5472
3164 2 8.94162 17.9149 19.3806
3655 3 9.05289 15.9439 21.3572
2666 3 12.4257 17.8727 19.6342
3166 2 14.2414 15.7658 19.562
3165 2 14.3231 17.7619 21.4242
3656 1 12.6266 15.9734 21.3424
92 3 16.0085 15.9566 21.4491
91 1 17.8079 17.846 21.3245
1166 1 17.9066 15.8213 19.5442
3167 1 15.7879 17.674 19.4249
93 1 1.9979 1.9328 24.9399
1665 2 1.77472 0.0618398 23.3938
2667 1 -0.000229075 0.198087 24.9394
3168 1 0.17922 1.94264 23.3715
2158 1 5.62719 0.0876356 23.2403
2670 1 3.71593 -0.029086 24.911
3170 2 7.29839 1.84312 23.2208
3169 1 3.6952 1.80025 23.3351
3659 3 7.46369 0.0295757 25.0571
3658 3 5.51922 1.80255 25.0559
537 3 9.13109 1.93613 25.0557
2671 1 9.14285 0.194868 23.416
3171 2 10.9783 0.105406 25.1387
3660 3 10.9271 1.87929 23.2647
2673 3 12.5233 0.0597538 23.3252
3663 3 14.0741 1.75656 23.1989
3662 2 14.2757 0.0895249 25.1257
3661 1 12.508 1.81804 25.1944
539 2 16.2142 1.86721 25.2563
1167 2 17.7576 -0.0493728 25.1402
1668 1 17.8683 1.70123 23.3696
2160 3 15.9179 0.274522 23.534
99 1 1.83735 5.32476 25.0025
98 2 1.97821 6.94649 23.1414
97 2 0.201526 7.16812 24.9443
96 2 0.0109442 5.40384 23.0868
3173 2 1.78722 3.61046 23.203
3172 3 0.187839 3.5452 25.1258
540 1 3.59373 7.03515 25.144
541 2 5.40036 7.03525 23.0846
542 1 7.2586 5.33145 23.2599
543 1 5.43664 5.38927 25.0513
101 3 7.12593 7.11736 25.1301
100 3 3.68828 5.26948 23.1659
2675 1 7.20852 3.53788 25.1733
3175 3 3.69553 3.66906 24.9377
3665 3 5.49167 3.56255 23.2874
546 3 9.03777 7.21229 23.2761
547 3 9.12727 5.47477 25.0418
102 1 10.8977 5.25813 23.2036
1170 2 10.8649 6.9885 25.0633
3177 3 10.8164 3.68909 25.1544
3666 3 9.03366 3.6631 23.2412
548 2 14.1971 5.23789 23.0256
549 2 12.7609 5.43102 25.0528
105 1 14.5654 3.59567 25.0828
1670 2 12.39 7.25828 23.3483
3179 1 12.4664 3.82041 23.3557
3667 3 14.3705 7.07984 24.8523
1172 1 16.106 5.5036 25.0236
1672 3 17.7333 3.67209 24.9734
1671 3 16.0491 6.93952 23.3567
2678 3 18.0111 6.94173 24.9456
2677 2 17.9135 5.39034 23.1533
3668 1 16.0128 3.66244 23.0607
550 3 0.225677 8.84222 23.1549
106 2 1.96836 10.8715 23.2157
1175 1 1.88083 9.04329 24.887
3669 2 0.186096 10.7454 24.9971
108 3 5.40536 10.6735 23.1309
1180 2 7.03463 10.6939 25.0067
1178 3 7.05527 8.98265 23.467
1177 2 3.58001 8.75846 23.1476
1176 3 5.32449 9.00341 25.0952
3670 1 3.54856 10.6753 24.9895
551 3 10.626 10.7152 25.1184
552 3 8.89028 10.9645 23.2932
1181 1 8.91202 8.99238 25.2682
1674 1 10.9425 8.95764 23.4671
1182 2 12.4762 10.7269 23.1887
1676 2 12.6306 9.04993 24.9449
1675 2 14.4335 9.0405 23.3408
2163 3 14.3842 10.7192 24.8903
1183 3 16.0564 8.97393 25.1043
1677 1 16.2771 10.7691 23.3099
2165 3 17.8475 10.6025 25.0234
3671 2 17.8934 8.83115 23.1108
555 3 0.0500899 14.382 25.0353
1184 1 1.84548 14.3794 23.1813
1678 3 1.91396 12.5143 24.8877
2166 3 -0.057099 12.6487 23.2301
113 1 7.03592 14.3709 25.0742
1185 3 5.44964 12.4906 24.9306
2170 1 5.5372 14.3017 23.0706
2169 3 3.69933 12.5837 23.3487
2168 3 3.53597 14.4162 25.0228
2167 1 7.10821 12.6122 23.1688
1680 3 10.8538 14.2918 24.9638
2171 2 10.61 12.6862 23.1391
2682 1 9.00285 14.3239 23.0953
2681 3 9.06928 12.5273 25.1529
114 3 14.3006 14.3635 25.0339
1681 3 12.5833 12.5247 24.6852
2684 3 14.3045 12.4825 23.1092
2683 3 12.5719 14.1855 23.1171
557 2 18.0818 12.5828 23.1638
2173 3 16.0222 14.2496 23.1065
2685 1 16.0613 12.5026 24.8207
3183 1 17.7176 14.3372 25.1842
1684 1 1.7734 16.2012 24.9681
1683 1 1.67672 17.7445 23.0412
2688 1 0.0053629 16.1143 23.1089
2687 3 0.038882 17.7901 24.9999
2175 2 7.43542 17.7571 25.0229
2174 3 5.48402 17.9511 23.1667
2689 3 3.54299 17.7642 24.8637
3187 1 5.44557 16.3762 24.8962
3186 3 7.17604 16.0196 22.9802
3185 3 3.6259 16.1598 23.2152
1687 3 8.98435 17.7029 23.2563
1686 3 8.99801 15.9306 24.9143
2177 1 10.8714 17.831 24.9807
3675 3 10.8038 15.9244 23.1095
2178 2 14.2651 17.9765 24.917
2690 3 12.3631 17.8274 22.9714
3188 3 12.439 16.0763 24.8297
3676 2 14.3531 16.0639 23.2788
1187 1 17.8946 16.1077 23.2126
1186 2 17.7984 17.6414 24.8753
1689 3 15.9206 16.2902 25.1071
3189 1 16.1182 17.8132 23.0942
1188 3 0.102465 -0.174756 28.5887
2180 1 1.78308 1.88803 28.6774
2668 2 1.96374 0.0453434 26.734
3657 1 0.161176 1.59456 26.8591
559 3 7.21416 -0.166544 28.5354
94 2 7.29008 1.90152 26.7917
1189 1 3.69656 0.0977091 28.3225
1666 3 5.54746 -0.119276 26.6258
2181 2 5.77859 1.76886 28.5223
2669 1 3.72055 1.87722 26.7981
560 1 10.8209 0.172854 28.6186
95 3 9.1522 0.0558094 26.8519
2182 2 8.92589 1.73674 28.5499
2672 1 10.5701 2.00699 26.8502
538 3 14.278 1.82389 26.8727
1667 2 12.406 0.198963 26.9071
2184 3 12.6376 1.91958 28.5637
2183 1 14.2884 0.084408 28.735
2159 2 17.8966 1.90734 26.8025
3193 3 16.0567 1.68546 28.6171
3679 3 17.8655 -0.0746038 28.5636
3664 3 16.2231 0.132568 26.8145
1168 1 2.01428 3.62835 26.8527
1669 2 1.67098 7.21773 26.7848
2186 2 -0.00289748 7.35039 28.4119
2185 2 0.0122057 3.41399 28.5881
2674 2 0.091522 5.16986 27.007
3194 3 2.04893 5.45847 28.6072
544 1 3.56656 5.34106 26.789
563 2 7.25621 7.07532 28.5757
1691 2 7.27517 3.48661 28.6134
1690 1 3.72936 3.6221 28.564
2676 3 7.15436 5.46658 26.8461
3196 1 3.7552 7.30806 28.6286
3195 2 5.45922 5.46787 28.6135
3176 3 5.43479 3.50775 26.7356
3174 3 5.39811 7.28673 26.7582
545 1 10.699 5.42343 26.9894
1171 2 8.91009 3.71474 26.8519
1169 1 8.88205 7.18062 26.7995
2694 2 10.824 3.58314 28.6642
3197 1 8.73737 5.51599 28.5474
3681 2 10.8923 7.22308 28.3701
104 2 12.6676 3.70568 26.7529
103 2 14.4769 5.33372 26.6178
2695 3 14.2951 3.60279 28.5313
3178 2 12.6146 7.28957 26.7357
3684 2 14.4127 7.26725 28.6061
3683 2 12.6138 5.324 28.4136
622 3 17.9815 3.73322 28.7053
1004 2 18.0292 7.20421 28.5984
1174 2 16.1869 7.22932 26.7915
1173 2 18.0952 5.46902 26.7588
3180 3 16.241 3.7656 26.9148
3685 3 16.1377 5.54144 28.5287
1673 3 0.113205 9.11606 26.5702
2161 1 1.84404 10.8066 26.7249
2696 1 -0.00499794 10.7115 28.4679