ITEM: TIMESTEP
5000
ITEM: NUMBER OF ATOMS
4000
ITEM: BOX BOUNDS pp pp pp
1.0062026922657807e-01 3.5633439730773375e+01
1.0062026922657807e-01 3.5633439730773375e+01
1.0062026922657807e-01 3.5633439730773375e+01
ITEM: ATOMS id type x y z
1 1 0.125527 1.92662 1.99854
1563 3 0.254099 0.209497 0.0207207
2064 2 2.0163 2.05457 0.0520134
3561 2 1.8248 0.300136 1.9936
564 3 3.74146 1.88116 1.98436
565 2 7.26894 1.88671 1.73348
1565 2 7.27996 0.0567538 0.0226578
2065 3 3.74528 0.302124 0.104795
3061 3 5.50194 2.02791 -0.079269
3562 2 5.35899 0.105005 1.88979
566 3 10.9008 1.95655 1.83496
1070 3 10.6308 0.111366 0.0433198
3063 1 8.88472 0.0953271 1.82354
3062 2 8.83447 1.92285 0.113356
567 1 14.3457 1.74696 1.85504
2566 3 14.0487 0.0525672 0.179332
3064 2 12.4331 1.88692 0.0749025
3563 3 12.3483 0.123567 1.89544
2 2 17.8827 -0.0710458 0.186607
3 3 16.0934 0.0493068 1.80111
3066 1 17.8623 1.72173 2.04028
3065 1 16.1551 1.69737 0.232801
4 3 1.53592 5.28448 0.261366
5 1 1.94279 3.44681 2.13322
6 3 1.7473 7.08838 1.98375
1071 1 0.0984854 5.19311 2.0153
3067 1 -0.0116315 3.63605 0.0740474
3565 2 0.093059 7.21893 0.0346686
7 3 5.43084 5.47717 -0.0197307
8 3 3.35549 7.01962 0.227829
1072 2 7.35243 5.36935 1.83438
1075 2 5.31038 7.02101 1.83101
1074 1 3.57405 5.32115 1.80741
1567 1 7.29949 7.09858 0.0743136
2570 2 7.35092 3.67034 0.0944446
2569 1 3.67105 3.70488 0.105057
3569 2 5.48707 3.6464 1.75829
9 1 9.07767 5.68725 0.142806
10 1 9.02159 3.78157 2.02586
1077 3 10.9256 7.16456 0.200668
1076 1 10.784 5.33427 2.0957
1568 1 8.89735 7.2311 1.93985
3068 2 10.6025 3.79633 0.00642508
11 1 12.6254 5.32338 0.0358975
12 3 14.4855 3.63895 0.150445
570 2 12.3898 3.79581 1.61547
1571 2 14.3965 7.2387 0.00379645
1570 3 14.3479 5.37896 1.82544
1569 3 12.5508 7.06663 2.01899
572 3 16.0867 3.56021 1.80974
1081 3 16.1022 7.24334 2.0188
1079 3 17.9618 5.44281 1.79221
1078 2 16.311 5.4741 0.0695943
1573 3 17.9273 3.55695 -0.0343725
2070 2 17.9125 7.11979 0.157907
575 3 1.88295 10.7362 1.95422
1082 2 1.88264 9.06381 -0.0197653
1574 3 0.130209 8.86874 1.97633
3070 2 0.142632 10.7037 0.0719288
576 2 3.71128 10.6885 0.164566
1085 2 5.42285 8.81224 0.207921
1083 1 5.46446 10.646 1.82523
1577 2 7.15982 10.7252 -0.0948641
1576 1 7.15944 8.90468 1.9398
1575 3 3.81091 8.96488 1.99776
14 2 10.8441 10.7004 0.194941
1087 2 8.95545 10.5961 1.91654
1086 1 8.99979 8.93349 0.125993
2071 3 10.7685 8.91932 1.99732
580 3 12.6446 10.8132 1.80831
1088 2 14.5207 10.7056 0.269764
2073 3 12.687 8.93554 0.308419
2074 2 14.2573 8.90601 1.86897
15 2 18.0879 9.00024 1.69037
1581 3 16.2269 10.738 1.92885
2076 2 18.0712 10.7052 0.257137
2075 2 16.2784 8.8024 0.298512
2079 3 1.91603 12.6219 0.0374228
2078 1 1.87043 14.3852 1.82516
2077 1 0.0910485 12.6035 1.93612
2572 3 0.0644349 14.3377 0.0846585
2082 2 5.45354 13.9438 1.89555
2081 3 3.62399 12.5285 1.86315
2080 1 5.47144 12.5606 0.0597888
2576 3 7.20109 14.3522 0.223893
2575 3 7.23687 12.5095 1.88593
3071 3 3.94606 14.3668 0.117714
1583 1 9.04574 14.3086 1.87504
2084 2 10.6856 14.3815 0.211358
2579 3 10.9031 12.4922 1.91424
3073 3 8.99163 12.3084 0.226946
2085 2 12.4816 14.307 2.07938
2580 3 14.312 12.6986 1.93932
3074 3 12.7458 12.7835 0.181028
3574 2 14.2875 14.5655 0.380967
581 2 17.9665 12.5184 1.71278
1089 3 17.9024 14.3506 0.177167
2583 3 16.1126 14.376 1.92984
3075 1 16.0159 12.5633 0.441131
16 3 0.215429 17.8791 0.116601
2086 1 1.88692 17.9248 1.85421
2584 3 0.0730737 16.0366 1.73049
3076 3 1.97814 16.0835 0.0457267
17 3 5.55275 16.2416 0.0585679
1090 3 3.77901 17.8621 0.240907
2585 3 7.19783 17.8807 0.220652
3079 1 5.45153 17.7902 1.96762
3078 3 7.38045 16.0206 2.00911
3077 2 3.74024 15.9112 2.08161
18 2 8.91334 15.9815 0.122968
1585 3 10.6813 17.7638 0.07274
3080 3 10.555 16.1282 1.92404
3578 2 8.99805 17.7667 1.93331
19 1 12.3796 16.0195 0.175515
2088 1 14.3055 17.9964 0.102296
3081 2 14.3016 16.2529 1.9439
3581 3 12.5527 17.9429 1.91035
20 2 16.0898 16.0615 0.203267
1586 3 17.9145 16.1293 1.75006
3083 1 16.1218 17.8517 1.79291
3082 2 17.9192 17.901 0.0213544
584 3 1.87711 1.87997 7.2827
1564 3 0.0746032 0.0776637 3.73925
2588 2 1.96538 0.0812567 5.59562
2563 3 1.97213 1.85223 3.82463
3084 2 0.0466573 0.177521 7.25639
3583 3 0.0308304 1.93296 5.56846
22 1 5.40289 1.8821 7.23017
1069 3 3.69549 0.108995 3.76592
1566 3 7.08739 0.227864 3.64013
2089 3 5.32377 0.149124 5.39566
2590 3 3.57951 0.0281424 7.21531
2564 2 5.34854 2.06102 3.68262
3085 1 7.21453 0.218685 7.21359
3585 3 3.76592 1.9039 5.51756
3584 3 7.16505 1.87981 5.39072
586 3 8.99178 1.90794 7.21225
2066 2 10.698 0.0776075 3.66394
2593 1 9.01195 0.0526832 5.47797
2565 3 8.91613 1.90872 3.77956
3086 3 10.8426 0.136268 7.27404
3586 2 10.8474 1.61064 5.39937
23 3 12.704 1.88342 7.38327
24 1 14.2491 -0.0774981 7.0308
25 2 14.3263 1.79448 5.71509
2568 3 14.3109 0.152715 3.55729
2567 1 12.7168 1.92531 3.66371
3087 1 12.6998 0.0423193 5.39467
568 1 18.0473 0.0320062 3.46984
588 1 16.1539 1.76716 7.27846
1587 3 17.8208 -0.0504149 7.23979
3088 3 15.9373 -0.0241018 5.35212
3588 1 17.8758 1.41084 5.4272
3564 3 16.1964 1.76731 3.73271
27 3 1.88526 5.4287 7.16435
28 1 1.81977 7.35534 5.41094
589 1 0.131735 5.47365 5.44755
2067 2 0.133125 3.48113 3.75776
3090 3 1.84612 3.60662 5.43873
3590 1 0.0290396 7.45837 7.25788
3589 3 0.00636805 3.64545 7.25636
3567 2 0.24637 7.06454 3.72732
3566 1 1.87413 5.32985 3.66692
29 3 3.80761 3.68033 7.32088
593 1 3.58067 7.2423 7.31915
592 1 7.16468 5.37538 5.52444
591 1 7.10859 7.32515 7.22334
590 3 3.67341 5.57641 5.5437
1095 2 5.54334 5.53572 7.21988
1094 1 5.51266 7.20303 5.46833
1073 1 3.92459 7.23845 3.85402
2068 3 7.16736 7.17935 3.52913
2069 2 3.54102 3.60146 3.72263
3593 3 5.52669 3.66523 5.56744
3592 1 7.18503 3.48765 7.31319
3570 2 5.49117 5.335 3.66491
3568 3 7.12251 3.57778 3.4591
31 3 8.721 3.59808 5.463
569 1 10.6387 7.08021 3.83086
594 1 10.8218 5.43119 5.42162
1097 1 8.98832 5.57364 7.26978
1590 1 9.00817 7.24164 5.49387
1589 1 10.7499 7.30652 7.24355
3594 3 10.8054 3.66215 7.32378
3572 2 10.9381 3.65142 3.78293
3571 3 8.90413 5.428 3.76129
33 3 12.6603 3.5598 5.55103
35 1 14.2649 3.70263 7.27147
571 2 12.478 5.2628 3.64302
595 2 14.2458 7.21577 7.21382
1100 2 14.4974 5.33711 5.5097
1099 2 12.4833 5.4483 7.24388
1592 1 12.5215 7.1764 5.53883
1572 1 14.2486 7.06369 3.8038
3069 3 14.5129 3.63847 3.6791
573 1 16.0135 5.31964 3.72521
1080 1 17.8157 3.65948 3.58664
1595 2 16.0575 7.09743 5.34827
1594 1 16.1457 5.50331 7.05339
2094 1 17.9482 7.30045 7.24844
2092 3 17.9125 3.42413 7.18686
2571 1 17.716 7.21466 3.72264
3092 1 17.9379 5.35737 5.50145
3595 1 16.1038 3.6009 5.47686
13 1 0.212933 10.6617 3.68946
597 2 0.120421 10.8079 7.10258
596 1 1.9258 10.6952 5.44627
574 2 2.0498 8.82668 3.61326
1102 1 1.79164 9.04289 7.16789
1101 1 -0.150715 8.73435 5.32336
38 3 3.69305 10.6873 7.31677
578 3 3.5508 10.748 3.66129
577 1 5.53107 9.06798 3.79077
1106 3 7.31628 10.8964 7.14307
1104 1 5.43225 10.8292 5.60091
1103 2 3.60262 9.03774 5.58114
1084 2 7.37338 10.8533 3.66479
1597 2 7.33351 9.10949 5.33362
1596 3 5.44648 9.09694 7.22532
39 2 10.6504 10.8838 7.15227
599 2 9.02669 10.7891 5.35543
579 3 10.7003 10.7626 3.52464
1107 1 8.97952 9.25912 7.10056
1578 1 9.00565 9.113 3.71937
2097 1 10.828 9.05831 5.44068
1108 3 12.6371 10.8749 5.37812
1598 3 12.5217 9.17362 7.10315
1579 3 12.5445 8.87044 3.66723
2072 1 14.3313 10.7132 3.64466
2099 2 14.4695 10.7374 7.11862
2098 1 14.3418 8.85938 5.43045
1599 2 16.0655 8.96487 7.25559
1580 1 15.9604 8.96768 3.67715
2100 2 16.0617 10.8002 5.31574
3093 2 17.7601 10.766 7.11122
3597 3 17.7011 9.11734 5.34627
3573 1 17.8875 10.7659 3.55382
1110 2 -0.0708642 14.3623 7.21432
1582 3 1.86213 12.4817 3.6975
2103 1 1.66831 12.6298 7.27697
2102 2 1.97378 14.3369 5.40341
2101 2 0.029795 12.5978 5.44843
2573 2 0.240981 14.3139 3.71636
1112 2 7.24163 14.4794 7.14399
1600 2 5.58524 12.6624 7.22483
2104 3 5.53574 14.2481 5.42876
2083 2 3.68334 14.1432 3.89786
2601 2 7.23847 12.6104 5.43897
2600 2 3.75588 12.4581 5.50929
2599 2 3.57611 14.3207 7.08952
2577 3 7.24434 14.3342 3.52984
2574 3 5.49103 12.2802 3.60294
2604 1 9.14759 14.3618 5.46085
2603 1 10.7748 14.1222 7.16507
2602 3 10.6226 12.4955 5.38834
2578 3 9.11921 12.5813 3.64143
3097 2 8.99592 12.6577 7.22891
3072 3 10.8006 14.3728 3.77033
602 1 14.3255 14.291 7.31219
1603 3 12.5663 12.7247 7.20625
2605 1 14.4198 12.7066 5.4816
2581 3 12.7407 12.5338 3.65787
3098 3 12.5616 14.3006 5.48767
3575 1 14.3055 14.4548 3.71149
1114 1 17.8551 12.6741 5.38181
1584 1 17.8045 14.3709 3.65496
2582 3 16.2554 12.4654 3.54427
3100 2 16.0773 14.386 5.63561
3099 2 16.2212 12.6576 7.18786
3599 1 18.051 14.3943 7.10492
582 2 0.275293 17.8579 3.63324
1605 1 1.71024 17.9353 5.64027
1604 3 1.9538 16.236 7.43401
3104 1 0.242887 16.0754 5.44627
3103 1 -0.0404764 17.9178 7.24628
3576 1 1.86364 16.134 3.58745
2087 1 3.69276 17.9022 3.59642
2607 1 5.31021 17.7097 5.38345
2586 2 7.23734 17.8094 3.62598
3107 3 7.08689 17.7888 7.15621
3106 3 5.11908 16.1014 7.20724
3105 3 3.55957 18.014 7.37759
3602 2 3.49747 16.129 5.26997
3601 3 7.20107 16.1686 5.34202
3577 1 5.44487 16.0844 3.65029
1091 2 10.7508 17.8131 3.64917
2107 2 9.04223 16.0106 7.29375
2608 2 9.08814 17.7607 5.53016
3109 3 10.7854 17.9399 7.24312
3603 2 10.6484 16.0081 5.5898
3579 1 9.02571 16.1251 3.77028
41 3 14.3695 16.15 5.53309
2610 3 12.712 17.9988 5.48708
2609 3 14.2302 17.9341 7.30489
2587 1 14.3078 17.8597 3.76176
3604 1 12.697 16.2272 7.35916
3580 3 12.6147 16.1628 3.66876
583 2 16.1379 16.2481 3.63578
1606 3 17.9126 18.0482 7.22741
2109 2 16.3089 16.0387 7.32912
3112 3 16.0897 17.8582 5.41308
3110 3 17.851 16.1878 5.44187
3582 3 17.7483 18.026 3.53616
21 2 0.0833654 1.76173 9.03895
604 1 0.187442 0.0862558 10.6629
2110 2 1.69795 1.71364 10.9018
2589 2 1.68335 0.0296642 8.85517
585 1 7.13792 1.94565 9.13335
1092 2 5.33905 0.151139 9.12683
1608 3 7.21401 0.103183 10.8106
1607 1 3.44453 0.268852 10.6444
2111 3 5.28198 1.84945 10.8794
2591 3 3.73777 1.90454 9.01135
1116 1 10.8998 0.00124909 10.7765
2612 1 9.01482 1.89138 10.7129
2592 2 10.6569 1.81259 8.99323
3587 3 8.98681 0.0689146 9.00763
587 2 14.3314 1.90726 9.04027
1609 3 14.3767 0.153408 10.7279
2090 2 12.4695 0.088624 8.97792
2613 1 12.551 1.79269 10.8014
26 1 15.9255 -0.0615102 8.88632
2594 2 17.7553 1.60624 9.17656
3116 3 16.1484 1.81692 10.8268
3115 1 17.7608 -0.00637082 10.7405
1093 3 1.81256 7.17124 8.95951
2091 2 1.92615 3.82393 9.00282
2615 3 -0.132877 3.71289 10.7978
3118 3 0.241148 7.21558 10.731
3117 1 1.89606 5.35082 10.6614
3089 3 -0.189104 5.37366 9.04046
30 1 5.36129 3.65081 9.25158
45 3 7.13421 7.2323 10.7202
1096 2 3.65088 5.38022 9.03612
2112 1 7.221 3.69787 10.9061
2616 3 3.54985 3.5803 10.8228
3091 1 7.16007 5.38665 9.06395
3608 3 3.69149 7.26276 10.6582
3607 3 5.3483 5.41356 10.7765
3591 1 5.49024 7.33598 8.94305
46 3 10.7056 7.23009 10.904
1098 3 10.803 5.64101 9.00286
1591 1 8.8751 3.73865 8.9434
1588 3 8.98227 7.25733 9.00662
2113 2 10.7333 3.59384 10.6861
3609 2 9.08894 5.22807 10.8758
32 2 12.5671 7.41869 8.99612
34 1 12.6934 3.82128 9.04774
36 1 14.3248 5.35086 8.97748
609 3 14.3618 7.14174 10.7685
3119 2 14.2625 3.66902 10.8704
3611 2 12.4955 5.30702 10.9206
1120 2 17.9197 3.65052 10.6478
1615 3 17.7433 7.16855 10.9161
1593 2 17.8354 5.37369 8.94972
2093 3 16.1777 7.14534 9.16609
2595 1 16.057 3.60134 9.05367
3612 1 16.0325 5.26502 10.7422
48 3 1.9324 9.0111 10.6014
2095 1 0.0223306 9.07257 8.93367
2596 3 1.84343 10.7709 8.91482
3120 2 0.0382224 10.7532 10.7287
37 1 3.76564 8.89352 9.02929
49 1 5.45683 9.24099 10.9088
612 3 7.21203 10.8879 10.7717
1105 3 5.71001 10.9316 8.91551
2096 1 7.26523 9.07993 8.9184
3121 3 3.85401 10.831 10.66
613 3 8.83116 8.94987 10.7257
598 1 10.7968 9.01776 9.11846
3613 1 10.8016 10.9446 10.5439
3596 3 8.87378 10.7977 9.07117
50 2 14.2245 10.7569 10.6909
614 3 12.5365 8.98229 10.9567
2598 2 12.7108 10.8309 8.89098
2597 1 14.1315 8.97683 8.92641
51 2 17.8395 10.8972 10.733
600 1 17.8883 9.0792 8.91803
1122 1 16.0055 8.96878 10.7816
1109 3 16.114 10.8233 8.99649
616 2 0.441529 14.4181 10.7155
601 1 0.0300392 12.5518 8.94807
1123 3 1.91279 12.3674 10.5802
3094 2 1.922 14.4164 8.86941
1124 1 5.4179 12.6578 10.7611
1111 3 5.40166 14.2468 9.00552
1619 1 7.16347 14.5163 10.6825
1618 1 3.55138 14.3247 10.6116
1601 1 7.29426 12.6765 9.06592
3095 2 3.61123 12.5767 8.77621
617 3 10.5787 14.1399 10.7784
1125 1 8.78705 12.5677 10.8917
3096 3 8.95578 14.2998 8.97506
3598 2 10.6581 12.6299 8.98129
1126 3 14.3939 14.3189 10.7017
1113 1 12.4027 14.4554 9.10749
1620 2 12.4757 12.6432 10.6485
1602 1 14.2625 12.4811 8.94616
1621 3 16.0795 12.561 10.8306
3126 1 17.9436 14.3529 10.6088
3102 1 16.2905 14.3169 8.85826
3101 1 17.9305 12.5294 8.85754
1623 2 0.0797691 17.7939 10.7645
2119 2 1.82547 16.1659 10.9163
2606 2 1.91925 17.736 9.18037
3600 2 0.0879939 16.186 8.80297
40 3 7.20716 16.2439 8.89447
619 1 3.77855 17.9471 10.8497
1127 1 7.36671 17.9418 10.9763
2120 1 5.44235 16.0606 10.7209
2106 3 3.7262 16.0949 9.1106
2105 1 5.39414 17.8644 8.92875
1624 2 10.7974 18.0857 10.7285
2108 3 10.7042 16.208 9.11708
2625 2 8.95108 16.2227 10.8043
3108 3 9.04159 18.0762 8.9825
603 3 14.5686 16.0375 9.06599
1115 1 12.5225 17.8843 9.16924
2626 1 12.5417 16.1131 10.6173
3620 1 14.3937 18.0726 10.8178
2628 1 16.0602 16.0576 10.7572
2611 2 17.9137 16.0245 9.06138
3127 1 17.7408 18.0726 10.6703
3111 1 16.137 17.9452 8.99191
42 2 0.227565 1.79841 12.5651
2121 2 0.15525 0.0857701 14.356
2629 2 1.84134 1.78768 14.1997
3113 2 1.837 0.0194868 12.5836
43 2 3.49855 1.81235 12.5427
605 3 7.32268 1.78418 12.5593
1625 1 7.25069 0.168528 14.3644
2123 2 3.87638 -0.0694086 14.3774
3128 3 5.38525 1.87196 14.2002
3605 1 5.41662 0.120041 12.473
606 1 10.5956 1.76225 12.5047
1627 2 10.7612 0.0338932 14.396
3129 1 8.99945 1.83437 14.497
3606 1 9.02065 0.0815643 12.6394
1117 3 14.2199 1.88268 12.4949
2632 2 14.3681 0.0043675 14.5511
3131 1 12.6017 1.66765 14.1607
3114 3 12.5029 -0.0329807 12.5245
44 2 16.2201 -0.0157521 12.6484
501 3 18.086 -0.00984972 14.3873
2614 3 17.9261 1.88596 12.4605
3132 2 16.1306 1.79527 14.2097
607 3 1.92107 3.66153 12.5586
1119 2 1.75315 7.22236 12.6593
1118 2 0.0916747 5.5955 12.4593
2634 3 0.135736 7.24475 14.1829
2633 3 0.160513 3.63445 14.2335
3624 1 1.82353 5.61472 14.269
60 1 7.31671 7.35492 14.4103
608 3 5.29633 3.69178 12.5385
1612 3 7.15449 5.60457 12.5416
1611 2 5.47109 7.56836 12.4988
1610 2 3.64174 5.4741 12.584
2128 3 7.07512 3.67633 14.4713
2126 3 3.62688 3.69163 14.3413
3136 1 3.54217 7.32791 14.1674
3626 2 5.45754 5.52324 14.4276
1613 2 10.6282 5.25914 12.6186
2114 3 8.95535 7.02438 12.7702
3137 3 10.7989 3.46271 14.2558
3629 1 9.08464 5.29824 14.5581
3628 1 10.724 7.08936 14.2324
3610 1 8.89306 3.65649 12.5026
610 2 12.5101 3.60574 12.52
1614 1 14.3698 5.23908 12.4506
2617 1 12.5356 7.15934 12.4909
3138 1 14.3776 3.6599 14.1161
3631 3 14.0312 7.30128 14.1821
3630 3 12.7062 5.32019 14.1603
47 3 17.8614 5.25858 12.4739
65 3 16.1459 5.40615 14.2501
1138 1 17.8137 3.59524 14.2721
1121 2 16.0385 3.63915 12.3189
2618 3 16.0099 7.30022 12.4156
3140 3 17.7936 7.14388 14.1099
67 3 1.92121 9.04473 14.4207
611 3 1.92984 10.8526 12.4457
2115 1 0.201378 9.05997 12.4182
2636 2 0.132142 10.8053 14.2851
69 3 7.25983 10.9488 14.2946
70 3 5.51473 9.09856 14.3519
1616 2 5.55154 10.9616 12.5224
2116 2 3.62573 9.11553 12.5225
2619 1 7.12851 9.08049 12.6008
3633 3 3.67757 10.9044 14.1167
71 3 9.08834 8.96289 14.2648
2117 1 9.1369 10.7903 12.3281
2620 1 10.6368 9.00972 12.4707
3141 3 10.7245 10.8603 14.2016
510 3 12.4963 8.93435 14.1882
1617 1 12.5379 10.7762 12.4561
3122 3 14.4231 8.99358 12.5115
3635 2 14.0689 10.7015 14.1161
511 1 16.0033 9.04237 14.3557
615 1 17.7334 8.90975 12.5193
1639 3 17.9119 10.8583 14.2104
2118 3 16.0739 10.7904 12.454
513 3 0.0301005 14.3295 14.3964
514 2 1.92712 12.5364 14.39
2621 3 0.0535406 12.4479 12.4961
3123 3 2.13006 14.2357 12.522
72 3 7.10925 14.4014 14.4043
515 2 5.41401 12.6222 14.4068
516 1 3.77193 14.6298 14.4259
3125 1 6.9994 12.6023 12.6024
3124 1 3.92622 12.7456 12.6298
3614 2 5.38475 14.5018 12.5476
73 2 10.6958 14.512 14.2667
1145 1 8.96765 12.6802 14.2282
3616 2 10.7504 12.5815 12.5365
3615 3 8.79129 14.6025 12.4843
1147 3 12.5011 12.5203 14.2949
1146 2 14.2767 14.3503 14.2895
2622 1 12.6536 14.4503 12.5202
3617 2 14.1689 12.6432 12.5821
1149 3 16.1053 12.8147 14.2245
1622 1 17.8212 12.5769 12.5533
3146 2 17.9549 14.2631 14.2726
3618 2 16.1233 14.3682 12.4045
52 2 0.299241 16.1036 12.5802
518 1 -0.049835 17.6907 14.3679
1150 2 1.98336 16.2364 14.3818
2623 3 1.92943 17.8746 12.567
53 1 3.70893 16.1615 12.4035
618 1 7.04911 16.4403 12.6243
1151 2 3.74227 17.8789 14.4079
1642 2 5.51645 16.3441 14.3272
2142 3 7.13469 18.1057 14.3558
2624 2 5.3842 17.9829 12.4626
54 2 10.7028 16.1368 12.3704
1643 2 8.88876 16.3794 14.1898
2649 2 10.765 17.9001 14.3083
3619 3 9.02322 17.9446 12.471
55 3 12.6132 17.9958 12.4527
620 1 14.5963 16.1582 12.3381
1646 3 12.5047 16.1748 14.2379
1644 1 14.4812 17.8079 14.2468
56 1 16.1611 17.9135 12.5053
1647 3 16.0621 15.9437 14.3286
2627 3 17.8131 16.0353 12.3906
3644 1 17.8249 17.7588 14.3726
57 1 1.9171 0.00417805 16.1011
621 3 0.252474 2.0155 16.0395
1128 1 -0.0353306 0.0809748 17.7736
2122 1 1.85577 1.98542 17.8407
58 1 5.42526 0.119648 16.1732
1132 3 7.19135 0.0533092 17.9483
1131 3 7.13413 1.90585 16.116
1130 3 3.56441 0.0737437 17.8741
1129 1 3.67846 1.89103 15.9579
2630 3 5.46064 1.94482 17.9586
1133 3 10.7894 1.77322 16.0542
1626 2 10.7116 0.117325 17.8191
2631 2 8.94458 1.71201 17.685
3621 1 8.94757 -0.0575701 16.1048
59 2 12.453 0.0347136 16.0499
1134 3 14.2767 1.79598 16.0087
2124 2 14.4647 0.133592 17.9396
3130 2 12.4918 1.83411 17.8597
502 1 16.1598 -0.00667967 15.9638
3133 2 16.0604 1.94934 17.7808
3623 1 17.8828 0.0571908 17.8386
3622 2 17.9796 1.81407 16.1182
503 2 2.00996 3.64292 16.0178
504 2 1.89062 7.28101 15.9837
1628 2 0.257871 5.37656 16.2191
2125 2 0.0603709 3.72838 17.8912
3134 2 -0.0934368 7.26656 17.7737
3625 3 1.9231 5.52004 17.8211
61 1 5.22703 3.49856 16.0757
505 1 3.54733 7.25831 17.9301
1135 1 7.27311 7.19458 17.8718
1631 1 5.5998 7.1315 16.035
1630 3 3.75884 5.58519 16.1133
1629 3 7.17416 5.4373 16.0302
2127 2 3.83211 3.83109 18.1497
3135 3 7.36009 3.7628 17.74
3627 2 5.65401 5.43899 18.0745
62 2 9.14673 5.49308 17.7152
63 3 10.8225 7.31393 17.9244
506 1 9.17754 3.56042 16.2689
1632 3 10.9497 5.45162 16.083
2129 1 9.10639 7.16284 15.877
2635 3 10.9382 3.61494 17.8113
64 3 12.6438 5.6226 17.8377
1137 1 14.4218 7.20895 17.7569
1136 2 12.6798 3.5004 15.9189
2131 1 14.3014 5.42363 16.0433
2130 2 12.5882 7.17573 16.0973
3139 3 14.2302 3.6721 17.7353
66 1 17.8563 5.46002 16.2382
507 1 16.1043 5.41878 18.0496
1140 2 17.8892 3.49782 17.7566
1139 3 16.2275 3.63257 16.0267
1634 2 17.8112 7.22268 17.8788
1633 2 16.0816 7.19906 16.0211
508 3 1.93244 8.872 17.9246
1141 2 1.85181 10.7919 16.0614
2132 1 0.176625 9.08183 15.9606
3632 2 0.162494 10.7767 17.8734
68 2 3.52589 10.8048 17.8453
509 1 7.14151 10.7769 17.867
1142 2 5.34012 9.04721 17.9102
1635 3 5.3972 10.782 16.1456
2134 1 7.15818 8.99681 16.0108
2133 3 3.6661 9.00104 16.1547
1143 2 8.93636 9.19398 17.6714
1636 1 8.93199 10.8421 15.9915
2637 1 10.8499 8.98106 16.0838
3634 3 10.806 10.8391 17.8864
1144 1 12.4866 10.9041 16.106
1638 1 12.4827 9.11927 17.8189
1637 2 14.2858 10.7983 17.7548
2638 2 14.235 8.94107 16.1653
512 3 17.8562 8.86969 15.8925
1640 2 16.0905 9.0709 17.7302
2135 2 16.0709 10.801 15.8573
2639 1 17.8114 10.7619 17.7612
2137 2 0.167823 14.2593 18.0397
2136 3 1.90508 12.6022 17.7861
2641 2 1.92712 14.3207 15.932
2640 2 0.0373177 12.491 16.1064
2140 3 7.37791 14.335 17.9057
2139 2 3.64066 14.273 17.7974
2138 2 5.57925 12.5874 17.9854
2643 1 5.67651 14.2434 16.1966
2642 2 3.80593 12.5519 16.1897
3142 2 7.27833 12.6013 15.9876
2141 1 9.00716 14.2893 16.0136
2645 3 8.86708 12.4139 17.7674
2644 3 10.8164 14.3522 17.8459
3143 1 10.6671 12.6179 15.904
2647 1 12.3738 14.3053 16.0567
2646 1 12.6272 12.5837 17.8214
3145 2 14.331 14.3184 17.8327
3144 1 14.2723 12.3838 15.9633
517 3 17.8766 14.3623 17.9464
1148 2 17.9092 12.5117 16.014
3148 3 16.0821 14.2495 16.084
3147 1 16.107 12.4046 17.8523
2648 1 1.89466 17.7547 16.2324
3150 2 1.86629 16.0206 17.7804
3149 1 0.124293 16.1368 16.1016
3636 1 -0.0130773 17.8919 17.9095
1641 2 3.93334 17.7544 17.9492
2143 3 7.12658 17.8034 17.7526
3640 2 5.37064 17.8951 16.1021
3639 1 7.30649 16.158 16.0351
3638 1 5.51322 16.0295 17.9346
3637 2 3.7111 16.1542 16.1272
74 2 8.98468 17.993 16.2276
519 3 10.8203 18.0457 17.8751
3642 3 9.14699 16.1819 17.7725
3641 1 10.6541 16.336 16.0651
75 2 12.6628 16.0973 17.798
76 3 12.4826 17.7922 16.0344
1645 1 14.337 17.8345 17.73
3643 2 14.321 16.019 16.1807
77 2 16.099 16.049 17.9219
2144 3 17.7714 16.1869 16.0581
2650 2 17.6923 17.8275 17.8572
3645 1 16.0212 17.7968 16.1662
520 2 0.136009 0.162525 21.3357
78 2 0.221815 1.82586 19.6776
2145 1 2.07685 1.91349 21.5074
3151 1 1.88045 0.141228 19.6182
521 3 3.69846 0.127036 21.4082
80 1 3.82295 2.03191 19.6952
79 2 7.26095 2.05319 19.4702
2147 1 5.55067 2.03341 21.5031
2146 1 7.28754 0.107053 21.1827
2651 3 5.4766 0.331752 19.5429
81 3 10.8036 1.76312 19.7223
1648 3 10.6727 -0.05488 21.4335
2652 2 9.01617 1.79073 21.3405
3152 2 8.95813 0.210103 19.5719
522 2 14.4062 1.83896 19.5629
1649 3 14.3406 0.143783 21.4125
2653 1 12.427 1.82848 21.4841
3646 2 12.4072 0.0695526 19.727
82 2 18.0093 0.107121 21.3175
2654 3 17.808 1.81598 19.5723
3153 2 16.3237 1.82772 21.6244
3647 1 16.0406 0.0274611 19.7389
523 2 -0.132516 5.36073 19.5967
84 2 1.85586 7.07326 19.5647
83 3 0.0854836 7.41561 21.3069
1650 1 0.0773775 3.47632 21.4305
3155 3 1.83434 5.57402 21.2194
3154 3 1.77493 3.6896 19.7261
524 2 3.75939 5.46232 19.7413
525 2 7.48523 5.27073 19.654
526 3 3.72084 7.33453 21.4572
1153 3 7.37779 7.38228 21.2826
1152 1 5.41258 7.22642 19.5703
2655 1 3.48604 3.68851 21.3011
3156 2 7.46298 3.61712 21.4111
3649 3 5.49933 3.80599 19.9416
3648 1 5.36775 5.58659 21.5477
86 2 10.8451 7.21152 21.2561
85 1 9.14203 3.54988 19.485
1155 1 10.6983 5.5252 19.5371
1154 2 8.97027 7.31375 19.4331
2656 1 10.8476 3.68094 21.4174
3650 3 9.04442 5.61462 21.3042
527 1 12.6303 7.28106 19.6376
88 2 12.6425 5.58281 21.4221
87 2 12.7005 3.69992 19.6766
1156 2 14.4094 5.56632 19.5389
2148 1 14.3868 7.12966 21.4707
2657 2 14.4082 3.36646 21.4269
528 2 17.9509 3.62704 21.3188
89 1 15.9524 5.35783 21.3698
1157 2 16.1262 7.18936 19.6042
3158 3 18.0172 5.35274 19.5707
3157 3 17.8019 7.30059 21.1751
3651 2 15.9954 3.68787 19.5667
529 3 1.90798 9.03735 21.3133
530 3 1.78702 10.766 19.6121
1158 2 0.0427964 8.95296 19.4751
3652 3 0.122629 10.7996 21.4003
531 1 5.56792 8.91109 21.4384
532 1 5.43806 10.884 19.82
533 3 7.32241 10.8528 21.4661
1159 1 3.70056 9.10823 19.632
1651 3 7.23492 9.08049 19.5671
3653 3 3.40536 10.9015 21.4528
90 3 9.01795 10.6693 19.5485
1161 3 9.04619 9.08857 21.3419
1160 3 10.887 10.9551 21.2804
1652 1 10.6978 8.98161 19.6074
534 2 12.4849 10.6989 19.6324
1162 1 12.4328 9.00057 21.5535
1654 3 14.389 10.6068 21.4904
1653 3 14.5453 9.07812 19.5624
1656 3 16.029 10.7694 19.5872
1655 2 16.0904 9.00276 21.6541
3159 1 17.9693 10.7751 21.3586
3654 3 17.8512 8.99921 19.5581
1660 1 0.010764 14.2143 21.4336
1659 2 1.9358 14.1988 19.6988
1658 1 1.81454 12.682 21.3478
1657 2 -0.0475868 12.6463 19.6579
1163 1 5.51855 14.4887 19.695
1661 3 3.78817 14.3335 21.469
2151 3 7.43258 12.4459 19.7166
2150 3 5.25728 12.6232 21.5374
2149 1 3.72293 12.6221 19.5541
3160 1 7.1718 14.3792 21.4535
1662 1 9.0434 14.2168 19.6531
2153 3 9.04234 12.4944 21.5444
2152 1 10.857 12.5882 19.5456
2658 3 10.6907 14.2309 21.3148
2155 3 14.2769 12.596 19.5172
2154 2 12.5239 14.3176 19.6859
2660 2 14.4307 14.187 21.2703
2659 2 12.8229 12.4541 21.5756
535 1 17.952 12.3751 19.5765
1164 1 17.9589 13.9277 21.2891
2156 1 16.0864 14.3779 19.62
2661 1 16.0871 12.4294 21.3017
1165 1 0.0414215 17.8097 21.4278
2157 1 1.89392 17.6827 19.6255
2662 3 0.0914754 16.1748 19.5871
3161 2 1.88995 15.9328 21.3377
1664 2 7.22687 17.7952 21.3547
1663 2 3.58119 17.9357 21.4309
2664 1 3.54775 16.0404 19.795
2663 3 7.37052 16.1985 19.6859
3163 2 5.46699 16.1289 21.4785
3162 1 5.40595 17.9098 19.8733
536 2 10.8253 17.9317 21.4277
2665 1 10.8371 15.9956 19.5702
3164 1 9.11507 17.7417 19.5887
3655 2 8.98403 15.8812 21.3787
2666 1 12.5244 17.8239 19.532
3166 2 14.2373 16.176 19.6693
3165 3 14.3897 17.8646 21.3466
3656 3 12.6145 16.0881 21.3628
92 1 16.1886 15.9524 21.0872
91 1 17.9225 17.6438 21.4875
1166 2 17.9568 16.0488 19.5522
3167 2 16.0268 17.7264 19.6577
93 2 1.74398 1.82501 25.0964
1665 2 1.8054 0.171521 23.2187
2667 2 0.00435656 0.19293 24.9632
3168 1 0.0337973 2.06884 23.2079
2158 1 5.49753 0.135261 23.3107
2670 3 3.54355 0.0814445 25.1493
3170 3 7.17872 1.83075 23.3699
3169 2 3.57633 2.06217 23.2855
3659 2 7.22605 0.140369 25.0314
3658 1 5.26563 1.88245 24.8498
537 3 9.04679 1.82179 24.9287
2671 1 9.09244 0.204735 23.2898
3171 1 10.8689 0.0512279 24.9212
3660 1 10.8227 1.90574 23.2652
2673 1 12.5713 -0.0796443 23.3288
3663 1 14.3944 1.80585 23.3101
3662 3 14.4189 0.134367 25.1029
3661 3 12.4612 1.9701 25.0047
539 3 16.1449 1.90342 25.0152
1167 1 17.8987 0.167294 24.8708
1668 2 18.1 1.99392 23.1892
2160 3 16.319 0.0822304 23.1539
99 3 1.88698 5.37832 24.9799
98 2 1.80307 7.26809 22.9904
97 1 -0.235942 7.30489 25.1063
96 1 0.207095 5.57122 23.1503
3173 3 1.90911 3.71281 23.2089
3172 2 0.017301 3.69546 24.7697
540 1 3.71402 7.2639 24.9355
541 1 5.53164 7.1342 23.2806
542 2 7.29718 5.48575 23.1608
543 1 5.48793 5.38387 24.7909
101 2 7.09285 7.29269 25.0316
100 2 3.52162 5.52829 23.2977
2675 1 7.32128 3.46919 24.8255
3175 2 3.67806 3.57642 25.0873
3665 3 5.3874 3.80894 23.1442
546 2 9.10215 7.0653 23.0366
547 1 8.97745 5.49798 24.7911
102 2 10.7746 5.29585 23.2164
1170 3 10.7184 7.03713 24.9622
3177 2 10.6985 3.67628 24.8006
3666 2 8.97741 3.56731 23.0528
548 2 14.3838 5.40639 23.142
549 3 12.5757 5.36657 25.024
105 3 14.4896 3.71051 24.8896
1670 1 12.4464 7.20412 23.1319
3179 3 12.5528 3.64112 23.1694
3667 1 14.3113 7.14341 24.8472
1172 2 16.077 5.41747 25.0549
1672 1 17.9175 3.69616 24.9215
1671 2 16.0805 7.12863 23.1872
2678 2 18.0814 7.0862 24.9502
2677 3 17.9892 5.51136 23.2276
3668 3 16.1406 3.72643 23.2624
550 2 0.035559 9.05867 23.1654
106 2 1.75768 10.8179 23.2541
1175 1 1.76138 8.89833 24.8812
3669 1 0.0948955 10.696 24.8952
108 1 5.54522 10.7738 23.0886
1180 1 7.30477 10.5982 24.8313
1178 3 7.32679 8.95609 23.2612
1177 2 3.58043 9.03835 23.2105
1176 3 5.4005 9.08589 24.9335
3670 1 3.55698 10.7509 24.9151
551 1 10.8542 10.6508 24.8797
552 1 8.98504 10.8809 23.3375
1181 3 9.11303 8.80988 24.9813
1674 3 10.6571 8.90791 23.1917
1182 2 12.5311 10.6032 23.3737
1676 3 12.5975 8.88422 24.9977
1675 2 14.2044 8.93664 23.2077
2163 1 14.2528 10.6102 24.8997
1183 1 16.1743 8.83847 24.9231
1677 2 16.1814 10.7179 23.3393
2165 2 17.9921 10.7428 25.0158
3671 3 17.9626 8.92878 23.1878
555 2 0.0757306 14.3706 25.1473
1184 1 1.84107 14.3 23.2561
1678 2 1.74455 12.4931 24.9502
2166 3 0.112493 12.5443 23.2607
113 2 7.27771 14.2389 25.0983
1185 2 5.36976 12.5504 25.0187
2170 2 5.34926 14.1948 23.302
2169 2 3.62348 12.6092 23.2758
2168 3 3.69215 14.4844 24.8983
2167 3 7.24189 12.6307 23.2037
1680 1 10.6643 14.553 24.9409
2171 1 10.8931 12.5744 23.0821
2682 3 8.86872 14.3475 23.1338
2681 1 9.09217 12.6004 25.0338
114 1 14.1712 14.3701 24.9676
1681 3 12.3362 12.5685 24.945
2684 3 14.401 12.5393 23.2882
2683 3 12.4971 14.3242 23.024
557 3 17.7913 12.5341 23.1341
2173 1 16.0676 14.329 23.1013
2685 1 16.1374 12.2995 25.0107
3183 3 17.8773 14.3356 24.8432
1684 1 1.75483 16.1067 24.981
1683 2 1.82357 17.9172 23.1243
2688 2 0.0787041 16.1129 23.336
2687 2 0.109126 17.8712 25.102
2175 1 7.17687 17.7443 25.03
2174 2 5.44543 17.8557 23.2226
2689 1 3.65808 17.8139 24.9148
3187 3 5.41344 16.083 24.9516
3186 3 7.06941 15.9814 23.2305
3185 1 3.69724 16.2525 23.187
1687 2 9.00507 17.8108 23.2663
1686 2 8.98551 15.967 24.8172
2177 3 10.6864 17.8815 24.8581
3675 3 10.7334 16.1109 23.1763
2178 1 14.3317 17.8427 24.7414
2690 1 12.5165 17.6968 23.3334
3188 2 12.6355 15.9635 24.9837
3676 1 14.3798 16.0234 23.068
1187 3 17.8505 15.9626 23.1577
1186 2 17.752 17.8926 25.1287
1689 3 16.1808 16.148 25.0125
3189 1 16.1214 17.7141 23.1209
1188 3 0.00664212 0.186114 28.4356
2180 3 1.83567 1.93609 28.5651
2668 2 1.83342 -0.0147551 26.7747
3657 2 0.241707 1.96574 26.8558
559 2 7.25083 0.251785 28.4784
94 2 7.14095 2.14094 26.8697
1189 3 3.51124 0.175 28.5246
1666 1 5.50888 0.132643 26.7257
2181 1 5.3794 1.87287 28.4683
2669 2 3.56883 1.84283 26.7515
560 2 10.5906 -0.0570449 28.7223
95 3 9.07565 0.120584 26.759
2182 2 9.02413 1.83871 28.3847
2672 3 10.9299 1.82731 26.7292
538 1 14.3399 1.89965 26.7819
1667 2 12.6498 0.0611321 26.7638
2184 3 12.4543 1.71941 28.7288
2183 2 14.2714 0.228226 28.5971
2159 1 17.9058 1.8703 26.8058
3193 3 16.1946 1.6134 28.5509
3679 2 17.8295 -0.0955767 28.6127
3664 1 16.204 -0.0501948 26.7591
1168 1 1.96825 3.81783 26.7146
1669 2 1.84671 7.26592 26.5596
2186 1 0.138498 7.15618 28.5253
2185 1 0.161674 3.75581 28.4843
2674 3 -0.061349 5.58266 26.6362
3194 2 1.81901 5.51124 28.5299
544 2 3.59187 5.42767 26.7618
563 2 7.14575 7.12092 28.3152
1691 1 7.23361 3.6096 28.5963
1690 3 3.40171 3.76077 28.4208
2676 1 7.22606 5.06159 26.5201
3196 1 3.49192 7.29798 28.3284
3195 2 5.4804 5.47276 28.3754
3176 1 5.42375 3.62994 26.9207
3174 1 5.5135 7.09477 26.561
545 2 10.7463 5.28283 26.751
1171 2 9.07731 3.64644 26.7816
1169 1 8.86704 7.03969 26.7006
2694 3 10.8559 3.55709 28.5475
3197 2 9.08838 5.34862 28.6421
3681 2 10.8244 7.07018 28.4563
104 1 12.7295 3.53635 26.885
103 3 14.447 5.42906 26.8221
2695 1 14.4604 3.38837 28.5184
3178 3 12.6306 7.15123 26.7666
3684 2 14.5599 7.22282 28.5996
3683 1 12.7238 5.49459 28.6156
622 1 17.8878 3.67849 28.6527
1004 1 17.7422 7.25343 28.4917
1174 2 16.0842 7.24383 26.7936
1173 2 17.9107 5.41509 26.8181
3180 2 16.0673 3.5053 26.7102
3685 1 16.0384 5.26465 28.4802
1673 3 0.098558 8.93451 26.8128
2161 1 1.90309 10.7633 26.6478
2696 3 0.279523 10.7374 28.3957