ITEM: TIMESTEP
5000
ITEM: NUMBER OF ATOMS
4000
ITEM: BOX BOUNDS pp pp pp
-1.5460760458381628e-02 3.5749520760458211e+01
-1.5460760458381628e-02 3.5749520760458211e+01
-1.5460760458381628e-02 3.5749520760458211e+01
ITEM: ATOMS id type x y z
563 2 0.127913 -0.243953 -0.102276
1064 1 1.61036 1.67147 -0.0714573
1563 1 2.01548 -0.0530054 1.56435
2064 1 -0.0930519 1.72253 1.74995
1 1 3.50616 1.7312 1.98278
565 3 7.05452 -0.150544 -0.11095
2065 1 7.05044 1.71214 1.75302
2565 2 3.49974 0.220463 -0.192446
3064 3 5.30831 1.72512 -0.215135
3564 1 5.26035 0.240787 1.44106
2 1 10.6409 1.69368 1.94454
1066 3 8.7238 1.86721 0.0950605
1564 3 8.93965 -0.0222264 1.87186
2566 3 10.9746 -0.105302 -0.230117
567 2 14.4869 0.00105931 0.0878343
2066 1 14.3844 1.71137 1.82389
3066 2 12.667 1.56952 0.0318507
3565 1 12.6602 0.0924767 1.8222
751 3 17.9536 0.123791 0.0119395
1068 2 16.1369 1.77471 0.440153
1565 3 16.2527 -0.2337 1.79983
2001 3 17.9656 1.66379 2.01948
3 1 0.127782 5.46422 1.65892
573 2 0.0603476 7.29654 0.111408
1568 2 1.94708 7.05643 1.88686
2569 3 -0.0747394 3.54784 -0.116188
3068 2 1.80022 5.31353 -0.181813
3566 3 1.73815 3.55577 1.88519
4 2 7.10321 5.07598 1.79956
569 2 3.43608 3.23196 0.0864482
577 2 6.88183 7.13783 0.10368
1070 2 5.04263 5.25112 0.139734
1566 1 5.30933 3.48828 1.90916
2067 2 3.26951 5.27027 1.80195
2576 1 3.6963 7.17369 0.163443
2571 1 6.89985 3.51416 -0.0754262
3570 1 5.33913 6.99122 1.76799
570 2 10.8919 3.60277 0.212836
1570 2 8.82555 7.53437 1.7566
2068 3 10.945 5.20825 1.84894
2578 2 10.6678 6.98554 0.00929973
3070 1 9.0345 5.18057 -0.158067
3567 3 8.98745 3.66003 1.70494
5 2 14.4072 5.22512 1.74186
581 3 14.4614 6.9947 -0.000567402
1072 3 12.6895 5.39932 0.0379365
1567 2 12.6699 3.54058 1.81603
2573 1 14.5784 3.58526 0.0404142
3572 3 12.3241 7.04979 1.55746
253 2 17.8312 5.32807 1.79057
761 2 17.9181 7.39285 0.0240255
1572 3 16.234 7.36291 2.03061
2819 2 17.9769 3.22476 0.0660766
3072 2 16.2752 5.56846 -0.0541678
3568 1 15.9288 3.65969 1.86849
1074 1 2.11234 8.8308 0.0688986
2069 1 0.187541 8.92765 1.75986
2574 1 0.0513265 10.8173 0.291807
3569 2 2.04973 10.6768 1.72199
6 1 3.80749 8.90186 1.89906
575 3 3.70612 10.8629 0.0985381
1569 2 5.60835 10.9525 1.86966
2070 2 7.11325 9.11563 1.68637
2579 2 7.32965 10.6877 -0.174197
3074 2 5.38135 8.95854 0.0926712
7 1 10.939 9.0442 1.65715
578 2 10.8279 10.8745 0.0415913
1076 1 8.81433 8.88254 -0.152263
3571 2 9.02302 10.688 1.7684
1571 3 12.5024 10.9031 1.71811
2071 3 14.1958 9.29943 1.89397
2582 3 14.3174 10.6972 -0.0347029
3076 1 12.3789 8.99809 -0.0739792
1078 2 16.073 9.16492 0.181223
2006 3 17.8471 9.00323 2.20574
2825 3 17.9217 10.6835 0.299313
3573 1 16.3021 10.8957 1.97
8 3 -0.155718 12.6543 1.86438
583 2 -0.0191888 14.3985 -0.00636982
1573 3 1.85023 14.2527 1.86545
3078 1 1.85715 12.5303 0.0932726
9 1 7.29 12.5369 1.70511
585 2 7.22452 14.2718 0.190553
1080 3 5.29327 12.7111 -0.0775935
2072 3 3.65586 12.6693 1.91559
2585 3 3.32325 14.3193 -0.253439
3574 2 5.32289 14.3947 1.88142
1574 2 8.78172 14.3151 1.82396
2073 1 10.5703 12.4754 1.89257
2586 1 10.449 14.2699 0.113812
3080 2 9.0325 12.5098 -0.00104208
10 3 14.4826 12.6292 1.76233
587 1 14.344 14.0532 -0.361678
1082 1 12.4779 12.4026 -0.0641638
3575 2 12.3755 14.0595 1.86158
258 3 18.1037 12.3855 1.95877
771 2 18.2392 14.39 0.0422894
1575 2 16.2668 14.0894 1.47799
3082 3 16.2823 12.7129 -0.0900764
626 1 -0.123188 17.8679 -0.18089
1084 2 1.60906 15.9325 -0.16516
1688 3 1.61809 17.8758 1.74708
2074 2 -0.264854 16.1573 1.7769
11 1 3.47044 16.0354 1.82367
630 3 7.08323 17.9839 -0.00318444
2075 3 6.94342 16.122 1.94835
2691 3 3.44007 17.7896 -0.0200231
3084 2 5.29583 15.9093 0.00804556
3690 3 5.18803 17.8362 1.85672
12 1 10.5387 16.1742 1.84294
1086 2 9.05156 16.0734 0.0415448
1690 3 8.70583 17.9854 1.84135
2693 2 10.6722 17.7904 0.0178782
634 2 14.4546 17.7529 -0.319614
2076 1 14.4451 15.8344 1.59013
3086 3 12.4804 15.8081 0.21577
3692 3 12.6301 17.901 1.55988
876 3 17.8341 17.6812 -0.0620497
1088 3 15.9609 15.7959 -0.195277
1692 1 15.9374 17.7581 1.64256
2011 2 17.7357 16.0938 1.85065
13 3 -0.0127221 1.86369 5.16642
588 2 0.0671334 0.16001 6.98704
1089 1 1.60434 1.74589 6.98536
2564 1 0.126883 0.0328074 3.36979
3063 2 1.75774 1.69109 3.59835
3576 1 1.83442 -0.171538 5.36466
14 2 7.04008 1.73269 5.48404
564 2 3.69604 -0.0912725 3.55666
1065 2 5.52151 1.56285 3.60405
1577 1 3.57109 -0.123815 7.03752
1576 2 5.34192 0.119042 5.29613
2078 2 5.36306 1.91225 7.23468
2077 3 3.57797 1.70139 5.5354
2589 1 7.13687 0.0178247 6.99237
2567 1 7.28656 -0.0966035 3.82844
566 1 10.5929 0.0333958 3.41079
2079 1 10.7956 1.90024 5.26448
3065 2 8.70532 1.80062 3.81048
3088 2 8.79777 1.57734 7.17456
3578 1 10.7596 -0.147867 7.31962
3577 2 9.13119 0.04246 5.53192
15 3 12.6003 1.68116 7.05476
16 1 14.2085 1.88374 5.23934
589 3 14.2166 0.0536752 7.04526
1067 1 12.6064 1.86758 3.47092
1578 2 12.2359 -0.160904 5.36485
2568 2 14.4452 -0.0513945 3.78733
263 3 17.9828 1.68459 5.26487
776 2 18.2376 0.0014794 7.12124
1090 1 16.0544 1.62584 7.03396
2815 3 17.9737 -0.0719401 3.50064
3067 3 16.2219 1.64334 3.74206
3579 3 16.3286 -0.162601 5.61903
568 1 0.0636443 3.6514 3.26767
1069 2 1.73186 5.44212 3.59876
1580 3 -0.311886 3.36458 7.10859
1579 3 1.80679 3.56771 5.15874
2081 2 2.10311 5.32691 6.94475
2080 2 0.0393492 5.32025 5.33069
2591 3 -0.0492882 7.07095 7.05103
2575 2 0.0840118 6.99159 3.41086
3583 3 1.59064 7.03074 5.58298
17 3 3.50814 5.31944 5.3208
571 1 7.23848 3.6718 3.70716
592 3 7.27446 7.22093 7.08736
576 2 3.70392 7.15461 3.58119
1585 1 5.45606 7.14016 5.19247
2082 3 7.35832 5.24575 5.21821
2590 3 3.61445 3.59606 7.21324
2580 2 7.23439 7.20547 3.53766
2570 3 3.66537 3.47097 3.68217
3069 3 5.46561 5.42583 3.55403
3089 3 5.51952 5.4406 6.9734
3586 2 3.661 7.37657 6.83858
3581 2 7.06015 3.63592 7.11546
3580 1 5.42399 3.47827 5.46474
18 1 10.797 5.11043 4.91569
19 3 8.81951 5.42464 7.17434
590 2 10.8128 3.42671 6.88189
579 3 10.7346 7.12974 3.33359
1071 1 8.95464 5.43243 3.26336
1587 2 10.5051 7.14362 7.38392
1581 2 8.91894 3.37454 5.60658
2572 1 10.5896 3.38274 3.50582
3587 3 8.90527 7.06104 5.09003
572 3 14.696 3.48347 3.65005
1091 3 12.5116 5.18828 7.04593
1589 3 12.3376 6.99076 5.31286
1583 3 14.1156 3.44389 7.24845
2083 1 14.1809 5.41557 5.16964
2593 3 14.369 6.98881 7.08838
2583 1 13.9565 7.14515 3.42849
3071 3 12.6776 5.0211 3.51346
3582 2 12.5411 3.36348 5.26478
757 1 17.9341 3.60476 4.03099
1073 3 15.9975 5.31466 3.74534
1768 3 18.0074 3.30538 7.21197
1582 2 16.0954 3.58975 5.69527
2084 2 16.0538 5.25328 7.18982
2017 3 17.7847 5.58415 5.7007
2841 3 17.7132 7.22196 7.46918
2826 1 17.7414 7.10976 3.65827
3589 3 15.9189 7.12563 5.39403
20 1 -0.163779 8.98244 5.39208
574 1 0.136315 10.8154 3.46507
1584 2 1.83707 10.8286 5.42841
3073 1 1.55085 8.80847 3.77962
3090 1 2.03131 9.20554 6.75133
3584 2 -0.00878752 10.5517 7.04147
21 1 5.21254 8.80391 6.86224
22 2 7.37882 9.29089 5.38761
591 2 3.46748 10.7492 6.9916
580 2 7.35471 10.9452 3.56211
1075 2 5.66623 8.95526 3.7389
1588 3 7.00963 11.0162 6.96471
2085 2 3.69026 9.04135 4.93691
2577 2 3.57917 10.9239 3.48946
3585 1 5.44965 10.8853 5.08477
1092 1 9.05864 9.05651 7.18682
1586 1 9.11387 10.8401 5.48465
2086 2 10.7301 8.87249 5.49781
2592 2 10.6066 10.9734 7.15351
2581 3 10.6979 10.6755 3.55853
3075 1 9.11352 8.9584 3.52408
23 3 14.1415 8.65355 5.55058
582 1 14.2648 10.5562 3.86896
1077 2 12.5043 9.0518 3.46926
2087 1 12.3388 8.88661 7.28496
3590 2 14.2298 10.7342 6.9086
3588 1 12.3201 10.7918 5.44819
270 1 18.0828 8.69539 5.25382
764 3 18.0123 10.8062 3.45167
1590 3 16.0332 10.6804 5.4106
3091 2 16.0692 8.75824 7.02961
3077 3 16.0427 8.76884 3.78228
3835 3 17.8828 10.4461 6.97339
24 1 1.76345 12.413 7.39086
593 3 -0.0455477 14.2902 7.26132
1079 1 1.7635 12.4356 3.42788
2088 3 0.18499 12.5709 5.35612
2584 1 -0.0276402 14.3911 3.65361
3591 2 1.7773 14.4001 5.53511
25 2 3.41478 12.7249 5.22131
584 2 3.33484 14.3978 3.83329
1093 3 5.20146 12.6193 6.9017
1592 3 3.51764 14.3596 7.34723
1591 3 5.57517 14.358 5.39355
2089 2 6.9895 12.4707 5.23304
2594 1 7.12324 14.3653 6.98122
2587 3 7.19129 14.2279 3.4548
3079 1 5.17908 12.7127 3.52197
26 3 10.6772 12.5496 5.41994
586 1 10.5542 14.1653 3.78105
1081 2 8.78677 12.6083 3.52033
2090 1 8.92601 12.4671 7.07126
3593 1 10.826 14.426 7.34696
3592 2 8.79979 14.5158 5.29083
594 2 14.4587 14.5405 7.14985
1593 2 12.448 14.148 5.41052
2091 2 14.2806 12.4482 5.5655
2588 3 14.1003 14.3219 3.58156
3092 1 12.6097 12.6117 7.11557
3081 3 12.4697 12.5662 3.65286
27 1 16.2411 12.3436 6.97086
781 2 17.667 14.4273 7.05568
1083 3 16.0514 12.5042 3.64134
2025 1 17.8206 12.6013 5.40741
2835 2 17.8681 14.3634 3.62713
3594 2 15.962 14.3267 5.38888
28 2 0.219281 16.1131 5.2472
651 1 0.120209 18.0393 6.98289
1094 1 1.96588 16.2773 6.93613
2690 1 -0.0353884 17.5989 3.57152
3083 2 1.82713 16.1369 3.49892
3701 2 1.91652 17.9725 5.33948
29 2 7.09205 16.3575 5.39526
629 2 3.47896 18.1186 3.41687
1085 1 5.07868 16.043 3.75151
1704 1 3.53959 17.9026 7.14557
1703 1 4.95217 18.017 5.25365
2093 2 5.19071 15.8765 7.07572
2092 1 3.49791 16.1299 5.32746
2715 1 6.87727 17.9473 7.13047
2695 3 6.96547 17.8311 3.51312
632 1 10.5576 18.0772 3.48195
2094 2 10.7252 15.9881 5.28984
3093 3 8.77725 16.1816 6.98347
3085 3 8.89925 16.049 3.48944
3704 3 10.6097 17.7597 6.93621
3703 1 9.05222 17.8915 5.07137
30 3 12.5281 16.1557 6.90559
31 3 14.1864 15.9462 5.2758
653 3 14.3078 17.7307 7.15677
1087 2 12.5083 15.9046 3.37099
1706 2 12.453 17.7896 5.08299
2698 1 14.236 17.6571 3.45832
278 1 17.7348 16.1743 5.30021
901 2 17.9799 17.7776 6.96073
1095 2 16.1673 16.1664 7.29631
2878 1 17.8074 17.8162 3.48691
3087 2 15.9956 15.9504 3.74426
3707 2 15.9235 17.6157 5.45869
1594 3 1.53584 -0.145807 8.67692
2095 1 0.0130841 1.78043 9.02034
2595 2 -0.0230944 -0.0412551 10.5621
3094 3 1.61237 1.73862 10.5226
33 1 7.12057 1.55931 9.12306
595 3 3.38743 -0.117207 10.4708
1096 3 5.17494 1.6334 10.6587
2597 3 6.9452 -0.209249 10.7066
2596 3 5.18748 -0.0788031 8.77437
3095 1 3.42034 1.59346 8.92868
596 1 10.992 0.172789 10.6271
1097 3 10.4443 1.68801 8.87122
3096 2 8.72062 1.69064 10.6481
3596 3 8.95452 -0.232657 9.04978
597 1 12.6449 0.128092 9.01497
1098 1 12.8459 1.7331 10.8526
2098 2 14.3751 1.63979 8.96156
2598 2 14.5645 -0.0469488 10.8434
1597 1 16.2869 -0.159307 8.89044
2032 2 18.0096 1.61994 8.981
2845 2 17.6829 -0.0953009 10.657
3097 1 16.2224 1.79554 10.6954
598 1 -0.0035536 3.67989 10.7089
1099 2 1.60862 5.44184 10.2603
2603 3 -0.127303 7.17725 10.5938
2599 3 1.77661 3.73501 8.72262
3098 3 0.0895284 5.61613 8.70358
3602 1 1.66698 7.46806 8.58739
36 1 3.86475 5.55418 8.67595
605 3 3.65811 6.9851 10.4882
604 3 5.53649 7.10917 9.10597
600 2 7.30127 3.5244 10.7363
1100 1 7.17952 5.3323 8.85149
2606 2 7.33081 7.01763 10.6923
2600 3 3.50929 3.64037 10.3201
3099 3 5.56825 5.15737 10.5517
3599 1 5.68661 3.6168 8.82739
606 3 10.8917 7.18823 10.8061
599 3 8.92153 3.72455 9.00283
1101 1 9.03665 5.34702 10.708
1605 1 8.84397 7.04065 8.85365
2100 1 10.9208 5.35903 8.78146
2601 3 10.9101 3.29295 10.6557
601 2 14.2481 3.48736 10.6231
1600 3 12.3796 3.28243 9.02132
2609 1 14.208 7.13704 10.7857
2608 2 12.1826 7.25804 8.91038
3101 3 14.313 5.30188 9.03604
3100 3 12.5212 5.37152 10.6697
786 3 17.9068 3.50616 10.8628
1102 2 16.088 5.20175 10.6982
2853 1 17.5468 7.18717 10.7085
2602 2 16.0563 3.41819 8.86281
3348 2 17.8405 5.26674 8.90808
3608 1 15.8827 7.06818 8.88761
39 1 -0.0373585 8.87993 8.65102
603 1 -0.0155564 10.5651 10.7677
602 2 1.82911 10.3259 8.85572
3102 3 1.70372 8.73569 10.6407
607 1 7.21564 10.6925 10.8442
1104 2 5.58008 9.07734 10.644
1103 2 3.61782 8.84432 8.71546
1603 3 5.14262 10.6372 8.63847
2104 3 7.07549 9.06269 8.88243
2604 1 3.34995 10.7051 10.8106
2607 3 10.8846 10.9852 10.5933
2605 2 8.57527 10.6398 8.94825
3104 3 9.20042 9.06551 10.8481
3103 1 10.4538 8.92273 8.81436
42 2 14.1879 8.89212 8.65585
609 2 14.1487 10.693 10.7089
1105 2 12.2213 8.98929 10.7737
3606 1 12.6797 10.8372 8.96427
289 1 17.7419 9.03203 9.09201
792 2 17.4812 10.8439 10.5825
608 3 15.8409 10.6445 8.88193
3105 2 15.8882 8.88419 10.8428
1107 3 1.64466 12.536 10.9705
1106 3 -0.152751 12.3422 8.95323
1609 1 1.53057 14.2557 8.8573
2610 1 -0.0869157 14.3367 10.6823
610 2 3.65411 14.2534 10.6306
2107 1 3.33138 12.4241 9.11063
2612 2 7.13285 14.1463 10.5626
2611 3 5.35435 14.1611 8.75893
3107 2 7.07556 12.5849 8.85478
3106 3 5.40823 12.3863 10.7347
45 3 10.7035 12.5586 8.65651
611 1 10.7388 14.227 10.7594
1108 3 8.86526 12.484 10.2335
3611 2 8.81005 14.4746 8.7454
612 1 12.4586 14.5704 8.79353
1109 3 14.3512 12.5603 8.88424
2613 1 14.1058 14.4145 10.4105
3108 2 12.67 12.6904 10.5174
1293 2 17.6583 12.4094 8.82797
1110 3 15.7089 12.5094 10.7558
1612 3 16.1216 14.197 8.91342
2860 1 17.7428 14.287 10.7556
1719 3 1.8353 17.7137 9.17644
2110 2 0.0677583 16.211 8.94842
2721 1 -0.112578 17.751 10.6895
3109 2 1.63962 15.9212 10.5773
48 3 7.09646 16.1283 8.92293
659 2 3.62038 17.7091 10.7987
1111 1 5.41606 16.0677 10.5667
2724 1 7.16424 18.0937 10.7623
2722 3 5.20282 18.0571 8.98092
3110 1 3.65615 16.064 8.95619
661 1 10.5611 18.0731 10.5434
1112 2 10.603 16.2679 8.94855
3111 3 8.90531 15.9716 10.676
3723 2 8.83308 17.9652 9.01095
663 3 12.5301 17.8475 8.68032
1113 2 12.4223 16.3232 10.6624
2113 3 14.3531 16.1592 9.0859
2727 1 14.1877 17.898 10.5173
1725 3 16.0485 17.9152 8.86535
2047 1 17.9536 16.2584 9.08235
2908 2 17.76 18.0409 10.6084
3112 2 16.1894 16.1706 10.5246
32 2 -0.0879978 1.81565 12.3494
613 3 0.14011 -0.134194 14.2646
1114 3 1.74843 1.77607 14.3094
3595 2 1.76002 0.0967176 12.3833
34 2 7.07616 1.60982 12.4983
614 3 6.91986 -0.0995192 14.3818
1595 3 5.27324 -0.0186975 12.3819
2096 2 3.4806 1.8842 12.7064
2614 2 3.42183 0.0650657 14.3123
3113 1 5.35008 1.83479 14.3809
1115 3 9.05798 1.78752 14.3034
2097 3 10.732 1.67275 12.4496
2615 2 10.4386 -0.109415 14.5331
3597 2 8.78025 -0.0662835 12.4518
35 3 14.4676 1.45578 12.5191
615 1 14.4362 -0.0746629 14.3359
1596 1 12.6316 -0.317505 12.5111
3114 3 12.4506 1.71628 14.1973
282 3 17.8814 1.65573 12.598
801 1 17.796 -0.151005 14.2509
1116 2 16.0513 1.61464 14.4897
3598 2 16.3564 -0.226478 12.6881
618 1 -0.0244814 7.08277 14.2291
1598 3 1.82313 3.56156 12.4127
2099 2 -0.0467085 5.33065 12.658
2616 1 -0.0274298 3.63062 14.1875
3115 2 2.01152 5.25617 14.4505
3603 2 1.61691 7.25233 12.7476
37 1 3.45496 5.22836 12.0008
620 3 7.166 7.10096 14.3166
616 1 3.62307 3.72414 14.1992
1117 1 5.2889 5.29418 13.9831
1604 3 5.24044 7.27615 12.4168
2101 2 7.19655 5.36242 12.4957
2620 3 3.54003 7.15543 14.301
2617 3 7.20641 3.65164 14.3731
3600 1 5.6361 3.49092 12.5277
38 1 10.7954 5.16531 12.374
617 1 10.7567 3.61795 14.2087
1599 1 8.93321 3.46908 12.4531
2621 3 10.7753 6.92845 14.2056
3116 3 9.00132 5.25893 14.2022
3605 3 9.13876 7.14745 12.4905
622 2 14.1275 7.21702 14.205
1118 3 12.3177 5.21707 14.3391
1607 2 12.6446 7.06854 12.4239
2102 2 14.3703 5.32061 12.3196
2618 1 13.9344 3.35377 14.4514
3601 2 12.809 3.58841 12.6872
806 1 17.6669 7.13946 14.1173
1601 3 15.9298 3.52039 12.5425
2036 3 17.7792 5.1528 12.587
2866 1 17.8863 3.49272 14.191
3117 2 16.0594 5.13871 14.225
3609 2 16.0489 7.12462 12.4558
40 1 -0.165861 8.88581 12.2612
1119 2 1.62576 9.05012 14.3155
1602 3 1.70245 10.8201 12.471
2619 1 0.220437 10.767 14.3964
41 3 7.36571 8.92362 12.7073
619 1 3.72881 10.3846 14.1981
2103 3 3.54718 9.08522 12.4548
2622 2 7.22252 10.6026 14.3885
3118 1 5.21463 8.88163 14.44
3604 3 5.2811 10.7286 12.505
621 3 10.664 10.7685 14.3146
1120 2 9.09452 8.96175 14.3169
1606 2 9.012 10.9033 12.3081
2105 1 10.7104 8.88892 12.4976
43 2 13.9353 8.82313 12.5455
2623 2 13.9554 10.849 14.2922
3119 2 12.3209 8.83719 14.3045
3607 2 12.4838 10.4825 12.6107
290 2 17.6375 9.1037 12.7509
1121 1 15.8452 8.90311 14.1696
1608 1 15.8303 10.5125 12.4599
2870 1 17.7939 10.7506 14.4629
623 3 0.0291863 14.424 14.2462
2106 2 -0.0810043 12.3587 12.6102
3120 3 1.91353 12.4221 14.1128
3610 1 1.59423 14.3686 12.4831
44 3 3.59924 12.5855 12.5553
624 2 7.09716 14.3446 14.2109
1122 3 5.34129 12.5544 14.1186
1610 1 5.42447 14.1829 12.2911
2108 2 7.25427 12.38 12.7625
2624 2 3.79319 14.3874 14.3503
46 2 10.7394 12.719 12.5068
2625 2 10.7064 14.4841 14.4197
3121 1 8.67781 12.6236 14.445
3612 3 8.94146 14.2425 12.3737
625 3 14.5516 14.4575 14.3024
1123 1 12.6914 12.6356 14.2362
1611 2 12.5153 14.3025 12.4025
2109 1 13.9529 12.6409 12.4919
811 1 17.8078 14.3558 14.2453
2044 2 17.6693 12.4265 12.3393
3122 3 16.0073 12.4316 14.2832
3613 2 16.1406 14.4825 12.4066
47 3 -0.167906 16.0449 12.54
676 1 0.421286 17.8834 14.4456
1124 1 1.77224 16.0883 14.2663
3720 1 1.73178 18.0546 12.5932
49 1 6.97491 16.176 12.5086
678 2 6.93131 17.8762 14.3469
1721 2 5.27814 17.9502 12.4471
2111 3 3.6378 16.0204 12.3649
2740 1 3.47798 17.8516 14.321
3123 3 5.39095 15.847 14.3901
1125 1 8.92123 15.899 14.2007
2112 1 10.609 16.1384 12.4732
2741 3 10.7743 17.7469 14.6681
3724 2 8.79691 17.8846 12.1646
50 3 14.3834 16.2386 12.31
680 2 14.2708 17.9296 14.3002
1724 2 12.6949 18.0244 12.4641
3124 3 12.5489 16.169 14.0387
297 1 17.7627 16.5033 12.374
926 2 17.7477 17.8669 14.3808
1126 3 16.1859 16.0506 14.1531
3726 3 15.9397 17.9017 12.4298
1613 2 1.92114 -0.0569686 16.046
2114 3 -0.10545 1.66113 15.8984
2626 2 -0.101051 -0.0215085 17.9534
3125 1 1.7027 1.54377 18.0096
51 1 3.43393 1.77939 16.1179
502 3 3.72216 -0.110059 17.9946
1128 1 5.16968 1.92034 17.7037
2115 3 7.17059 2.0731 15.9337
2628 3 7.02447 0.109959 17.6403
3614 2 5.11504 -0.0478967 15.9818
52 1 10.7115 1.6936 16.0914
503 3 10.4665 -0.00307714 17.8628
1614 1 8.76767 0.239102 16.0299
3127 2 8.58194 1.87047 17.8423
1130 3 12.5266 1.91211 17.8659
2116 1 14.3561 1.59183 16.1459
2630 3 14.501 -0.202023 17.6274
3615 1 12.3516 -0.158458 16.0857
1615 3 16.2863 -0.20009 16.1258
2051 3 17.8029 1.5691 16.12
2501 3 17.9731 -0.183632 18.0344
3129 2 16.112 1.74055 17.9406
53 3 -0.00854321 5.38818 16.0667
506 1 -0.315831 3.49191 17.9382
1132 1 1.80916 5.29117 18.171
1618 2 1.82112 7.12986 16.2016
2636 1 -0.0415704 7.15003 17.8286
3616 3 1.75723 3.5925 16.3231
54 2 7.30903 5.55269 16.122
508 3 6.79944 3.6671 17.7412
513 3 3.57124 6.98294 17.9373
1616 1 5.17744 3.63727 15.9759
2117 2 3.55509 5.27777 16.1437
2640 3 7.22946 7.26074 17.9579
2632 1 3.50694 3.8696 18.2353
3131 2 5.45427 5.64592 17.911
3620 1 5.37084 6.94355 15.9351
515 1 10.8641 7.12166 17.9304
1134 2 9.12132 5.47413 17.9403
1620 1 9.08819 7.21413 15.786
2118 1 10.3755 5.50315 16.2165
2633 1 10.7182 3.5161 17.9592
3617 3 9.0449 3.4376 16.238
55 2 14.4066 5.15795 16.0311
510 2 14.1114 3.5736 17.9031
1617 2 12.5243 3.63613 16.0433
2644 1 14.7084 7.26462 17.8143
3133 2 12.3456 5.13511 17.9969
3622 1 12.647 6.99284 16.4314
303 3 17.9848 5.36688 15.9474
819 3 17.7742 3.53114 17.7257
1136 1 16.2081 5.10969 17.8158
1622 3 16.116 7.01471 15.8255
2511 3 17.6607 6.96549 17.8772
3618 3 16.1028 3.47333 15.8783
511 1 -0.0850349 10.5231 17.8602
2119 2 -0.0176411 8.6292 16.0864
3135 3 1.64111 9.12965 17.8792
3619 2 1.74213 10.5493 15.9632
56 1 3.43951 8.68456 16.2202
516 3 7.1108 10.6191 18.0139
1138 1 5.27888 8.77806 17.5757
1619 2 5.29516 11.0176 16.1037
2120 3 7.02668 9.11415 16.1419
2638 3 3.62211 10.4505 17.7075
57 3 10.8009 8.79844 16.0757
2641 1 10.6867 10.756 17.9362
3137 3 9.03535 8.73271 18.2148
3621 1 9.10386 10.4669 16.0924
519 1 13.9816 10.7774 17.8113
1140 2 12.5452 8.75352 17.7373
1621 2 12.267 10.691 16.1353
2121 3 14.2675 9.03083 15.9931
825 3 17.782 10.8723 17.6454
2056 1 17.7664 8.79123 16.1834
3139 2 15.9694 9.13067 17.463
3623 3 16.0015 11.0176 15.9674
58 3 -0.0103741 12.4186 16.0044
1142 3 1.6661 12.2234 18.0946
1623 3 1.83558 14.3078 15.9409
2646 2 0.207893 14.542 18.1917
59 2 7.16099 12.4565 16.0639
522 3 3.27032 14.1951 18.1025
2122 1 3.15062 12.4107 16.3122
2648 3 7.17151 14.0811 18.0218
3141 2 5.28545 12.3853 18.042
3624 1 5.36597 14.0331 16.3134
523 1 10.7444 14.3929 17.9594
1144 2 9.01902 12.6696 18.0603
1624 2 8.87991 14.1502 16.0753
2123 2 10.5855 12.5567 16.1018
60 1 14.15 12.6216 16.0285
2650 3 13.883 14.5423 17.7883
3143 2 12.2259 12.6226 17.9354
3625 3 12.261 14.1536 16.0223
308 3 17.8951 12.6827 16.0838
1146 3 15.8314 12.5092 17.9179
1625 3 16.165 14.3463 16.0819
2521 2 17.7185 14.0445 17.9884
1738 3 1.86729 17.8842 16.0853
2124 2 0.0495383 15.9891 16.0404
2751 1 -0.0459163 18.0942 17.9565
3145 1 1.87994 16.1364 18.1252
61 3 3.47215 16.0497 16.2007
691 2 3.5728 17.9805 17.8222
1148 1 5.17195 15.893 18.0818
2125 3 7.1399 16.0552 16.0712
2755 2 6.99726 17.7121 17.7473
3740 3 5.03037 17.8112 16.1664
62 3 10.5551 16.0227 16.1542
693 3 10.2761 17.8311 17.7872
1740 2 8.73341 17.7967 15.9371
3147 2 8.92985 16.0238 17.9243
1150 3 12.2947 16.36 17.8426
2126 1 14.3578 16.2379 16.0994
2759 2 14.1712 17.9469 18.2044
3742 1 12.6731 17.8307 15.9851
1742 3 15.913 17.9504 16.0673
2061 1 17.818 15.922 16.1335
2938 3 17.8854 17.7218 17.5865
3149 2 16.0642 15.91 17.9585
501 3 -0.0361564 0.100439 21.4248
63 1 -0.0980188 1.7067 19.701
1127 2 1.76798 1.72556 21.4278
3626 2 1.75763 -0.0387808 19.6164
504 2 7.16056 -0.162999 21.5273
64 1 6.92733 1.48823 19.6377
1626 1 5.18937 -0.0440555 19.8471
2127 1 3.61033 1.74889 19.8096
2627 1 3.39946 -0.0877255 21.5221
3126 2 5.13955 1.68771 21.5234
1129 1 9.10438 1.70657 21.3817
2128 3 10.7801 1.90049 19.5397
2629 2 10.91 -0.0863568 21.2889
3627 1 8.75574 -0.0895891 19.587
505 2 14.1425 -0.104582 21.3385
65 1 14.4474 1.64947 19.5191
1627 1 12.6654 0.00777219 19.4376
3128 3 12.5223 1.87611 21.3048
815 1 17.8336 -0.0335819 21.2434
313 3 17.9186 1.57805 19.5908
1131 2 16.241 1.88035 21.386
3628 3 16.2097 -0.107367 19.6106
512 1 -0.0347694 6.89166 21.6425
1628 3 1.77463 3.51484 19.7492
2129 3 -0.048602 5.22655 19.5881
2631 2 -0.194047 3.55184 21.264
3130 3 1.73164 5.4335 21.3195
3631 3 1.6345 7.18889 19.5188
507 1 3.53871 3.56105 21.567
517 2 6.80073 7.22653 21.225
66 3 3.61154 5.49872 19.7057
1133 3 5.21532 5.39031 21.6708
1632 1 5.38245 7.16793 19.7007
2130 3 6.9597 5.35391 19.518
2639 1 3.96097 7.1699 21.5151
2634 2 7.04552 3.40223 21.4495
3629 1 5.23139 3.61022 19.782
509 1 10.7026 3.37857 21.4757
67 3 10.809 5.699 19.7299
1629 3 8.68959 3.42469 19.5116
2642 2 10.6848 7.11833 21.6526
3132 1 8.75949 5.05293 21.3696
3633 2 8.56755 6.93063 19.7966
520 1 14.2858 7.07936 21.4941
1135 1 12.5426 5.06052 21.6086
1634 1 12.6277 6.74725 19.4847
2131 2 14.4581 5.13339 19.6638
2635 3 14.2684 3.53419 21.5022
3630 2 12.6273 3.42719 19.5298
826 3 17.9301 7.07194 21.5354
1630 1 16.0778 3.43622 19.6484
2316 2 18.1316 5.27849 19.7686
2507 3 17.9287 3.52867 21.5524
3134 3 16.1319 5.30679 21.5479
3635 2 16.0829 6.90081 19.5226
68 2 -0.0159768 8.9788 19.612
1137 3 2.0699 8.47572 21.3548
1631 2 1.72382 10.691 19.8494
2637 3 -0.0273924 10.6356 21.4741
514 3 3.65996 10.8524 21.6108
69 1 7.27629 8.93557 19.6304
2132 2 3.80983 8.78007 19.6296
2643 3 7.14093 10.6443 21.427
3136 1 5.28925 9.04752 21.519
3632 2 5.39239 10.5281 19.7049
518 1 10.7526 10.69 21.5792
1139 2 8.91852 8.82069 21.3384
1633 3 8.97566 10.7097 19.758
2133 3 10.942 8.81876 19.6027
70 1 14.3338 8.95679 19.4671
2645 3 14.2202 10.7985 21.2403
3138 2 12.6292 9.05489 21.2956
3634 2 12.3247 10.6544 19.6476
318 3 17.7948 8.82033 19.6121
1141 3 15.9107 9.00645 21.42
1635 1 16.0497 10.6992 19.5771
2514 2 17.7766 10.7357 21.3847
521 2 -0.0840122 14.2395 21.4201
2134 1 0.0039663 12.4838 19.9164
3140 1 1.75291 12.2272 21.6482
3636 3 1.67512 14.2469 19.9997
524 2 7.03406 14.3354 21.2961
71 1 3.66477 12.2984 19.8109
1143 3 5.40044 12.3719 21.5832
1636 3 5.30588 14.1712 19.7201
2135 1 7.14194 12.5259 19.8222
2647 3 3.44537 14.157 21.2166
72 2 10.6147 12.2522 19.5528
2649 1 10.8358 14.3776 21.565
3142 3 8.73046 12.6059 21.5455
3637 3 8.98523 14.3867 19.818
525 3 14.2453 14.3536 21.5374
1145 3 12.3136 12.5266 21.3916
1637 2 12.1248 14.5279 19.741
2136 1 14.1451 12.7396 19.6305
835 2 17.7691 14.2295 21.3818
2321 2 17.6633 12.4282 19.6006
3144 2 15.9149 12.4412 21.3649
3638 1 15.9088 14.2105 19.6557
690 2 0.0838607 18.024 21.921
73 2 -0.124674 16.294 19.9822
1147 1 1.64876 16.054 21.6437
3751 2 1.63301 17.8803 20.0778
695 3 7.30597 17.8546 21.5626
74 2 7.32728 16.1534 19.721
1502 1 5.28095 17.7851 19.9647
2137 2 3.43397 16.3034 19.6988
2754 3 3.46753 18.0356 21.6251
3146 1 5.37262 16.0087 21.2049
1149 2 9.06753 16.1867 21.7312
2138 3 10.5725 16.265 19.5872
2757 1 10.7237 18.179 21.5923
3753 3 8.83871 18.2095 19.5917
698 2 14.1944 17.9422 21.2094
75 3 14.0824 16.1112 19.6542
1504 1 12.3214 18.0053 19.5106
3148 3 12.2732 16.4218 21.4228
941 2 17.7989 17.9304 21.5362
323 2 17.766 16.1029 19.6505
1151 2 16.0993 15.9635 21.4722
3755 1 15.9242 17.6567 19.8619
1638 1 1.87836 -0.149529 23.2114
2139 3 0.0353961 1.86434 23.2568
2651 1 -0.0311797 0.0476901 24.9076
3150 2 1.81942 1.77118 25.3398
526 2 7.04324 -0.042462 25.0425
77 1 5.2522 1.63015 24.9084
76 3 3.49138 1.79822 23.0165
2140 3 7.15876 1.62308 23.1327
3640 3 3.36956 0.0306012 25.2002
3639 2 5.37275 -0.0914873 23.1585
78 3 10.7089 1.60735 23.2101
1152 3 8.92713 1.85873 25.0199
1640 3 10.4553 -0.0404679 25.0964
1639 1 9.06592 -0.366111 23.1415
2142 3 14.274 1.89669 23.2992
2141 1 12.4173 1.87189 25.154
2652 1 14.2336 0.19818 25.0341
3641 1 12.5072 -0.221719 23.2022
1641 2 15.8837 -0.120814 23.1785
2326 3 17.7569 1.65496 23.3246
2526 3 17.763 -0.199609 25.2598
3151 3 16.0258 1.6532 25.3042
528 1 0.207507 7.4574 25.184
80 2 1.52478 5.41807 24.8708
79 2 -0.0219209 5.00321 23.0435
1645 1 1.905 7.34453 23.2752
3643 3 -0.00782393 3.65788 24.9621
3642 1 1.9536 3.54003 23.3943
527 2 3.54145 3.48759 25.1998
81 3 7.07291 5.25728 23.3031
1153 2 5.37996 5.28611 25.0029
1648 2 3.39922 7.14478 25.0066
1643 2 7.24299 3.45276 25.1202
1642 1 5.49092 3.3651 23.4333
2143 3 3.42677 5.39403 23.4774
2655 3 7.48539 7.24707 25.0143
3648 2 5.35455 7.33363 23.5338
1649 1 9.01068 6.92833 22.9167
2145 2 9.09549 5.15909 24.8417
2144 3 10.7915 5.35264 23.1605
2653 3 10.6323 3.58539 25.0476
3650 1 10.4319 7.43117 24.9313
3644 1 9.00955 3.38891 23.1832
530 1 14.4182 6.91619 24.9441
82 3 14.2996 5.42452 23.1841
1644 2 12.3789 3.53918 23.2442
3152 1 12.3492 5.33962 24.8728
3652 1 12.3022 7.12362 23.3697
3646 2 14.2367 3.53736 25.2853
841 1 18.1382 7.02032 25.0413
329 1 18.0786 5.47599 23.2765
83 2 16.0658 5.11574 24.965
1651 1 16.0185 7.07504 23.2747
3893 2 17.899 3.47762 25.1079
3645 1 16.1752 3.47493 23.3354
1154 2 1.70058 8.94394 25.282
1646 3 -0.0112514 10.463 25.3177
2146 2 0.0158098 8.73505 23.225
3647 1 1.47818 10.8251 23.4198
84 1 3.54769 9.11745 23.324
1647 2 5.20092 10.7341 23.5238
2148 2 7.34754 8.72109 23.1537
2147 1 5.44301 8.89482 25.1633
2654 3 3.43015 10.9956 25.1526
3651 2 7.10368 10.7424 24.6486
529 2 10.9848 10.7543 24.9409
85 3 10.5019 8.91932 23.2487
3153 1 8.99823 9.09649 25.2761
3649 3 8.79741 10.6989 23.244
86 3 12.4944 9.13657 24.9011
1652 1 14.3112 10.665 24.9418
1650 3 12.4137 10.8182 23.0975
2149 3 14.1796 8.90851 23.2668
1155 3 16.0626 8.71112 25.1436
1835 3 18.0115 10.6481 24.9997
2333 3 17.657 8.76721 23.2392
3653 3 16.1607 10.7266 23.1016
87 3 -0.0407685 12.6454 23.3234
1653 2 1.5933 14.4765 23.1384
2150 2 1.7283 12.5642 25.2255
2656 1 0.0698487 14.2948 25.0971
531 3 7.32034 14.538 24.8964
88 2 7.19949 12.5667 23.6506
2151 3 3.39304 12.5655 23.19
3154 1 5.09171 12.8779 25.0478
3655 1 3.30036 14.309 25.1239
3654 1 5.27869 14.2555 23.1499
89 1 9.18512 12.5589 24.8957
1655 2 10.4967 14.4801 25.0884
1654 3 8.96066 14.1766 23.3184
2152 2 10.7904 12.5578 23.2597
90 2 14.3515 12.4319 23.1101
1156 1 12.8316 12.575 25.0942
2657 2 14.4454 14.492 24.9037
3656 1 12.3276 14.3268 23.3447
337 1 18.1809 12.4651 23.2616
1656 1 15.9071 14.1707 23.2672
2153 2 16.004 12.2981 24.6528
2531 3 18.1231 14.447 25.2842
1513 1 1.78002 17.82 23.3311
2154 3 -0.10662 16.0737 23.4495
2776 3 0.0186109 17.8426 25.1782
3155 2 1.83294 16.1205 25.1187
715 2 7.09322 17.91 25.1918
92 2 5.47244 16.1567 25.0628
91 3 3.60621 16.0672 23.2639
2155 1 7.19901 16.0916 22.9996
3767 2 3.6156 17.8921 25.182
3766 1 5.40486 17.635 23.0967
93 2 10.7835 16.2538 23.4166
1157 1 9.0063 16.2395 25.2007
1515 3 8.94127 18.028 23.4463
1516 2 10.8929 17.7806 25.0621
2157 1 14.1959 16.1116 23.2963
2156 1 12.3368 15.9945 25.2322
2778 3 14.4143 17.8891 24.9432
3769 1 12.6258 17.8147 23.3308
1519 2 16.0823 17.5553 23.16
2341 2 17.9365 15.9376 23.111
2963 1 17.9214 17.8668 24.8563
3156 2 16.5173 16.226 25.1795
532 1 -0.196627 -0.0464005 28.4719
94 1 -0.325972 1.87124 26.9994
1158 2 1.66982 1.90417 28.3147
3657 2 1.59998 0.00905652 26.8459
533 2 5.3265 -0.0251643 26.9779
534 2 7.07404 -0.0636312 28.813
1159 1 3.65126 1.67298 26.9462
2159 1 7.1608 1.80326 26.5599
2658 2 3.48268 -0.0322988 28.4115
3157 2 5.34842 1.71801 28.4452
1160 2 8.84805 1.69128 28.3732
1658 1 8.71206 -0.415697 26.7565
2659 2 10.992 -0.0939938 28.6637
3158 2 10.6353 1.77726 26.8051
535 3 14.4132 -0.0667169 28.5579
97 1 14.4072 1.66299 26.7963
2660 1 12.5325 0.0449442 26.9375
3159 2 12.5721 1.8569 28.7906
845 2 17.9457 0.0439711 28.3402
344 1 17.948 1.69463 26.9368
1161 1 16.0963 1.62899 28.6263
3660 2 16.0577 -0.194361 26.8073
536 1 1.90866 3.69786 26.7973
540 1 0.0448673 7.04776 28.5241
1162 2 0.0961778 5.58228 26.7281
1664 2 1.94182 7.32053 27.0301
2661 3 0.0238773 3.76162 28.5178
3160 3 1.90906 5.47101 28.4653
537 2 3.73898 3.64254 28.4526
543 2 7.38295 7.21734 28.5476
1163 1 5.59058 5.23832 28.8264
1661 1 5.43272 3.64092 26.7687
2162 1 3.47668 5.38491 26.6201
2668 3 3.73254 7.22624 28.7611
2667 2 5.58877 7.25095 26.8757
2663 1 7.17234 3.18303 28.4369
3161 1 7.17437 5.21367 26.6273
538 1 10.8274 3.42773 28.551
99 1 10.7658 5.38496 26.7001
2669 3 10.8256 7.30063 28.5337
2662 3 8.95966 3.57595 26.7776
3162 2 9.22982 5.31468 28.5359
3668 2 9.09329 7.2916 27.1111
545 3 12.397 7.15333 26.7517
546 2 14.2671 6.8906 28.5414
1165 1 14.1156 5.16016 26.7826
1164 2 12.4794 5.37491 28.6075
2664 2 14.4107 3.49231 28.4418
3663 2 12.5587 3.69075 26.7957
853 3 17.9112 6.98043 28.862
539 3 16.123 3.42987 26.8227
1349 1 17.8385 5.0675 26.7613
1670 1 16.1023 6.87558 26.7249
2536 2 17.8893 3.6445 28.5865
3163 2 16.1334 5.28165 28.517
1166 1 2.05972 8.84934 28.6613