ITEM: TIMESTEP
5000
ITEM: NUMBER OF ATOMS
4000
ITEM: BOX BOUNDS pp pp pp
5.9935069370304461e-02 3.5674124930629965e+01
5.9935069370304461e-02 3.5674124930629965e+01
5.9935069370304461e-02 3.5674124930629965e+01
ITEM: ATOMS id type x y z
1 2 0.0183532 1.86638 1.88219
1563 1 0.00533316 0.357617 -0.195744
2064 2 1.78328 1.73102 0.0664471
3561 2 1.90541 0.00669511 1.83792
564 2 3.74189 2.0912 1.84908
565 2 7.21282 1.68748 1.83344
1565 3 7.04706 0.206347 -0.0348417
2065 2 3.53045 -0.0417687 0.059895
3061 1 5.44547 1.86334 0.10793
3562 1 5.38089 -0.0819889 1.80802
566 3 10.8212 1.71932 1.95044
1070 1 10.8505 -0.00220449 0.207244
3063 1 8.99046 0.126075 2.02317
3062 1 9.03707 1.93235 0.0622755
567 1 14.4275 2.08597 1.6506
2566 1 14.1851 0.16502 -0.0285338
3064 2 12.466 1.71202 -0.217983
3563 2 12.5052 0.228797 1.70143
2 1 17.8256 -0.0736437 0.344417
3 3 15.8476 0.196792 1.71387
3066 3 17.7521 1.84747 1.76718
3065 3 16.0449 2.04483 -0.00496612
4 1 1.77781 5.26009 0.168529
5 1 1.87129 3.53675 2.05192
6 1 2.18001 7.19759 1.67002
1071 3 0.175036 5.34317 1.9953
3067 3 -0.077016 3.44122 -0.0041252
3565 2 0.185821 7.24495 0.0142305
7 2 5.33582 5.31094 0.0791814
8 2 3.58773 7.21551 -0.141653
1072 3 7.19927 5.40268 1.85778
1075 2 5.22543 7.18835 1.7908
1074 1 3.55542 5.34928 1.8495
1567 2 7.20796 7.25415 0.325391
2570 3 7.28035 3.71117 0.0984332
2569 3 3.57699 3.59 0.0906592
3569 2 5.56817 3.55634 1.7298
9 2 8.84243 5.41808 0.0508931
10 3 8.90954 3.59586 1.92872
1077 3 10.7222 7.38627 0.0962977
1076 1 10.7221 5.44782 1.63041
1568 3 9.03726 7.10451 1.78512
3068 3 10.8697 3.70283 -0.0217471
11 2 12.6344 5.52399 0.0153304
12 3 14.4045 3.70093 0.0158695
570 3 12.4057 3.37507 1.65971
1571 1 14.339 7.28089 -0.19625
1570 3 14.1689 5.47318 1.87271
1569 1 12.6277 7.11532 1.86005
572 3 16.2286 3.88742 1.82494
1081 1 16.0128 7.14495 1.62694
1079 3 17.824 5.48291 1.62832
1078 1 16.147 5.40352 -0.129735
1573 3 17.9097 3.58749 -0.0417859
2070 1 17.8547 7.19396 -0.17415
575 3 1.77884 10.67 1.84625
1082 3 1.896 9.14451 -0.117753
1574 1 0.0856008 8.90682 1.76029
3070 3 0.170019 10.7871 0.00967922
576 3 3.59542 10.7627 0.123837
1085 2 5.58002 9.03891 0.0838888
1083 2 5.25798 10.7546 1.95556
1577 2 7.07521 10.9255 0.229876
1576 2 7.32005 9.11769 1.95762
1575 3 3.50301 8.9877 1.86278
14 3 10.8297 10.8585 0.148084
1087 1 8.84513 10.8956 1.8469
1086 1 9.07316 9.01493 0.235268
2071 2 10.8409 9.05766 1.72583
580 3 12.6267 10.5503 1.73113
1088 1 14.5116 10.8635 0.0854041
2073 2 12.7055 9.07537 -0.0577165
2074 3 14.346 8.86521 1.90528
15 1 17.9348 8.86822 1.75642
1581 1 16.359 10.8988 2.0926
2076 3 18.0216 10.8175 -0.0331305
2075 3 16.2409 9.02842 0.0755284
2079 2 1.78004 12.6569 0.0535164
2078 2 1.99216 14.3604 1.96604
2077 2 0.139445 12.4566 1.93667
2572 1 0.234069 14.2662 0.150385
2082 1 5.32559 14.2404 1.77236
2081 2 3.51269 12.5679 1.88824
2080 1 5.22492 12.6122 0.194272
2576 2 7.14344 14.4488 0.0504008
2575 3 7.12795 12.7157 1.77727
3071 1 3.69651 14.3616 0.107331
1583 3 8.79041 14.4656 1.52472
2084 1 10.9422 14.5179 0.131214
2579 3 10.7533 12.653 1.92993
3073 3 9.03567 12.7386 0.0499953
2085 1 12.7006 14.3549 1.64613
2580 3 14.4135 12.641 1.7293
3074 1 12.6536 12.5753 0.131239
3574 3 14.4331 14.4457 0.0706239
581 3 18.1973 12.636 1.71096
1089 1 17.9867 14.4851 0.185686
2583 2 16.3006 14.4151 2.03912
3075 3 16.1853 12.8065 0.176853
16 3 0.0793627 17.6935 0.19648
2086 3 1.70492 17.8342 1.90472
2584 3 0.0714825 16.0887 1.97641
3076 2 1.92867 16.2368 0.131053
17 2 5.36761 16.1747 0.246476
1090 2 3.53721 17.9439 0.131486
2585 1 7.13962 18.08 -0.00124661
3079 2 5.42806 17.9619 1.90378
3078 1 7.4354 16.0688 1.7861
3077 3 3.65741 16.1125 1.92445
18 2 9.05846 16.2653 -0.0596149
1585 2 10.8079 18.0312 -0.163415
3080 2 10.8727 16.2487 1.68135
3578 1 8.89831 17.8601 1.67446
19 3 12.5468 16.1296 -0.265588
2088 1 14.4148 17.9431 0.114005
3081 2 14.1982 16.1908 1.68702
3581 3 12.3496 17.9467 1.63587
20 1 16.0504 16.1561 0.0812856
1586 1 17.999 16.3128 2.0114
3083 3 16.0314 17.9292 1.91309
3082 1 17.5582 17.9862 -0.147539
584 2 1.89982 1.64018 7.48095
1564 1 0.103521 -0.190192 3.8623
2588 1 1.77277 0.0104439 5.67547
2563 3 1.82327 1.58905 3.69013
3084 2 -0.0496595 0.173953 7.39003
3583 3 0.0512106 1.95212 5.51859
22 1 5.40476 1.89522 7.35158
1069 1 3.51687 0.0415744 3.5438
1566 3 7.10816 -0.13461 3.62878
2089 3 5.37107 -0.0143677 5.46514
2590 1 3.89413 0.0521449 7.41738
2564 1 5.45134 1.63717 3.49929
3085 1 7.13308 -0.0728546 7.24077
3585 3 3.79451 1.68927 5.49903
3584 3 7.17914 1.66251 5.35816
586 1 9.10576 1.67551 7.06193
2066 1 10.7821 -0.0244559 3.62369
2593 3 8.89204 -0.0844817 5.42793
2565 1 9.01658 1.81055 3.59925
3086 3 10.7375 -0.25314 7.20098
3586 2 10.81 1.64921 5.38956
23 3 12.3794 1.71352 7.27301
24 3 14.1687 0.0138869 7.22059
25 3 14.2559 1.60877 5.35275
2568 3 14.3576 0.0575783 3.46298
2567 1 12.5528 1.84347 3.68733
3087 3 12.415 -0.111961 5.51939
568 1 17.9787 0.0145982 3.57013
588 3 16.0556 1.72279 7.2699
1587 1 17.9472 0.0818866 7.16238
3088 2 16.0406 -0.15095 5.58935
3588 3 17.7116 1.7568 5.27651
3564 3 16.0193 1.68465 3.66475
27 3 1.9344 5.3398 7.04647
28 2 1.90091 7.22217 5.3125
589 1 -0.0404547 5.3227 5.41605
2067 2 -0.0515418 3.57094 3.53737
3090 3 1.96328 3.40581 5.5253
3590 3 0.0330785 7.18617 7.23191
3589 3 0.0995598 3.41366 7.38497
3567 3 0.0149274 7.05068 3.51007
3566 3 1.87525 5.28886 3.74795
29 1 3.79409 3.60044 7.13652
593 2 3.70145 7.18513 7.17269
592 1 7.18953 5.45427 5.54999
591 3 7.19701 7.34351 7.10335
590 3 3.81256 5.44172 5.44101
1095 1 5.62314 5.20608 7.46061
1094 1 5.41976 7.1128 5.36001
1073 3 3.57247 7.13237 3.60846
2068 1 7.15418 7.2011 3.39539
2069 2 3.73029 3.4352 3.69305
3593 3 5.65572 3.63604 5.45835
3592 2 7.28438 3.27354 7.24314
3570 3 5.29443 5.4668 3.59829
3568 3 7.13078 3.50459 3.56856
31 3 8.86382 3.47621 5.34377
569 3 10.8725 7.26076 3.6482
594 1 10.4821 5.64546 5.37907
1097 1 8.9174 5.21974 7.33661
1590 1 8.97782 7.26173 5.23295
1589 2 10.5572 7.30183 7.02312
3594 3 10.637 3.33233 7.06259
3572 1 10.7303 3.47802 3.73492
3571 3 8.87024 5.3986 3.63681
33 3 12.6002 3.37559 5.49687
35 1 14.1848 3.39699 7.28828
571 3 12.3219 5.20054 3.59557
595 1 14.2642 7.12318 7.1489
1100 1 14.3027 5.29224 5.45561
1099 1 12.0929 5.41515 7.23798
1592 3 12.5224 7.28316 5.43417
1572 1 14.2347 7.18463 3.67705
3069 3 14.3023 3.71917 3.46661
573 2 16.0037 5.50988 3.81075
1080 1 17.7702 3.74294 3.49544
1595 1 16.1275 7.22426 5.56153
1594 2 15.9541 5.28998 7.16973
2094 2 17.8465 7.25601 7.00714
2092 1 17.9516 3.51683 7.17263
2571 3 17.88 7.15862 3.51565
3092 2 17.7833 5.21258 5.38729
3595 2 16.0443 3.6839 5.36966
13 2 -0.000996935 10.7234 3.5999
597 1 0.0396007 10.6616 7.14622
596 1 1.97958 10.5686 5.38947
574 2 1.69344 8.68896 3.49445
1102 1 1.78254 8.95389 7.13407
1101 2 -0.0863004 8.82436 5.58886
38 1 3.62617 10.7082 7.39293
578 2 3.64646 10.6435 3.67466
577 1 5.36593 9.01489 3.53352
1106 1 7.2708 10.8926 7.29132
1104 1 5.24659 10.7074 5.46956
1103 3 3.62316 8.82216 5.32893
1084 2 7.17292 10.8917 3.6517
1597 2 6.98369 9.01364 5.33602
1596 1 5.22773 9.08797 7.19028
39 1 10.7091 10.9298 7.07992
599 2 8.99123 10.8125 5.27658
579 2 10.8831 10.8531 3.48607
1107 1 8.80578 8.97152 7.15118
1578 1 8.93922 9.23157 3.51664
2097 2 10.6704 9.29041 5.38713
1108 2 12.5914 10.7454 5.35037
1598 3 12.4795 9.04017 7.04375
1579 2 12.611 8.95691 3.68659
2072 3 14.5914 10.6901 3.48933
2099 1 14.3131 11.041 6.89841
2098 1 14.2085 9.03163 5.25181
1599 1 16.1346 9.02813 6.94651
1580 3 16.2063 8.97788 3.479
2100 1 16.3136 10.8189 5.0897
3093 2 17.9038 10.8159 7.21356
3597 3 18.1167 9.28484 5.43467
3573 1 17.9987 10.7888 3.48556
1110 1 0.0208329 14.3315 7.13734
1582 3 1.72683 12.3508 3.69439
2103 1 1.79132 12.3793 7.26834
2102 3 1.8576 14.2531 5.45837
2101 3 0.0540757 12.5263 5.41796
2573 1 0.144383 14.3012 3.57071
1112 2 7.34378 14.3357 7.19836
1600 1 5.35487 12.4397 7.00783
2104 1 5.28124 14.6103 5.29552
2083 1 3.34195 14.4036 3.719
2601 3 7.20884 12.5729 5.48229
2600 3 3.66694 12.4899 5.37881
2599 3 3.47371 14.3193 7.20289
2577 3 7.0649 14.3329 3.52802
2574 1 5.29535 12.4358 3.57257
2604 2 8.98753 14.4269 5.39321
2603 3 10.866 14.396 7.00345
2602 2 10.8076 12.5761 5.45457
2578 3 9.00284 12.5174 3.40299
3097 2 8.86454 12.4646 7.31311
3072 3 10.7545 14.5154 3.5479
602 1 14.458 14.3362 7.0989
1603 1 12.5981 12.6405 7.03612
2605 3 14.4556 12.521 5.14884
2581 2 12.7348 12.6405 3.32049
3098 2 12.666 14.2334 5.21798
3575 3 14.3994 14.3524 3.48025
1114 2 17.964 12.466 5.36519
1584 1 18.0949 14.2295 3.63271
2582 2 16.2772 12.5762 3.63666
3100 2 16.124 14.3485 5.41054
3099 1 16.0051 12.6273 7.159
3599 3 17.9067 14.3782 6.99808
582 3 0.086037 17.8618 3.70535
1605 2 1.80082 17.9307 5.43321
1604 1 1.86409 16.2434 7.28422
3104 1 0.0516377 16.0226 5.55796
3103 1 -0.0335489 17.9158 7.19531
3576 3 1.79265 16.17 3.66324
2087 3 3.69243 17.8322 3.4404
2607 2 5.45316 17.803 5.3803
2586 2 7.06689 17.9937 3.69715
3107 2 7.35036 17.932 7.26623
3106 1 5.42916 16.2925 7.45073
3105 2 3.64038 17.8936 7.34304
3602 1 3.5241 16.0178 5.49862
3601 3 7.07936 15.9405 5.64656
3577 2 5.43791 16.115 3.62346
1091 2 10.7285 17.8654 3.69057
2107 2 9.24119 16.0303 7.24077
2608 3 8.9306 18.0726 5.56218
3109 3 10.796 17.8788 7.27305
3603 2 10.8291 16.2012 5.40764
3579 2 8.8694 16.1864 3.78945
41 1 14.323 16.3138 5.42291
2610 1 12.4159 17.8423 5.37047
2609 2 14.1373 17.8946 7.17274
2587 1 14.2357 17.8537 3.48501
3604 2 12.4518 16.0281 7.23357
3580 2 12.4442 16.2611 3.41942
583 2 15.9725 16.2766 3.4008
1606 1 17.9818 17.6797 7.14984
2109 3 16.2754 16.2411 6.97501
3112 2 16.1392 18.0378 5.55579
3110 2 17.7074 16.1274 5.03091
3582 3 18.0492 18.0406 3.68882
21 2 0.00390858 1.72352 9.1616
604 3 0.101224 -0.0680598 10.7814
2110 3 1.91854 1.67988 10.8728
2589 1 1.78676 0.0169968 8.98813
585 3 7.48255 1.71363 8.95328
1092 2 5.60781 -0.0316324 9.15624
1608 1 7.36051 -0.0448703 10.6291
1607 3 3.65847 -0.0383029 10.5824
2111 3 5.57309 1.78333 10.7772
2591 2 3.75102 1.75543 9.11609
1116 3 10.8774 -0.126482 10.759
2612 3 9.1116 1.72028 10.8687
2592 1 10.612 1.53411 8.96583
3587 2 9.05669 -0.126967 8.90895
587 1 14.2181 1.81755 8.86015
1609 1 14.3196 -0.146633 10.9772
2090 2 12.4803 0.042322 8.97367
2613 1 12.4385 1.58582 10.8821
26 1 16.1061 -0.0124186 8.80057
2594 1 18.0484 1.58879 8.82179
3116 2 15.9931 1.55188 10.5909
3115 3 17.9544 0.193265 10.4836
1093 1 1.84311 7.39211 9.25411
2091 3 2.08784 3.76948 8.84129
2615 3 0.163223 3.66166 10.629
3118 2 0.211569 7.09229 10.8545
3117 2 1.86137 5.369 10.667
3089 3 0.181547 5.36639 8.96206
30 1 5.43194 3.58448 8.94387
45 1 7.12126 7.19322 10.7958
1096 1 3.69961 5.37916 8.83335
2112 3 7.30129 3.44184 10.7874
2616 3 3.73119 3.67024 10.8755
3091 3 7.17677 5.13911 9.16573
3608 3 3.62089 7.37182 10.7854
3607 2 5.31026 5.56853 10.7953
3591 3 5.51371 7.13968 8.98536
46 3 10.5216 7.08984 10.8143
1098 1 10.557 5.2992 8.90755
1591 2 9.09861 3.52357 9.02337
1588 1 9.1456 7.16397 8.94588
2113 3 10.786 3.46712 10.9669
3609 3 9.19329 5.19095 10.692
32 1 12.4909 7.22819 8.86137
34 1 12.4539 3.378 9.03391
36 2 14.1677 5.22768 8.76679
609 1 14.2418 7.01457 10.4824
3119 3 14.1731 3.55249 10.7421
3611 3 12.5715 5.39305 10.7036
1120 2 17.797 3.56618 10.3823
1615 2 18.1108 7.19575 10.5074
1593 2 17.9063 5.55401 8.71515
2093 3 16.1735 7.29984 8.77316
2595 1 15.9497 3.52786 8.83681
3612 3 16.0709 5.43973 10.3456
48 3 1.885 9.18381 10.8382
2095 3 0.0642419 9.01433 8.94892
2596 3 1.94388 10.757 8.93495
3120 2 -0.0483395 10.9302 10.7242
37 2 3.64613 9.0357 8.79348
49 2 5.60011 8.95822 11.0505
612 1 7.07667 10.8258 10.8757
1105 2 5.52951 10.6764 8.87258
2096 1 7.20605 8.96847 8.97602
3121 3 3.96311 10.8369 10.9616
613 1 8.83485 8.96186 10.7218
598 2 10.4912 8.95663 8.89738
3613 3 10.8003 10.597 10.6329
3596 2 8.84924 10.6297 9.00212
50 3 14.2657 10.7783 10.9969
614 2 12.3684 8.86757 10.6848
2598 3 12.6261 10.924 8.80604
2597 3 14.1015 9.04421 8.58826
51 1 17.6197 10.5336 10.5301
600 1 17.8304 8.96819 8.86095
1122 2 16.1833 8.59821 10.6685
1109 3 15.7646 10.5244 8.78828
616 1 0.0236087 14.12 10.8048
601 3 0.0360431 12.4454 8.99528
1123 1 1.96989 12.3616 10.9595
3094 2 1.65831 14.2325 8.86348
1124 1 5.50158 12.5431 10.8216
1111 3 5.26097 14.1601 8.93315
1619 2 6.89163 14.5682 11.156
1618 1 3.61455 14.2772 10.8356
1601 2 7.15759 12.5492 9.03672
3095 2 3.68605 12.4352 9.05672
617 3 10.6123 14.2294 10.7613
1125 1 8.70067 12.5041 10.7234
3096 3 8.96082 14.3253 8.8562
3598 2 10.615 12.4496 8.9298
1126 1 14.3729 14.6144 10.6052
1113 1 12.3977 13.9783 8.67104
1620 2 12.497 12.5855 10.7418
1602 1 14.2549 12.726 9.07794
1621 1 16.1247 12.5624 10.6383
3126 1 17.9471 14.3519 10.7128
3102 2 16.323 14.2053 8.8945
3101 1 17.8697 12.4461 8.97887
1623 1 0.0422882 17.8539 10.693
2119 2 1.56676 16.0068 10.7062
2606 1 1.9481 17.7551 8.97279
3600 1 -0.0953838 16.1468 8.95468
40 3 7.34082 15.9455 8.91534
619 2 3.57445 17.8786 10.8536
1127 3 7.22724 17.9001 10.9833
2120 1 5.2859 16.2482 10.6739
2106 2 3.54894 16.026 9.12987
2105 1 5.53668 17.9175 9.00437
1624 2 10.6247 18.0049 10.7969
2108 1 10.793 15.9882 9.20992
2625 2 8.87086 16.0642 10.9993
3108 2 8.89704 18.0007 8.92164
603 2 14.2255 16.1679 8.74611
1115 3 12.5163 17.9044 9.10623
2626 2 12.5272 16.1084 10.6853
3620 1 14.4502 18.0598 10.7201
2628 3 16.2381 16.0867 10.6182
2611 3 17.872 16.1788 8.89233
3127 2 18.0913 17.7908 10.6383
3111 3 16.149 17.9499 8.90029
42 3 0.199112 1.78832 12.5212
2121 1 0.0831719 -0.0509161 14.1632
2629 3 2.02533 1.73556 14.551
3113 1 1.87704 -0.117202 12.5058
43 3 3.62894 1.69977 12.6372
605 2 7.21299 1.75479 12.6237
1625 1 7.17775 0.106158 14.3324
2123 3 3.90457 -0.00772426 14.3436
3128 2 5.48675 1.81081 14.3319
3605 3 5.50608 -0.0860454 12.5061
606 3 10.6458 1.80005 12.6119
1627 2 10.7829 -0.0808438 14.2856
3129 3 8.86096 1.8083 14.4675
3606 1 9.1126 -0.187203 12.5933
1117 1 14.1598 1.75977 12.6272
2632 1 14.3044 -0.0667077 14.1474
3131 2 12.5031 1.79656 14.3631
3114 3 12.3976 -0.109385 12.6935
44 1 16.1721 -0.0199686 12.642
501 2 17.8524 0.205733 14.3616
2614 1 17.8562 1.87405 12.3546
3132 3 16.0261 1.68642 14.201
607 3 2.02122 3.6495 12.5727
1119 1 2.01688 7.32148 12.4655
1118 2 0.158198 5.50875 12.6619
2634 3 0.0477881 7.22719 14.3985
2633 2 0.086238 3.77349 14.0834
3624 2 1.77567 5.2837 14.3154
60 1 7.29819 7.13683 14.4931
608 3 5.60245 3.70125 12.3715
1612 2 7.13888 5.49573 12.5419
1611 1 5.59808 7.25073 12.8277
1610 2 3.66716 5.64201 12.5418
2128 3 7.29819 3.51662 14.3415
2126 3 3.83892 3.46406 14.1815
3136 2 3.67283 7.31937 14.1779
3626 2 5.56531 5.50478 14.3511
1613 3 10.8813 5.43692 12.7227
2114 3 9.0683 7.00424 12.5625
3137 3 10.8342 3.50397 14.374
3629 3 8.92784 5.33768 14.2668
3628 1 10.6381 7.08876 14.3155
3610 3 9.01227 3.70886 12.6116
610 1 12.3359 3.71034 12.661
1614 3 14.3139 5.35703 12.5895
2617 1 12.6845 7.19574 12.5693
3138 2 14.1519 3.56188 14.3683
3631 3 14.323 7.02985 14.3982
3630 3 12.5568 5.42704 14.4315
47 2 17.8128 5.58647 12.3374
65 3 16.2171 5.25286 14.2162
1138 3 17.9093 3.60164 14.1009
1121 3 16.05 3.67316 12.3863
2618 1 16.1803 7.32317 12.7771
3140 3 17.9366 7.21722 14.2804
67 1 1.92072 8.98192 14.4326
611 1 1.78701 10.7599 12.6346
2115 3 0.184743 8.9565 12.5922
2636 3 0.032552 10.5297 14.4184
69 2 7.3722 10.7587 14.4941
70 2 5.53042 9.11757 14.6993
1616 1 5.50434 10.7224 12.6212
2116 3 3.69282 8.93629 12.581
2619 3 7.27126 8.84236 12.6973
3633 1 3.79431 10.8718 14.5005
71 3 9.02609 8.87304 14.4536
2117 1 8.85444 10.7678 12.5109
2620 1 10.5441 9.03705 12.5531
3141 1 10.6391 10.8527 14.1901
510 3 12.3223 8.88459 14.1683
1617 2 12.6029 10.6645 12.897
3122 2 14.3165 8.78568 12.5383
3635 1 14.335 10.9441 14.4052
511 2 15.9881 8.99683 14.4691
615 3 17.7943 8.83113 12.4717
1639 3 17.806 10.7874 14.209
2118 1 16.0918 10.5001 12.5176
513 2 0.191626 14.2906 14.2954
514 2 1.64432 12.5619 14.249
2621 2 -0.0567155 12.5414 12.446
3123 1 1.86474 14.2697 12.5598
72 2 7.2712 14.3292 14.2996
515 3 5.50778 12.4732 14.4607
516 1 3.48012 14.1865 14.5287
3125 1 7.05933 12.423 12.6056
3124 3 3.67004 12.3894 12.6645
3614 1 5.42873 14.3867 12.6558
73 3 10.8689 14.4487 14.2878
1145 2 9.02709 12.5613 14.2666
3616 1 10.6341 12.4472 12.2882
3615 2 9.16408 14.1889 12.5462
1147 2 12.5471 12.5316 14.3193
1146 3 14.3389 14.3227 14.5654
2622 1 12.6337 14.3961 12.707
3617 3 14.2081 12.765 12.5964
1149 2 16.2407 12.6028 14.1708
1622 1 17.904 12.4805 12.5254
3146 1 17.9915 14.529 14.2566
3618 3 16.1235 14.3639 12.3409
52 1 -0.0856445 15.9089 12.5957
518 3 0.0236219 17.984 14.2039
1150 1 1.9189 16.0689 14.3483
2623 2 1.84857 17.6627 12.7552
53 2 3.69918 16.077 12.4053
618 3 7.23062 16.1944 12.7326
1151 3 3.60962 17.8252 14.3231
1642 2 5.28485 15.9779 14.3247
2142 3 7.21324 17.7686 14.543
2624 2 5.33947 17.9249 12.534
54 3 10.8118 16.0898 12.4677
1643 1 9.12508 15.9947 14.2655
2649 3 10.8379 18.1278 14.3786
3619 1 9.03301 17.8883 12.6979
55 1 12.424 17.8091 12.6268
620 1 14.3009 16.0105 12.5674
1646 3 12.6859 16.0226 14.5335
1644 1 14.3025 17.9096 14.5151
56 1 16.2676 17.5424 12.6291
1647 1 16.1861 15.9512 14.273
2627 2 18.0087 15.9347 12.466
3644 3 17.9069 17.8244 14.2371
57 3 1.86571 0.0199482 15.9962
621 3 0.0172533 1.93778 15.728
1128 3 -0.156878 0.222263 17.9243
2122 2 1.84805 1.77584 17.7168
58 1 5.51189 -0.00595115 16.1218
1132 3 7.26024 0.0568584 17.9168
1131 1 7.09139 1.84521 16.1304
1130 2 3.65487 0.298822 17.7978
1129 2 3.87222 1.96928 16.0486
2630 1 5.2927 1.94831 18.1147
1133 2 10.7757 1.76063 16.2418
1626 2 10.781 0.00168278 17.6709
2631 1 8.88359 1.74778 17.9638
3621 2 8.92854 0.0159548 16.2789
59 1 12.4375 0.138055 16.1102
1134 3 14.3037 1.78218 15.9622
2124 2 14.139 -0.117725 17.8991
3130 2 12.5365 1.83609 17.8345
502 2 16.1115 -0.0466793 15.7836
3133 3 15.7538 1.60728 17.7809
3623 2 17.8562 0.0784813 17.8747
3622 3 17.6722 1.8149 16.0726
503 1 1.91887 3.52516 16.0939
504 3 2.07336 7.19973 16.1827
1628 3 0.0145028 5.23902 15.9101
2125 2 0.14164 3.65061 17.8314
3134 1 -0.057578 7.10074 17.9204
3625 1 1.90535 5.33911 17.846
61 3 5.61986 3.70995 16.3437
505 3 3.63274 7.10547 17.8145
1135 1 7.19729 7.16328 18.0631
1631 1 5.49393 6.94146 16.252
1630 2 3.74151 5.41253 15.944
1629 3 7.31169 5.36969 16.028
2127 1 3.49405 3.70728 17.685
3135 3 7.36397 3.56208 17.9256
3627 2 5.52753 5.33001 18.1726
62 1 8.86033 5.53879 18.0639
63 2 10.7528 7.06901 17.9985
506 2 8.99875 3.68252 16.0943
1632 1 10.612 5.4109 15.9829
2129 1 8.95212 7.10704 16.2887
2635 1 10.5821 3.62211 17.6201
64 2 12.5168 5.40565 17.8886
1137 1 14.3093 7.24867 17.7302
1136 2 12.4866 3.43154 15.9961
2131 2 14.1557 5.41218 16.0951
2130 3 12.3274 7.15548 16.1526
3139 3 14.2106 3.64488 17.7848
66 1 17.9979 5.38836 15.9003
507 3 15.8613 5.45567 17.7057
1140 2 17.7787 3.54187 17.7674
1139 3 16.0447 3.55929 15.9705
1634 1 17.5436 7.37598 17.7863
1633 3 16.1648 7.23685 15.8734
508 1 1.87023 8.96732 17.8161
1141 2 1.781 10.709 16.1256
2132 1 0.297147 8.74017 16.2883
3632 3 0.0113938 10.7273 17.8044
68 2 3.68901 10.7673 17.9008
509 3 7.20021 10.8051 17.9963
1142 1 5.48496 8.80935 17.8405
1635 3 5.49157 10.8829 16.2713
2134 3 7.26612 9.01008 16.3832
2133 3 3.68047 9.19902 16.1332
1143 3 8.92244 9.01912 17.9565
1636 2 9.02017 10.9406 16.0564
2637 1 10.7678 8.91504 16.3321
3634 2 10.9497 10.8517 17.8268
1144 2 12.6793 10.8273 16.0765
1638 2 12.4689 9.04857 17.9678
1637 1 14.1479 10.763 17.8738
2638 1 14.226 9.05 15.8826
512 1 17.7609 9.11242 15.9595
1640 2 15.8439 9.13228 17.8177
2135 1 16.0081 10.8427 16.1156
2639 1 17.6449 10.612 17.8478
2137 1 0.0599695 14.2898 17.7475
2136 3 1.95834 12.4936 17.8693
2641 1 1.77784 14.2667 16.263
2640 2 -0.0924812 12.4483 16.0863
2140 2 7.43247 14.2436 17.9331
2139 3 3.62124 14.4546 17.8956
2138 3 5.27111 12.6019 17.9312
2643 1 5.58949 14.4682 16.2044
2642 1 3.59792 12.5151 16.2422
3142 2 7.23892 12.5825 16.0914
2141 3 8.96198 14.3287 16.1534
2645 2 8.93089 12.6388 18.0558
2644 3 10.8568 14.3673 17.847
3143 3 10.7542 12.6975 16.2297
2647 1 12.575 14.1161 16.188
2646 1 12.5538 12.5501 17.904
3145 1 14.3842 14.2044 17.763
3144 2 14.3575 12.446 16.113
517 3 17.8391 14.3981 18.072
1148 2 17.8066 12.5056 16.1837
3148 3 15.992 14.2196 16.0885
3147 3 16.1372 12.5387 17.9443
2648 2 1.54605 17.9325 16.0357
3150 2 1.83975 16.3438 17.8851
3149 2 -0.0215279 16.1903 16.2672
3636 2 -0.119283 17.9994 17.9231
1641 3 3.63978 18.0436 17.825
2143 2 7.32759 17.9441 17.9198
3640 3 5.31463 17.8321 16.1511
3639 2 7.45592 15.8996 16.1257
3638 2 5.44837 16.156 17.8733
3637 1 3.67426 16.0607 16.1633
74 3 9.17791 17.8683 15.9639
519 3 10.7867 17.901 17.9642
3642 2 8.86555 16.0724 17.9678
3641 1 10.7969 16.152 16.1053
75 2 12.783 15.9788 18.1352
76 2 12.5517 17.9807 16.1696
1645 2 14.5034 17.9408 17.9834
3643 3 14.5874 16.0768 16.0839
77 1 16.0804 16.052 18.0411
2144 1 17.8609 16.1109 16.1583
2650 2 17.8102 18.0343 18.0647
3645 3 16.4704 17.7441 16.2667
520 2 -0.170989 0.439832 21.3663
78 2 0.131669 1.96944 19.4098
2145 3 2.03445 1.8174 21.5483
3151 2 1.93556 0.062727 19.7224
521 1 3.63574 -0.128119 21.3805
80 2 3.62246 1.93489 19.7532
79 2 7.18002 1.79076 19.6337
2147 1 5.36963 1.7699 21.2898
2146 2 7.15947 0.140136 21.5152
2651 2 5.47362 -0.00463053 19.4674
81 3 10.7177 1.88124 19.7997
1648 1 10.563 0.174746 21.4719
2652 2 9.06904 1.89972 21.584
3152 2 8.99938 0.0326338 19.6177
522 3 14.2162 1.82252 19.7048
1649 1 14.1207 0.0180724 21.4613
2653 2 12.5104 1.69127 21.4805
3646 3 12.3859 0.177978 19.7626
82 3 17.8073 0.0713457 21.4768
2654 2 17.7181 1.81971 19.4988
3153 3 16.0022 1.87145 21.373
3647 2 15.9561 -0.0228495 19.6054
523 3 0.045961 5.38282 19.7997
84 3 1.95059 7.18265 19.7152
83 2 0.175435 7.0306 21.5282
1650 3 0.208597 3.62855 21.3662
3155 1 1.97024 5.23409 21.2599
3154 1 1.86959 3.58917 19.466
524 2 3.64023 5.15713 19.6618
525 1 7.15582 5.36228 19.9907
526 1 3.65113 6.88698 21.5157
1153 3 7.24358 7.24189 21.4158
1152 2 5.16204 7.02622 19.7418
2655 1 3.84275 3.41108 21.7125
3156 1 7.09156 3.44552 21.6633
3649 1 5.43208 3.52043 19.6393
3648 2 5.35735 5.20708 21.3065
86 2 10.7504 7.19374 21.3458
85 1 9.00606 3.5151 19.8072
1155 2 10.496 5.17388 19.5619
1154 2 9.08317 7.19209 19.6394
2656 3 10.7542 3.56211 21.5161
3650 1 9.02448 5.38017 21.5574
527 1 12.4544 7.12042 19.6815
88 1 12.3921 5.47383 21.2515
87 1 12.3807 3.85151 19.6027
1156 2 14.0742 5.39515 19.567
2148 3 14.1893 7.16417 21.4274
2657 3 14.2263 3.73633 21.4662
528 1 17.562 3.72648 21.2495
89 2 15.9689 5.59567 21.0093
1157 2 15.9023 7.19251 19.4017
3158 2 17.9271 5.45442 19.6764
3157 2 17.6432 7.27246 21.3733
3651 1 15.9189 3.60251 19.4947
529 1 1.58936 8.85526 21.2644
530 2 1.7773 10.7208 19.5547
1158 1 0.124454 8.97966 19.5145
3652 2 0.129911 10.6335 21.322
531 2 5.29247 8.78961 21.5596
532 1 5.50317 10.9419 19.6107
533 2 7.12295 10.6963 21.4348
1159 3 3.81207 8.82558 19.4679
1651 2 7.05972 8.94133 19.7839
3653 3 3.4509 10.4275 21.5628
90 2 8.94397 10.6544 20.0578
1161 2 8.96418 8.93184 21.2944
1160 1 10.7905 10.6504 21.478
1652 3 10.7005 9.08217 19.5727
534 1 12.7125 10.7112 19.914
1162 2 12.573 8.93257 21.54
1654 2 14.3541 10.8048 21.5294
1653 1 14.3639 8.97998 19.6919
1656 2 16.0164 10.8936 19.5552
1655 3 16.2208 9.0298 21.3308
3159 2 17.9003 10.7664 21.5358
3654 2 17.7295 9.00787 19.5575
1660 3 0.103003 14.2022 21.3274
1659 2 1.81228 14.3402 19.6028
1658 2 1.78428 12.4221 21.3033
1657 3 -0.039327 12.4725 19.6331
1163 1 5.37038 14.1906 19.7678
1661 3 3.60726 14.1633 21.7064
2151 1 7.16451 12.5338 19.7463
2150 1 5.35905 12.4936 21.6569
2149 2 3.71578 12.1666 19.9218
3160 3 7.23751 14.3119 21.3968
1662 1 9.21529 14.4376 19.7536
2153 2 8.96386 12.544 21.3396
2152 2 10.8102 12.4691 19.6315
2658 2 10.8031 14.2833 21.4905
2155 2 14.32 12.8061 19.7225
2154 1 12.2781 14.2573 19.83
2660 1 14.1527 14.3292 21.4551
2659 3 12.4826 12.5258 21.4896
535 3 18.0778 12.6225 19.7471
1164 3 17.666 14.3259 21.4373
2156 1 16.0181 14.2439 19.686
2661 1 16.0563 12.6425 21.5998
1165 1 0.0268257 17.7437 21.4745
2157 1 1.74066 17.8211 19.6899
2662 3 0.0808074 16.0346 19.5146
3161 1 1.71251 15.8947 21.366
1664 2 7.1919 17.828 21.5057
1663 1 3.66197 17.8309 21.7723
2664 1 3.76739 15.9114 19.7948
2663 2 6.98527 15.8682 19.6509
3163 2 5.41862 15.9774 21.6554
3162 1 5.56085 17.8435 19.6766
536 1 11.04 17.8942 21.4545
2665 2 10.7217 16.0246 19.5635
3164 1 9.04607 17.8377 19.7418
3655 1 8.9424 16.0967 21.466
2666 3 12.6437 17.8967 19.4842
3166 1 14.3331 16.0619 19.8103
3165 3 14.2511 18.0285 21.3274
3656 1 12.6444 16.0753 21.5031
92 1 15.9244 16.1298 21.25
91 3 17.8869 17.8492 21.4057
1166 2 17.9075 16.2052 19.8144
3167 2 16.1154 17.9623 19.7594
93 3 1.79194 1.88846 25.0127
1665 3 1.84925 0.0750807 23.3052
2667 2 -0.1079 0.144642 24.8793
3168 3 0.090526 1.8551 23.2609
2158 2 5.42578 0.229764 23.2961
2670 1 3.62736 -0.0245858 25.1329
3170 3 7.22905 1.83568 23.2425
3169 2 3.58983 1.89937 23.2672
3659 1 7.1464 0.110638 25.1896
3658 3 5.37779 1.90412 24.9676
537 1 8.92889 1.67806 25.2203
2671 2 9.0313 0.101553 23.294
3171 2 10.8346 0.0457586 25.0558
3660 2 10.8087 1.93734 23.3399
2673 1 12.3282 0.149754 23.2175
3663 3 14.1462 1.87992 23.2515
3662 2 14.1241 0.203805 24.7736
3661 1 12.4812 1.91361 25.0896
539 3 16.1685 1.96003 25.1539
1167 2 17.8742 0.0242892 24.9337
1668 1 17.7479 1.91776 23.0598
2160 3 16.0321 0.0582208 23.2268
99 2 1.87583 5.3022 24.892
98 1 1.78091 6.92645 23.0087
97 1 0.173069 7.18721 24.9207
96 1 -0.00339762 5.28473 23.1969
3173 3 1.94139 3.49595 23.2121
3172 2 0.122061 3.68977 25.0333
540 1 3.62458 6.90586 25.0128
541 1 5.29317 7.0019 23.0891
542 1 6.85962 5.42612 23.3076
543 1 5.32204 5.1593 25.0529
101 1 7.25322 7.37741 24.8374
100 3 3.59879 5.30395 23.1998
2675 3 7.38298 3.48197 24.9871
3175 3 3.49425 3.70084 24.9719
3665 2 5.29672 3.40575 23.4047
546 3 9.02968 7.42196 23.0499
547 3 8.91537 5.49103 24.7112
102 2 10.8418 5.45718 23.0831
1170 2 10.625 7.20335 25.1645
3177 1 10.6507 3.56567 25.0089
3666 3 8.96868 3.57406 23.2452
548 3 14.2367 5.52813 23.1073
549 3 12.4042 5.48053 25.0061
105 2 14.2318 3.69751 24.9547
1670 1 12.3433 7.15091 23.1712
3179 3 12.5075 3.69381 23.1546
3667 3 14.2505 7.56004 25.0377
1172 3 16.075 5.5554 24.9972
1672 1 18.087 3.4395 25.055
1671 2 16.049 7.20639 23.0836
2678 2 17.7897 7.29392 24.8776
2677 1 17.7679 5.50957 23.1767
3668 1 15.9877 4.02783 23.219
550 2 0.165924 8.8813 23.0839
106 3 1.58612 10.5393 23.2946
1175 1 1.75831 8.9254 25.1444
3669 2 0.0111309 10.7113 25.0775
108 3 5.27488 10.6841 23.3797
1180 1 7.26765 10.5993 25.1361
1178 3 6.90604 9.14393 23.1905
1177 3 3.4404 9.00882 23.4031
1176 2 5.32894 8.56025 24.9883
3670 2 3.45812 10.7922 25.0195
551 2 10.7428 10.9323 25.0734
552 2 8.69768 10.5809 23.3643
1181 3 8.92335 8.92681 24.9448
1674 3 10.8006 8.91331 23.3546
1182 1 12.4698 10.7619 23.2716
1676 3 12.5983 9.11389 24.9184
1675 1 14.1546 9.1677 23.1284
2163 2 14.2952 10.8335 25.1816
1183 1 16.1148 9.02433 24.9781
1677 3 15.9898 10.9415 23.3457
2165 3 17.8213 10.8502 25.0248
3671 1 17.8482 8.88927 23.2414
555 2 -0.092623 14.2521 25.1342
1184 1 1.72377 14.392 23.2693
1678 3 1.76155 12.4416 25.1316
2166 3 0.0914497 12.4932 23.2608
113 2 7.16797 14.0965 25.0322
1185 3 5.52097 12.4441 25.0728
2170 1 5.31964 14.1386 23.3416
2169 3 3.24304 12.2646 23.0118
2168 2 3.50711 14.3024 24.7726
2167 1 7.25099 12.287 23.0652
1680 1 10.4652 14.5414 25.071
2171 1 10.5898 12.4958 23.235
2682 1 8.79669 14.1738 23.1663
2681 3 8.88809 12.3099 24.9174
114 3 14.4464 14.2701 25.1055
1681 1 12.3854 12.6212 25.1486
2684 3 14.163 12.4446 23.4353
2683 3 12.3423 14.268 23.2125
557 3 18.0113 12.6816 23.1317
2173 1 16.1314 14.431 23.2387
2685 3 16.0584 12.7154 25.0433
3183 3 17.9468 14.2362 25.096
1684 3 1.73253 16.3217 25.1132
1683 1 1.6686 17.7173 23.2207
2688 3 -0.0541186 16.0878 23.3525
2687 3 -0.0989527 17.8654 24.8206
2175 1 7.13019 17.8483 24.9594
2174 3 5.56346 17.8047 23.1803
2689 1 3.67419 17.8819 25.0827
3187 3 5.36618 15.6763 25.0036
3186 3 7.2856 15.9026 23.3349
3185 3 3.57273 16.0909 23.4168
1687 2 9.10503 17.9088 23.0652
1686 3 8.98568 16.1526 24.9306
2177 3 10.8457 17.8272 25.1599
3675 1 10.8603 16.1163 23.3603
2178 1 14.2262 17.8725 24.9526
2690 3 12.6239 17.9809 23.2916
3188 3 12.6014 16.1424 25.0355
3676 3 14.2895 16.1404 23.1722
1187 2 17.8654 16.0541 23.1356
1186 3 17.7384 17.7356 24.8499
1689 3 16.1411 16.2345 24.8254
3189 2 16.0847 17.807 23.0555
1188 3 -0.200315 0.130204 28.538
2180 3 1.80571 1.84076 28.668
2668 2 1.7619 0.139008 26.7702
3657 3 -0.232304 1.86407 26.6643
559 2 7.08999 0.221215 28.4819
94 2 7.06918 1.99924 26.804
1189 3 3.59084 0.229233 28.6936
1666 3 5.39593 0.0488343 26.6873
2181 3 5.33275 1.69147 28.6764
2669 2 3.44211 1.97222 27.0851
560 3 10.6984 -0.0318185 28.6499
95 1 8.94902 0.147833 26.7212
2182 1 9.02798 1.99945 28.4384
2672 1 10.828 1.95204 26.643
538 3 14.1885 1.92317 26.6152
1667 2 12.54 0.148732 26.8276
2184 3 12.544 1.78119 28.4588
2183 2 14.3258 0.141927 28.5778
2159 3 17.8894 1.68381 26.8732
3193 2 15.9516 1.76338 28.4922
3679 3 17.793 -0.0324757 28.5545
3664 3 15.9789 0.156903 26.5546
1168 2 1.881 3.60675 26.8466
1669 3 1.7925 6.98683 26.6919
2186 1 0.0902781 7.33317 28.5181
2185 3 -0.0980277 3.53949 28.4966
2674 3 -0.0121221 5.44749 26.6818
3194 2 1.75554 5.36553 28.7591
544 1 3.60182 5.32921 26.843
563 1 7.21569 7.02136 28.5773
1691 3 7.14198 3.80725 28.464
1690 2 3.72374 3.77834 28.5164
2676 1 7.28071 5.56389 26.5782
3196 2 3.59652 7.09649 28.5403
3195 3 5.46343 5.43332 28.4238
3176 1 5.39393 3.54794 26.921
3174 2 5.50086 6.98892 26.5611
545 2 10.6133 5.39004 26.8183
1171 2 8.96321 3.64396 26.9503
1169 2 8.99597 7.37744 26.7746
2694 3 10.9582 3.76295 28.5604
3197 1 9.12177 5.50476 28.458
3681 2 10.9065 7.18017 28.5553
104 3 12.558 3.73762 26.7295
103 3 14.3023 5.44856 26.5899
2695 2 14.2791 3.63416 28.5897
3178 2 12.4986 7.20192 26.7621
3684 1 14.083 7.35219 28.4873
3683 1 12.4455 5.51949 28.6351
622 2 17.9164 3.49527 28.3807
1004 3 17.9205 7.32272 28.444
1174 3 15.7655 7.22559 26.8241
1173 2 17.8672 5.45344 26.6171
3180 3 16.2731 3.55468 26.7774
3685 2 15.9613 5.4113 28.4945
1673 1 0.147825 8.96646 26.8042
2161 3 1.83423 10.7791 26.8738