ITEM: TIMESTEP
5000
ITEM: NUMBER OF ATOMS
4000
ITEM: BOX BOUNDS pp pp pp
1.4415248014433502e-02 3.5719644751985285e+01
1.4415248014433502e-02 3.5719644751985285e+01
1.4415248014433502e-02 3.5719644751985285e+01
ITEM: ATOMS id type x y z
563 3 0.234704 0.0106667 0.175823
1064 3 2.08864 1.68974 0.0971516
1563 1 2.01869 0.105148 1.66173
2064 3 0.136456 2.03897 1.77726
1 1 3.78729 1.66979 1.8462
565 3 7.1046 -0.192915 0.0426329
2065 2 7.24428 1.7601 1.8484
2565 3 3.9817 0.0318924 0.0641641
3064 3 5.48724 2.00046 -0.0568173
3564 2 5.74005 -0.0253515 2.05523
2 2 10.6546 1.88121 1.60852
1066 2 8.9149 1.90764 -0.0227337
1564 2 8.95866 0.00475796 1.64131
2566 3 10.762 -0.15779 0.0856634
567 2 14.2691 0.132583 -0.122226
2066 1 14.2958 1.8466 1.8053
3066 2 12.6482 1.92436 0.388578
3565 3 12.6456 -0.0144894 1.77449
751 1 17.8365 -0.00608834 0.148428
1068 2 16.2409 1.78019 0.224036
1565 3 15.8623 0.0853849 1.90226
2001 3 17.9247 1.71042 1.98501
3 3 -0.0694092 5.3984 1.77343
573 3 0.243157 7.05671 0.148276
1568 3 2.05789 6.88852 1.75666
2569 2 0.0711088 3.30306 -0.153965
3068 1 1.7716 5.35113 -0.184979
3566 1 1.88975 3.69767 1.89982
4 1 7.18809 5.33807 1.93564
569 3 3.79213 3.51583 0.067726
577 2 7.16787 7.1426 -0.0935823
1070 1 5.38044 5.35678 -0.405848
1566 1 5.55212 3.92973 1.7661
2067 2 3.6005 5.31301 1.58426
2576 3 3.47147 7.05678 -0.153723
2571 2 7.24413 3.59989 0.023856
3570 3 5.40247 7.16502 1.67097
570 2 10.6106 3.66148 -0.0336625
1570 3 8.77095 7.2344 1.68189
2068 1 10.7038 5.40511 1.79499
2578 2 10.6645 6.97875 -0.190287
3070 2 8.87326 5.43449 -0.0202574
3567 2 8.909 3.60885 1.88521
5 2 14.2255 5.33609 1.84815
581 3 14.4116 7.11521 -0.106286
1072 1 12.5595 5.2914 0.0124047
1567 2 12.4648 3.7204 1.85285
2573 2 14.4811 3.74206 0.0637007
3572 3 12.3384 7.04424 1.61712
253 1 18.1309 5.53218 1.69416
761 2 18.1278 7.16137 -0.147265
1572 3 16.2022 7.06915 1.50029
2819 1 17.784 3.64305 0.0154309
3072 3 16.0721 5.37377 -0.201963
3568 3 16.2021 3.59447 1.82835
1074 2 1.88425 8.83108 0.138298
2069 1 0.166897 8.78832 1.86855
2574 1 0.168285 10.4614 -0.0315744
3569 2 1.81398 10.561 1.81287
6 1 3.43183 8.90848 1.77412
575 3 3.51756 10.8352 -0.066759
1569 3 5.18018 10.7087 1.71489
2070 1 7.16751 8.99483 1.75313
2579 2 7.12079 10.7625 0.0655572
3074 3 5.18725 9.15926 0.0274928
7 1 10.4384 9.11756 1.67306
578 3 10.9138 10.9337 0.231801
1076 2 8.69008 9.09351 -0.0458333
3571 2 8.85763 10.7463 1.70489
1571 2 12.5145 10.6529 1.93619
2071 1 14.3075 8.90114 1.82016
2582 3 14.3222 10.6563 0.133573
3076 3 12.3582 9.00396 0.105362
1078 1 16.245 8.87498 -0.0606448
2006 1 17.7749 8.96137 1.41262
2825 2 17.9082 10.6961 0.0641744
3573 1 16.0748 10.66 1.78368
8 1 -0.0567538 12.4937 1.80316
583 2 -0.0185149 14.2674 0.149783
1573 1 1.67178 14.3209 1.75859
3078 1 1.81947 12.5306 0.143167
9 1 7.05295 12.52 1.6264
585 1 7.32576 14.2386 -0.140524
1080 1 5.1629 12.7847 0.142759
2072 3 3.39749 12.6825 1.94455
2585 2 3.50387 14.2632 0.0731672
3574 1 5.24436 14.2207 1.87709
1574 3 9.10369 14.4282 1.68876
2073 2 11.1981 12.7319 1.82816
2586 1 10.6429 14.182 -0.0103948
3080 1 9.0383 12.5724 -0.0173771
10 3 14.1247 12.6639 1.87807
587 1 14.2715 14.5483 0.0464973
1082 3 12.6275 12.6704 -0.0932711
3575 1 12.4906 14.7279 2.20499
258 2 17.906 12.541 1.61544
771 2 17.8928 14.3944 0.0847223
1575 3 15.879 14.3981 1.66078
3082 1 16.0464 12.5851 0.398533
626 1 -0.0142752 18.0377 0.0202666
1084 2 1.62541 16.1715 0.0874503
1688 3 1.81833 17.8704 1.54712
2074 3 -0.0141356 16.3471 1.701
11 3 3.41668 16.0906 1.75968
630 3 7.15469 17.9238 -0.055481
2075 1 7.10889 16.0902 1.7692
2691 1 3.83054 17.6728 -0.105278
3084 1 5.23538 15.9894 0.0951903
3690 3 5.46276 17.7375 1.85012
12 2 10.7056 16.1714 1.79745
1086 2 8.6816 15.9455 -0.278062
1690 2 8.96548 17.8177 1.79928
2693 3 10.6929 17.8343 -0.145015
634 3 14.1746 17.8853 -0.0694536
2076 1 14.0941 16.3104 1.84947
3086 2 12.3551 16.2163 0.0876682
3692 2 12.2233 17.7997 1.65573
876 2 17.67 17.9092 -0.0551642
1088 1 15.974 16.2043 0.160958
1692 3 16.0666 17.9559 1.77615
2011 2 17.9266 16.1569 1.75276
13 3 0.0699061 1.77158 5.36614
588 1 -0.0485867 -0.157717 6.96823
1089 3 1.77071 1.93232 7.31087
2564 1 -0.0527648 0.142747 3.76143
3063 1 2.00906 1.9118 3.51322
3576 3 1.83751 0.0849931 5.25163
14 1 7.21752 1.90142 5.31857
564 3 3.65472 0.0828111 3.70363
1065 2 5.30572 1.97115 3.76796
1577 3 3.41315 -0.0555681 7.24475
1576 1 5.55158 -0.20907 5.42082
2078 2 5.29853 2.06904 7.08125
2077 1 3.73974 1.93117 5.46543
2589 2 7.21477 0.274073 7.01637
2567 1 7.356 0.155221 3.90342
566 3 10.8821 0.0183745 3.50897
2079 2 10.7115 2.01854 5.48167
3065 1 9.17947 1.7532 3.46851
3088 3 9.09655 2.04398 7.2501
3578 3 10.6139 0.136841 7.17611
3577 2 9.20004 -0.0680717 5.37895
15 3 12.3484 1.98625 7.04194
16 2 14.2923 1.86206 5.53487
589 1 14.2347 -0.0205808 7.0365
1067 2 12.5266 1.8646 3.54079
1578 1 12.45 0.0794083 5.41772
2568 3 14.284 -0.058533 3.80193
263 1 17.6133 1.4548 5.10518
776 1 17.6626 0.018117 7.43325
1090 3 16.1084 1.87541 7.15921
2815 2 17.8628 -0.251425 3.47567
3067 1 15.771 1.71827 3.65961
3579 2 15.941 -0.179361 5.43293
568 1 0.297875 3.45679 3.70546
1069 1 1.67089 5.27724 3.42728
1580 2 0.195228 3.78701 7.01607
1579 1 2.06588 3.71642 5.43886
2081 3 1.81474 5.52625 7.18389
2080 1 -0.136356 5.31272 5.44822
2591 2 0.0169473 7.26052 7.16057
2575 3 0.419439 7.18617 3.5142
3583 3 1.99992 7.14782 5.46543
17 1 3.55763 5.3482 5.33915
571 2 7.23107 3.46204 3.51619
592 3 7.33323 7.08924 7.19535
576 2 3.46309 6.71902 3.54461
1585 2 5.36758 7.07914 5.27589
2082 1 7.51267 5.25104 5.44983
2590 3 3.52628 3.81017 7.20185
2580 3 7.20328 7.12176 3.49996
2570 2 3.75016 3.82104 3.55002
3069 3 5.52581 5.4507 3.64659
3089 3 5.50756 5.3562 7.20057
3586 3 3.66523 7.07403 7.24978
3581 3 7.13745 3.50224 7.04095
3580 1 5.39633 3.82348 5.46013
18 3 10.6316 5.59788 5.65326
19 2 8.97586 5.57482 7.50129
590 3 10.9504 3.79725 7.00795
579 1 10.4208 7.39206 3.29164
1071 2 9.07227 5.50017 3.64818
1587 1 10.5092 7.50004 7.14679
1581 1 9.02243 3.62512 5.42065
2572 2 10.6106 3.60525 3.48368
3587 3 9.05114 7.18097 5.17445
572 3 14.2287 3.81275 3.55778
1091 3 12.3838 5.52244 7.17735
1589 1 12.4145 7.11778 5.16301
1583 1 14.3982 3.60837 6.80329
2083 3 14.3516 5.52779 5.29862
2593 1 14.2083 7.33622 7.0793
2583 2 14.6818 7.41316 3.3971
3071 2 12.2654 5.4434 3.64084
3582 1 12.5528 3.84265 5.20747
757 3 17.751 3.66565 3.60008
1073 1 16.2285 5.44612 3.58388
1768 3 17.987 3.62045 7.22852
1582 2 16.0561 3.77846 5.23607
2084 2 16.1525 5.50184 7.16415
2017 1 17.8856 5.4462 5.35265
2841 3 18.109 7.20649 6.89975
2826 3 17.7315 7.16096 3.47387
3589 2 16.23 7.20503 5.28423
20 3 -0.0626833 8.77294 5.3059
574 3 0.0653808 10.5589 3.45062
1584 1 1.78137 10.593 5.27681
3073 1 2.0981 8.87146 3.45732
3090 1 2.02182 8.91729 7.19209
3584 3 -0.00194116 10.5463 7.05432
21 2 5.52099 8.98184 7.06796
22 1 7.1132 9.05257 5.40327
591 1 3.80811 10.4716 7.09627
580 1 7.38026 10.9156 3.3341
1075 1 5.65286 8.99334 3.39697
1588 2 6.93288 10.8637 6.91421
2085 1 3.76374 8.96688 5.24962
2577 1 3.5249 10.9021 3.56406
3585 2 5.45826 10.7603 5.08756
1092 1 8.80702 9.0748 6.96685
1586 2 9.09035 10.7615 5.2963
2086 1 10.7119 8.87903 5.2894
2592 2 10.7911 10.79 6.91498
2581 2 10.8614 10.7128 3.45368
3075 1 8.78136 8.96079 3.51069
23 2 14.0517 9.03535 5.0117
582 3 14.3495 11.0021 3.49261
1077 1 12.4801 9.01748 3.29562
2087 1 12.4118 9.12138 6.9807
3590 1 14.3545 10.8161 6.89114
3588 2 12.4541 10.8281 5.25735
270 2 17.7942 8.90739 5.29447
764 2 18.2675 10.7091 3.12074
1590 3 16.2243 10.7462 5.34362
3091 2 15.9387 8.94269 6.95059
3077 1 16.0384 9.12492 3.55095
3835 1 17.8857 10.6023 7.04359
24 3 1.77947 12.313 7.08352
593 1 0.179687 14.3369 7.02714
1079 3 1.92012 12.6376 3.8955
2088 3 -0.0703358 12.5252 5.2965
2584 2 0.204469 14.3041 3.63279
3591 1 1.84924 14.4257 5.71223
25 2 3.68495 12.2521 5.58914
584 3 3.66487 14.3633 3.7812
1093 3 5.42872 12.5639 7.12674
1592 2 3.80209 14.2654 7.09836
1591 1 5.45784 14.2626 5.38155
2089 1 7.25979 12.3681 5.37475
2594 2 7.01396 14.361 7.19787
2587 3 7.31142 14.4409 3.52216
3079 2 5.40432 12.5943 3.62269
26 3 10.9459 12.609 5.2311
586 1 10.7269 14.663 3.76102
1081 1 9.35403 12.608 3.30701
2090 2 8.98256 12.581 7.05553
3593 2 10.6917 14.2201 6.98456
3592 2 9.00964 14.392 5.33147
594 2 14.521 14.2808 7.25647
1593 1 12.6206 14.4854 5.27507
2091 3 14.2079 12.7751 5.25617
2588 2 14.2551 14.5292 3.35473
3092 2 12.5266 12.7373 7.034
3081 2 12.5856 12.626 3.73551
27 3 16.0444 12.4522 7.15688
781 2 17.8086 14.317 7.02721
1083 1 16.2189 12.5614 3.32878
2025 2 17.85 12.4406 5.21567
2835 3 17.7835 14.339 3.57876
3594 1 16.1165 14.3252 5.21792
28 2 -0.0312826 16.213 5.41197
651 3 -0.0637231 17.8574 7.03848
1094 1 1.95321 15.9882 7.0972
2690 1 0.193645 17.8485 3.54625
3083 3 1.78777 16.1123 3.59715
3701 2 1.93929 17.7767 5.37373
29 3 7.10524 16.1181 5.31845
629 1 3.69334 17.9497 3.50022
1085 3 5.37515 15.8641 3.46318
1704 3 3.7859 18.075 7.0217
1703 1 5.2849 17.9886 5.29105
2093 1 5.14219 16.0017 6.89558
2092 3 3.54203 16.1851 5.24125
2715 2 7.14327 17.8207 6.92652
2695 2 7.35583 17.7983 3.55691
632 2 10.6182 18.0763 3.4959
2094 2 10.6827 16.4214 5.43834
3093 2 8.8454 15.9213 7.19393
3085 1 8.97202 16.2358 3.44197
3704 2 10.5148 17.9265 7.37267
3703 3 8.98909 17.8615 5.50624
30 1 12.4774 16.1883 7.0059
31 1 14.518 15.9571 5.33662
653 2 14.2772 17.7717 7.05356
1087 1 12.5772 16.5927 3.73026
1706 2 12.4785 18.0223 5.50513
2698 2 14.3618 18.2473 3.58236
278 1 17.987 16.1696 5.58277
901 1 17.8398 17.9478 7.29123
1095 1 15.9905 15.9733 7.10774
2878 2 18.0802 17.9409 3.45628
3087 3 16.0455 16.1745 3.52691
3707 3 16.1555 17.7402 5.31815
1594 2 1.72313 -0.0302719 8.93135
2095 3 -0.0118725 1.96383 8.84497
2595 1 0.00385355 0.13758 10.7831
3094 2 1.83084 1.71537 10.6299
33 3 7.09782 1.89121 9.07353
595 2 3.47329 -0.139458 10.6596
1096 1 5.45648 1.83302 10.883
2597 1 7.15012 0.255412 10.897
2596 3 5.53381 0.0188261 8.89614
3095 2 3.65274 1.69653 9.15076
596 2 10.9751 0.0824072 10.4528
1097 3 10.7782 1.901 9.17384
3096 1 8.99784 1.94322 10.6932
3596 3 8.86568 0.101714 8.81594
597 3 12.5338 0.125469 8.83206
1098 2 12.5427 2.04085 10.7038
2098 1 14.2195 2.08989 8.94283
2598 1 14.2367 0.0727849 11.0003
1597 2 15.6085 0.151507 8.97308
2032 2 17.6869 1.83502 8.91849
2845 1 17.8017 0.424204 10.7048
3097 3 15.9324 1.77284 10.8117
598 1 -0.00399669 3.47586 10.6126
1099 3 1.93012 5.5754 10.8376
2603 1 -0.306387 7.16343 10.7081
2599 1 1.7417 3.90045 8.85354
3098 3 0.0904592 5.61328 9.02834
3602 3 1.98139 7.33757 8.98004
36 3 3.59463 5.55404 9.08651
605 3 3.60852 7.28614 10.8207
604 1 5.76432 7.27011 9.09943
600 1 7.25201 3.61751 10.6864
1100 3 7.18747 5.17695 8.78352
2606 2 7.21919 7.1837 10.7832
2600 3 3.60522 3.54236 10.7034
3099 2 5.39145 5.51919 10.6818
3599 3 5.3984 3.53034 8.89899
606 2 10.6856 7.18377 10.7271
599 3 8.97641 3.52086 8.98137
1101 1 8.89703 5.32142 10.4598
1605 2 9.10416 7.41677 8.97751
2100 1 10.6459 5.39671 8.84976
2601 1 10.7562 3.54439 10.7773
601 1 14.2687 3.60766 10.6153
1600 3 12.6793 3.69403 8.72768
2609 1 14.1467 7.40906 10.7446
2608 2 12.5988 7.27028 9.03041
3101 3 14.488 5.60793 8.76799
3100 3 12.4252 5.29345 10.8127
786 2 17.9604 3.48355 10.6884
1102 2 16.0405 5.11431 10.6104
2853 1 17.6847 7.20188 10.6299
2602 2 15.9288 3.6272 8.82584
3348 1 17.8691 5.61432 8.81831
3608 1 16.2383 7.06683 8.96199
39 2 0.14939 8.92528 9.02287
603 3 0.00561949 10.6944 10.7143
602 3 1.90688 10.567 9.12355
3102 1 1.83425 9.03183 10.7514
607 3 7.335 11.0005 10.6986
1104 1 5.56871 9.18111 10.9392
1103 3 3.88573 8.98121 9.04432
1603 3 5.63309 10.898 8.98431
2104 2 7.30083 9.14517 8.95984
2604 2 3.72411 10.8324 10.9895
2607 2 10.5759 10.9961 10.6607
2605 1 8.97015 11.1713 8.84316
3104 3 9.01774 9.29179 10.5648
3103 1 10.8379 9.23177 8.86732
42 3 14.4487 8.96486 8.68383
609 1 14.4412 10.6994 10.8266
1105 1 12.3124 9.13392 10.6575
3606 3 12.6758 10.703 8.70957
289 2 17.8171 9.3202 8.7959
792 1 17.7426 10.7737 10.7007
608 3 15.8916 10.7459 8.9006
3105 3 16.1025 8.91199 10.557
1107 2 1.81209 12.6236 10.5588
1106 1 0.0791326 12.2271 8.9809
1609 2 1.80149 14.1169 8.74561
2610 2 0.234176 14.428 10.6295
610 3 3.45712 14.3177 10.6017
2107 1 3.54148 12.4451 8.81379
2612 3 7.30262 14.6317 10.858
2611 1 5.3506 14.211 8.85421
3107 1 7.10157 12.8846 8.98454
3106 2 5.3574 12.6064 10.7564
45 1 10.5845 12.4734 8.76757
611 2 10.691 14.4604 10.5521
1108 3 9.02934 12.8396 10.9451
3611 1 9.06618 14.3725 8.92665
612 1 12.5683 14.3535 8.60009
1109 3 14.3758 12.5567 8.89472
2613 3 14.4069 14.2268 10.5502
3108 2 12.4669 12.4892 10.456
1293 3 18.0267 12.3794 8.90476
1110 2 15.9898 12.4829 10.7392
1612 1 16.2918 14.3015 8.98076
2860 3 18.0686 14.217 10.7516
1719 2 1.97974 17.8618 8.83545
2110 3 0.0615982 16.0708 9.06445
2721 3 0.199668 17.9388 10.7761
3109 1 1.84911 16.1295 10.5365
48 1 7.22843 16.1927 8.78693
659 2 3.64901 17.9564 10.6407
1111 2 5.4784 16.2668 10.9283
2724 2 7.31634 17.8495 10.746
2722 1 5.40286 17.8459 8.91749
3110 3 3.74158 16.344 8.65684
661 3 10.7213 17.8972 10.7505
1112 2 10.64 16.0479 8.90195
3111 1 9.12753 16.0361 10.6879
3723 1 8.97057 18.0424 8.97602
663 1 12.6576 17.8059 9.01602
1113 1 12.5592 16.0697 10.6401
2113 3 14.4236 16.149 9.05363
2727 2 14.1142 17.8334 10.9105
1725 1 16.1018 17.9261 8.90611
2047 3 17.9123 16.0612 8.90002
2908 2 17.9691 17.6441 10.7948
3112 3 16.2805 15.7942 10.5794
32 2 0.173747 1.9196 12.5666
613 1 0.0204617 0.00139514 14.6996
1114 2 1.73534 1.82655 14.3689
3595 3 1.80498 0.177654 12.4373
34 1 7.18306 1.89545 12.6932
614 3 7.22622 -0.00691048 14.2525
1595 2 5.4406 0.139146 12.4026
2096 1 3.70034 1.65009 12.4672
2614 2 3.62161 -0.0143081 14.2643
3113 2 5.3564 1.88821 14.1371
1115 2 8.94704 1.7799 14.4449
2097 2 10.7534 1.69063 12.4538
2615 1 10.5076 0.0837958 14.4146
3597 1 8.87994 0.127877 12.6504
35 2 13.9674 1.78539 12.5409
615 1 14.0874 0.103698 14.3003
1596 3 12.4676 -0.0312189 12.431
3114 1 12.4598 2.00758 14.4041
282 2 18.0014 1.95435 12.3995
801 2 18.0473 -0.00387458 14.0719
1116 3 16.0502 1.92066 14.2161
3598 1 16.0461 0.0939079 12.6537
618 2 0.203882 7.22658 14.5158
1598 1 1.8434 3.61223 12.8459
2099 1 0.101663 5.39587 12.7627
2616 2 -0.0190479 3.5346 14.3725
3115 3 1.89018 5.34322 14.3818
3603 3 1.70333 7.02392 12.6793
37 1 3.56407 5.55335 12.5676
620 3 7.33051 6.97941 14.2874
616 3 3.60296 3.76861 14.2362
1117 3 5.40634 5.41354 14.3334
1604 1 5.5777 7.1218 12.6346
2101 1 7.28379 5.22588 12.2724
2620 2 3.79692 6.9983 14.4836
2617 2 6.98872 3.6927 14.2165
3600 3 5.49676 3.70906 12.3561
38 3 10.762 5.12263 12.4353
617 3 10.8653 3.56488 14.6042
1599 1 9.06664 3.39123 12.4992
2621 2 10.7832 7.27083 14.0979
3116 3 9.15877 5.33828 14.1548
3605 2 9.00976 7.18748 12.3709
622 2 14.3401 7.28449 14.3113
1118 3 12.504 5.31892 14.3367
1607 1 12.4898 6.98962 12.4233
2102 1 14.2438 5.19328 12.3059
2618 3 14.3274 3.74722 14.1786
3601 2 12.4136 3.50106 12.3855
806 2 17.779 7.41263 14.1593
1601 1 16.1559 3.56649 12.4705
2036 1 17.7892 5.48227 12.3155
2866 3 17.6887 3.68425 14.2263
3117 1 16.2225 5.57685 14.279
3609 2 15.8988 7.06916 12.3911
40 3 0.379974 8.88857 12.5568
1119 1 1.96064 8.82681 14.7242
1602 3 1.8012 10.8055 12.4883
2619 3 0.198069 10.8001 14.4142
41 2 7.31158 9.25011 12.3687
619 3 3.55159 10.9054 14.4222
2103 1 3.51834 8.98051 12.6354
2622 3 7.22606 10.8548 14.1105
3118 1 5.29405 9.17201 14.202
3604 1 5.53692 10.8987 12.5114
621 1 10.9936 10.703 14.2574
1120 2 9.12305 8.84453 14.0604
1606 1 9.07752 10.6269 12.6133
2105 2 10.7882 8.8824 12.4756
43 2 14.4195 9.00284 12.3064
2623 3 14.4134 10.9107 14.2236
3119 1 12.8194 9.01482 13.9867
3607 2 12.8242 10.8491 12.4811
290 2 17.7463 9.17492 12.205
1121 1 15.957 8.95465 14.1595
1608 3 16.1737 10.8833 12.4306
2870 2 17.9268 10.8935 14.374
623 2 0.0996204 14.5154 14.5467
2106 2 0.234274 12.5291 12.5072
3120 3 1.84798 12.6278 14.3252
3610 3 1.76653 14.353 12.6493
44 2 3.47412 12.8632 12.4119
624 1 7.19906 14.4115 14.4282
1122 2 5.28162 12.8202 14.3036
1610 2 5.26377 14.3749 12.5021
2108 3 7.13055 12.9286 12.384
2624 2 3.67345 14.4836 14.3038
46 3 11.0125 12.5436 12.4576
2625 1 10.8237 14.2328 14.389
3121 3 9.07346 12.6148 14.078
3612 3 9.14126 14.5056 12.6286
625 1 14.4941 14.4573 14.1776
1123 3 12.636 12.2971 14.3852
1611 2 12.6825 14.3242 12.3403
2109 1 14.2207 12.7846 12.3306
811 2 17.9361 14.3905 14.2019
2044 2 17.9307 12.5552 12.4726
3122 2 16.0632 12.5762 14.4383
3613 1 16.2 14.2174 12.4989
47 1 0.163747 16.161 12.5554
676 1 0.00357495 17.8691 14.2843
1124 3 1.89994 16.0546 14.2135
3720 2 1.89579 18.0451 12.5308
49 1 7.17586 16.2334 12.6344
678 2 7.47372 17.7531 14.4256
1721 2 5.47755 18.0876 12.7449
2111 3 3.60634 16.1752 12.4408
2740 1 3.62434 17.888 14.3265
3123 3 5.47282 16.0704 14.4219
1125 3 8.9982 15.9948 14.4631
2112 2 10.802 16.0085 12.6081
2741 3 10.7401 17.7873 14.4203
3724 1 9.22052 17.866 12.6395
50 3 14.1361 16.0226 12.4655
680 3 14.2941 17.5461 14.5321
1724 3 12.246 17.786 12.4403
3124 3 12.6047 15.9695 14.3517
297 1 18.0481 16.1996 12.5099
926 3 17.7072 18.1019 14.6319
1126 3 16.1318 16.2011 14.4415
3726 2 15.9432 17.5621 12.2935
1613 2 1.81707 0.255058 16.09
2114 1 0.208681 1.76608 16.1587
2626 3 0.16508 0.00582219 17.8833
3125 3 1.86298 2.07156 17.8023
51 1 3.73171 1.82403 16.131
502 2 3.69084 0.0552521 18.1072
1128 2 5.46392 1.85177 18.0048
2115 1 7.31133 1.9483 16.0714
2628 1 7.17237 0.0502804 17.9346
3614 1 5.337 0.14064 16.1047
52 2 10.5534 1.85224 16.2712
503 1 10.5743 0.344974 18.1541
1614 2 9.03583 -0.0810623 16.1985
3127 2 8.79793 1.80584 17.9019
1130 1 12.2883 2.01495 17.88
2116 3 14.3411 1.83025 16.1654
2630 1 14.104 0.176199 18.0467
3615 3 12.2389 0.14851 16.4355
1615 1 16.1134 0.295414 16.217
2051 1 17.7166 1.83043 16.1573
2501 2 17.672 0.116378 17.8464
3129 2 16.1282 1.94692 17.8615
53 1 -0.144442 5.4543 16.0655
506 3 0.0713229 3.65362 17.8084
1132 3 2.15744 5.38426 17.775
1618 1 2.28421 7.01558 16.1971
2636 2 0.198931 6.91819 17.7361
3616 1 1.93429 3.71912 15.9415
54 3 7.04779 5.47537 16.0657
508 1 7.33584 3.76149 18.0451
513 1 3.96961 7.26191 18.0179
1616 1 5.46322 3.49234 16.4195
2117 1 3.95685 5.1938 16.0618
2640 1 7.28834 7.10885 17.9308
2632 3 3.7081 3.4056 17.9984
3131 3 5.57171 5.42413 17.9205
3620 1 5.51728 7.22511 16.0499
515 2 10.7347 7.287 17.6702
1134 3 8.96188 5.41754 18.0342
1620 1 8.91408 7.41164 16.2104
2118 3 10.6732 5.51786 16.1411
2633 3 10.6944 3.70413 17.8443
3617 2 8.85123 3.73147 16.3289
55 1 14.408 5.21115 16.0417
510 3 14.1228 3.76255 18.003
1617 2 12.6287 3.61023 16.2365
2644 2 14.6162 7.33209 17.7353
3133 3 12.6273 5.51183 17.9417
3622 1 12.4597 7.18674 16.1347
303 1 18.0228 5.49183 16.0524
819 2 17.9223 3.70995 17.8055
1136 1 16.1067 5.56517 17.6255
1622 3 16.0417 7.45409 15.9236
2511 1 17.9166 7.32217 17.714
3618 1 16.1957 3.70538 16.1197
511 3 0.344056 10.8957 17.8508
2119 1 0.029807 8.944 16.1318
3135 1 1.8702 8.92221 17.4973
3619 2 2.15109 10.7334 16.0329
56 3 3.91813 8.97941 16.2248
516 1 7.29089 10.8473 17.7281
1138 2 5.95768 8.97823 17.6922
1619 3 5.41389 10.7532 16.1461
2120 1 7.31815 8.97887 15.9992
2638 1 3.67756 10.6387 17.9061
57 1 10.8676 8.77995 15.9508
2641 3 10.8917 10.5873 17.8219
3137 2 8.95719 9.07068 17.9267
3621 3 9.17012 10.6065 15.871
519 1 14.1522 10.6611 18.0897
1140 1 12.5091 9.07617 18.013
1621 2 12.5231 10.6602 16.2649
2121 3 14.1238 8.99594 16.0419
825 2 18.1964 10.7385 17.6669
2056 2 17.9601 9.14301 15.8206
3139 2 16.2567 9.04254 17.7666
3623 1 16.1584 10.7671 16.1397
58 2 -0.0125551 12.7106 16.1723
1142 1 2.06881 12.6551 17.8976
1623 1 2.02579 14.4977 16.0787
2646 3 0.0126122 14.4237 17.7982
59 3 7.25949 12.3928 16.1019
522 2 3.58829 14.3891 18.0837
2122 3 3.64614 12.6442 16.0577
2648 1 7.22768 14.2778 17.6853
3141 3 5.4016 12.5094 17.7328
3624 2 5.25338 14.2915 16.2303
523 3 10.9204 14.319 17.7294
1144 1 9.16736 12.5749 17.8051
1624 2 9.06786 14.3877 15.9659
2123 2 10.7345 12.5617 15.8938
60 1 14.3935 12.235 16.0242
2650 2 14.2421 14.2962 17.991
3143 1 12.4096 12.3812 17.7969
3625 2 12.5769 14.1102 16.0172
308 3 17.862 12.799 15.983
1146 1 16.1266 12.5177 17.777
1625 2 16.2049 14.5635 16.0838
2521 2 17.8021 14.1918 17.716
1738 3 1.88386 18.2552 16.0358
2124 2 0.0685508 16.4509 16.1644
2751 1 0.18192 17.8815 18.1306
3145 2 1.73401 15.9039 17.8842
61 1 3.55488 16.1574 16.2248
691 1 3.47787 17.6707 17.9446
1148 2 5.43185 15.8815 17.8269
2125 2 7.30253 16.0757 16.1001
2755 2 7.3069 17.6241 17.9846
3740 1 5.4767 17.9437 16.3138
62 1 10.9371 16.1131 16.2758
693 2 10.735 17.7999 17.8099
1740 1 8.90659 17.928 16.1706
3147 1 9.09346 15.9874 17.7047
1150 1 12.6027 16.2836 17.818
2126 2 14.2173 15.9817 16.2332
2759 1 14.2691 17.9754 18.0281
3742 2 12.4052 18.1811 16.0333
1742 2 15.9134 18.0345 16.2458
2061 3 18.0972 16.1456 16.0816
2938 3 17.9681 17.9682 18.0043
3149 2 16.209 16.0907 18.0796
501 1 -0.0717525 -0.152961 21.5356
63 1 0.160559 1.72643 19.8716
1127 2 1.89448 2.07409 21.6117
3626 3 1.86775 0.290604 19.5779
504 1 7.19698 0.163398 21.4678
64 2 7.19598 1.75765 19.699
1626 2 5.42754 0.183496 19.8148
2127 1 3.6893 1.8263 19.8317
2627 3 3.44366 0.0468522 21.5448
3126 2 5.46749 1.72136 21.4158
1129 1 8.95563 1.82127 21.4982
2128 2 10.7627 1.8966 19.9481
2629 1 11.0228 0.118222 21.4541
3627 2 9.10867 0.108012 19.7309
505 2 14.3321 0.0846666 21.6787
65 3 14.2679 1.93262 19.6922
1627 1 12.6786 0.31629 19.8886
3128 1 12.6521 1.90079 21.7159
815 3 17.6666 -0.11511 21.5078
313 1 17.6571 1.94661 19.7273
1131 1 15.8298 1.87054 21.6097
3628 3 15.991 0.0569342 19.7911
512 1 0.120665 7.04731 21.4771
1628 1 1.74741 3.71339 19.727
2129 2 0.421277 5.37501 19.5027
2631 3 0.00202958 3.5629 21.4981
3130 1 1.93889 5.30772 21.6182
3631 1 1.83672 7.10309 19.609
507 3 3.53957 3.5528 21.4565
517 2 7.32151 7.25533 21.6564
66 3 3.78106 5.48403 19.7731
1133 2 5.31103 5.46941 21.4856
1632 1 5.71931 7.21953 19.8273
2130 1 7.31303 5.32794 19.994
2639 2 3.63926 7.37731 21.2736
2634 1 7.37468 3.34649 21.6855
3629 3 5.40777 3.64997 19.9878
509 3 10.8461 3.66774 21.7862
67 1 10.7805 5.407 19.67
1629 2 9.01957 3.7276 20.0293
2642 1 10.8061 7.122 21.4567
3132 1 9.14514 5.37422 21.5701
3633 1 8.99704 7.33265 19.7502
520 2 14.2963 7.16588 21.4068
1135 3 12.5992 5.42447 21.2831
1634 2 12.6946 7.44958 19.398
2131 1 14.3928 5.53172 19.6523
2635 2 14.4819 3.73462 21.3973
3630 2 12.5707 3.73367 20.0227
826 1 17.934 7.16572 21.5427
1630 2 16.1443 3.7124 19.5951
2316 1 18.065 5.34183 19.3604
2507 3 17.8286 3.67886 21.3932
3134 2 15.979 5.42913 21.5399
3635 2 16.1396 6.90776 19.5344
68 2 0.192525 8.79423 19.4093
1137 1 1.76888 8.75588 21.2899
1631 3 1.98289 10.6388 19.5878
2637 3 0.0192663 10.5411 21.1072
514 1 3.74263 10.5824 21.3123
69 2 7.29007 8.88193 19.7558
2132 3 3.94432 9.12564 19.5001
2643 3 7.23796 10.7401 21.274
3136 3 5.49224 8.96032 21.438
3632 2 5.48034 10.8358 19.5063
518 1 10.6835 10.8875 21.4838
1139 2 9.08075 8.82074 21.6627
1633 2 9.14039 10.8455 19.6088
2133 2 10.6982 9.15344 19.7668
70 1 14.4779 8.94101 19.8031
2645 3 14.7268 10.7538 21.5027
3138 2 12.587 8.87026 21.4464
3634 2 12.6982 10.4844 20.0241
318 1 18.0998 8.87199 19.5451
1141 2 16.0994 8.89758 21.3996
1635 2 16.1581 10.5555 19.4302
2514 1 17.8374 10.581 21.3035
521 3 -0.0916959 14.298 21.455
2134 1 0.0470626 12.6429 19.7181
3140 1 2.1015 12.3407 21.4648
3636 2 1.88318 14.3132 19.6912
524 2 7.37465 14.4204 21.4362
71 2 3.69362 12.4954 19.5096
1143 2 5.40556 12.2878 21.365
1636 2 5.3129 14.0964 19.6461
2135 2 7.2918 12.3926 19.4782
2647 2 3.71021 13.8867 21.4755
72 3 10.8235 12.6279 19.6328
2649 1 10.8967 14.3061 21.5907
3142 2 8.91243 12.5565 21.2701
3637 1 8.97206 14.3106 19.6409
525 3 14.3795 14.4632 21.553
1145 3 12.4635 12.298 21.3659
1637 1 12.4582 14.5384 19.8376
2136 3 14.203 12.4963 19.639
835 1 17.8394 14.2685 21.2865
2321 3 18.0109 12.6121 19.5242
3144 2 16.4265 12.4681 21.1869
3638 1 15.9482 14.2569 19.5321
690 2 -0.163792 17.7954 21.589
73 2 0.00856473 16.1387 19.6005
1147 3 1.62237 15.8532 21.6237
3751 3 1.79461 17.6523 19.723
695 3 7.08781 17.7891 21.1948
74 1 7.04167 15.8161 19.7964
1502 3 5.48206 17.7118 19.4768
2137 1 3.58963 16.1888 19.7639
2754 3 3.47025 17.85 21.5404
3146 2 5.43975 15.9957 21.2935
1149 3 8.97472 16.1555 21.4267
2138 3 10.7265 16.152 19.5835
2757 3 10.7434 18.0484 21.6769
3753 1 8.98615 17.9336 19.555
698 1 14.3605 17.7081 21.5591
75 3 14.4422 16.0771 19.5142
1504 3 12.2605 17.9992 19.6111
3148 3 12.6155 16.2028 21.6445
941 1 17.7445 18.0818 21.5084
323 2 17.8596 16.1238 19.4936
1151 3 16.1602 16.1058 21.4366
3755 2 16.1088 18.0679 19.5
1638 1 1.92519 0.254218 23.4698
2139 3 0.0410538 1.7716 23.3102
2651 2 -0.134369 0.0507933 24.9167
3150 1 1.72516 1.74317 25.1093
526 1 7.2031 0.180944 25.0406
77 1 5.47261 1.84216 25.045
76 2 3.7041 1.83952 23.2998
2140 2 7.26138 1.73347 23.4249
3640 3 3.79282 -0.0210991 25.0535
3639 1 5.32303 -0.0438793 23.344
78 2 10.8953 1.87872 23.301
1152 3 9.07913 1.93237 25.1738
1640 2 10.9075 0.173838 25.0341
1639 1 8.86457 0.252517 23.6291
2142 1 14.3456 1.79249 23.4349
2141 1 12.425 1.87647 25.5163
2652 3 14.2331 -0.0268895 25.0269
3641 2 12.4885 -0.11429 23.3374
1641 3 16.3621 -0.0686104 23.2097
2326 1 17.5941 2.00825 23.0075
2526 1 17.9489 -0.00673874 24.9978
3151 3 15.9557 1.60778 25.0306
528 1 0.0620981 7.20095 24.921
80 3 1.6687 5.50107 24.8589
79 3 -0.311262 5.28952 23.1462
1645 1 1.70772 7.09414 23.0733
3643 2 0.0471082 3.49922 25.0603
3642 1 1.8895 3.5945 23.3139
527 3 3.48418 3.48115 25.0473
81 3 7.20557 5.45354 23.3055
1153 3 5.35595 5.63473 25.3278
1648 3 3.52606 7.30461 24.9809
1643 1 7.21168 3.66087 25.0583
1642 3 5.45807 3.86873 23.2595
2143 1 3.61903 5.3949 23.5706
2655 3 7.22975 7.39223 25.0334
3648 1 5.44927 7.10922 23.1708
1649 1 9.10179 7.18392 23.3313
2145 2 9.07038 5.48516 25.1864
2144 2 10.8113 5.56806 23.4495
2653 2 10.8347 3.56529 25.1476
3650 3 10.7237 7.2585 25.1687
3644 2 9.33451 3.63997 23.487
530 3 14.1925 7.10049 24.9991
82 1 14.2337 5.2314 23.3153
1644 2 12.75 3.48355 23.5707
3152 3 12.3587 5.4643 25.1959
3652 3 12.4803 7.12277 23.1696
3646 2 14.2292 3.36101 25.3808
841 3 17.8712 7.05433 25.2211
329 1 17.8342 5.2822 23.2864
83 3 16.0863 5.50981 25.0282
1651 1 16.2094 7.24912 23.1999
3893 3 17.5777 3.4737 25.0897
3645 2 15.7841 3.59693 23.3029
1154 3 1.78139 8.9613 24.9558
1646 1 -0.0613991 10.709 25.0897
2146 2 -0.160466 8.75471 23.1134
3647 3 1.91748 10.3612 23.1264
84 3 3.61518 8.78805 23.0937
1647 3 5.43647 10.8774 23.2454
2148 2 7.25225 9.16266 23.2767
2147 3 5.49323 8.8982 25.0206
2654 3 3.37791 10.4753 25.1135
3651 1 7.21438 10.8534 25.2701
529 1 10.8719 10.6772 25.1366
85 2 10.8009 9.03577 23.4089
3153 2 9.09736 8.89149 25.0431
3649 1 8.96044 10.5412 23.4206
86 1 12.4792 8.94152 25.1869
1652 2 14.2107 10.6799 25.1204
1650 1 12.6884 10.5483 23.3742
2149 1 14.3702 8.84971 23.1911
1155 3 16.0984 8.67522 25.0466
1835 1 17.8372 10.9142 24.9976
2333 3 18.0441 9.08305 23.2838
3653 2 15.9437 10.4286 23.5082
87 3 0.0814071 12.3525 23.1218
1653 1 1.76121 14.088 23.2196
2150 1 1.68823 12.4989 24.9427
2656 3 -0.0799507 14.1655 24.7897
531 1 7.11083 14.2144 25.1677
88 1 7.26508 12.3285 23.2295
2151 2 3.54499 12.3134 23.4724
3154 2 5.30968 12.4257 25.11
3655 3 3.48365 14.1392 24.8765
3654 1 5.38262 14.1711 23.1497
89 1 9.05654 12.7675 25.0302
1655 2 10.6752 14.4271 24.8779
1654 3 9.05456 14.1174 23.0602
2152 3 10.8552 12.371 23.2821
90 3 14.5657 12.4076 23.1693
1156 1 12.3309 12.5968 25.241
2657 3 14.1993 13.9864 24.9657
3656 2 12.9161 14.1763 23.388
337 3 17.9319 12.3846 23.1802
1656 1 16.3684 14.3297 23.2385
2153 1 16.2868 12.3155 25.0838
2531 2 17.9808 14.2495 24.9767
1513 3 1.8433 17.8083 23.2482
2154 1 0.0522637 16.0003 23.4309
2776 2 -0.0664715 17.8064 24.9508
3155 2 1.74558 16.0718 25.0966
715 3 6.98684 17.9667 25.1194
92 2 5.40452 15.9175 24.8769
91 3 3.47444 15.8514 23.0441
2155 1 7.26409 16.0328 23.1337
3767 1 3.37538 17.8499 24.9578
3766 3 5.48787 17.736 23.1996
93 1 10.6408 16.1 23.3024
1157 2 8.92315 16.0859 24.8474
1515 2 8.89818 18.0605 23.1112
1516 1 10.7035 17.913 24.8787
2157 1 14.2809 16.2525 23.3395
2156 3 12.4059 16.0743 25.05
2778 3 14.3767 18.0129 25.0974
3769 2 12.6463 17.9783 23.4128
1519 3 16.1742 17.9082 23.307
2341 1 18.0573 15.966 23.1677
2963 1 17.8994 17.9263 24.9656
3156 2 16.1905 16.2005 25.0833
532 1 0.150848 0.137618 28.7189
94 2 -0.0650835 1.74374 26.9327
1158 1 1.67776 1.96766 28.4908
3657 3 1.73482 -0.108218 26.7697
533 1 5.63703 0.0384981 26.7291
534 1 7.37997 -0.0559381 28.79
1159 2 3.6118 1.84139 27.009
2159 2 7.03625 1.74794 26.9419
2658 3 3.75078 -0.0551538 28.5365
3157 1 5.31477 1.53784 28.6314
1160 2 8.84907 1.7532 28.765
1658 1 9.13033 -0.130239 26.8189
2659 2 10.6444 -0.117199 28.5931
3158 1 10.596 1.87984 26.9589
535 2 14.6689 0.00378864 28.6074
97 2 14.3289 1.73496 26.9988
2660 3 12.4989 0.105166 26.9161
3159 1 12.4165 1.6497 28.6457
845 2 17.7815 -0.0343259 28.6453
344 2 17.8053 1.57652 26.7821
1161 2 16.1949 1.96702 28.7793
3660 3 15.9981 -0.0401403 26.7283
536 3 1.73434 3.65784 26.8833
540 2 0.0261419 6.90993 28.7068
1162 3 -0.0960806 5.41953 26.7869
1664 1 1.51668 7.05391 26.8779
2661 1 -0.114575 3.88654 28.6329
3160 3 1.9098 5.26031 28.5376
537 2 3.76801 3.60961 28.6052
543 3 7.34239 7.43218 28.6552
1163 2 5.47557 5.28216 28.3193
1661 1 5.46695 3.42971 26.6874
2162 1 3.6829 5.26729 26.6958
2668 2 3.31161 7.2221 28.3895
2667 1 5.56073 7.1984 26.9655
2663 2 7.04593 3.37965 28.5389
3161 3 7.21223 5.58111 26.905
538 3 10.6344 3.62082 28.7764
99 2 10.8348 5.4091 26.9824
2669 3 10.7691 7.1322 28.6777
2662 3 8.9191 3.51903 26.9677
3162 1 8.92189 5.39423 28.5988
3668 3 9.06522 7.19942 26.8989
545 2 12.3766 7.04127 26.9305
546 3 14.4077 6.85438 28.5854
1165 1 14.3542 5.26538 26.7743
1164 1 12.4507 5.18832 29.1826
2664 2 14.2503 3.53624 28.9396
3663 3 12.578 3.73776 27.0044
853 2 17.9943 7.05421 28.6347
539 1 15.9389 3.56039 27.0304
1349 1 17.8003 5.27189 27.0449
1670 1 16.1295 6.97637 27.0281
2536 3 18.0118 3.42631 28.7624
3163 2 16.2742 5.20945 28.7975
1166 3 1.57995 9.07169 28.4842
2165 3 -0.00382945 9.16184 26.7928
2666 1 -0.142945 10.8309 28.7261
2665 2 1.76203 10.9231 26.7686