ITEM: TIMESTEP
5000
ITEM: NUMBER OF ATOMS
4000
ITEM: BOX BOUNDS pp pp pp
1.1457182411654898e-01 3.5619488175883518e+01
1.1457182411654898e-01 3.5619488175883518e+01
1.1457182411654898e-01 3.5619488175883518e+01
ITEM: ATOMS id type x y z
563 1 0.272963 0.138774 0.251894
1064 2 1.88587 1.92852 0.123637
1563 1 1.94847 0.297723 2.18982
2064 2 0.183142 1.93694 1.84811
1 2 3.69927 2.00491 1.94158
565 2 7.11431 -0.0146334 0.188423
2065 1 7.37716 1.83786 1.88454
2565 1 3.57575 0.1512 0.241295
3064 3 5.49706 1.74866 0.201292
3564 3 5.44827 0.143831 1.98824
2 2 10.7383 1.84289 1.92567
1066 2 8.96318 2.03492 0.0633484
1564 1 8.86396 0.201123 1.81821
2566 2 10.7623 0.0670043 -0.00617784
567 1 14.4103 -0.0348303 0.142016
2066 3 14.3338 2.07843 1.88087
3066 1 12.5816 1.89384 0.150482
3565 3 12.6508 0.0838172 1.73619
751 3 17.7223 0.0705598 0.0245546
1068 1 16.0275 1.73435 0.179742
1565 2 15.9602 0.0934919 2.01593
2001 1 18.0513 1.93646 2.06897
3 3 0.0458665 5.50406 1.85037
573 2 0.151338 7.2967 -0.00487135
1568 1 1.9618 7.16437 2.02287
2569 2 0.140206 3.69824 0.0888908
3068 3 1.96997 5.4254 -0.0316411
3566 1 1.97295 3.68948 1.85302
4 2 7.24144 5.49822 1.95051
569 2 3.66261 3.53142 0.11391
577 3 7.23892 7.35791 0.244979
1070 1 5.55108 5.44948 0.199529
1566 2 5.47189 3.64798 1.89723
2067 2 3.67147 5.54286 1.85585
2576 3 3.82274 7.20696 0.0867834
2571 3 7.1614 3.6479 0.163951
3570 2 5.46691 7.06206 1.97948
570 3 10.708 3.68937 0.158039
1570 1 9.08619 6.98777 1.93048
2068 2 10.7502 5.445 1.9217
2578 3 10.6895 7.09412 0.0651716
3070 1 8.85354 5.37079 0.0317738
3567 3 8.91658 3.6549 2.10095
5 1 14.3937 5.27263 2.06442
581 1 14.318 7.20075 0.236984
1072 1 12.6801 5.47763 0.227203
1567 3 12.4326 3.72736 1.86839
2573 3 14.4182 3.85463 0.148623
3572 1 12.3296 7.37232 1.99447
253 1 17.9062 5.51196 1.8215
761 2 17.9243 7.29285 0.125955
1572 2 16.0166 7.26283 1.92108
2819 3 17.855 3.68216 0.0414476
3072 2 16.0397 5.59738 -0.00896952
3568 1 16.255 3.7292 1.89066
1074 3 1.98299 8.95716 0.324759
2069 3 0.109621 8.95985 1.76445
2574 2 0.182662 10.6698 0.106425
3569 2 1.80617 10.6776 1.86228
6 3 3.82062 9.02524 1.92888
575 3 3.71963 10.8168 0.0591131
1569 3 5.443 10.7623 1.90621
2070 2 7.1409 9.01763 1.83719
2579 2 7.25976 10.8038 -0.0988596
3074 2 5.58163 8.93819 -0.0938888
7 3 10.5996 8.78884 1.86474
578 2 10.7927 10.9196 -0.0103332
1076 3 9.09182 9.00989 0.115162
3571 3 8.96003 10.5946 1.95774
1571 1 12.5291 10.6493 1.6787
2071 3 14.4537 9.13044 2.04615
2582 1 14.4024 10.5535 0.334077
3076 3 12.3644 8.73853 0.147061
1078 1 16.2198 9.08191 0.17181
2006 1 17.8095 8.95715 1.99768
2825 3 17.968 10.8483 0.124368
3573 3 16.1321 10.8457 2.04784
8 1 0.17034 12.6349 1.831
583 2 0.250288 14.231 0.287763
1573 3 2.11515 14.3287 1.7729
3078 2 1.95334 12.4216 0.272181
9 1 7.33132 12.5791 1.78352
585 1 7.25522 14.1534 0.114359
1080 2 5.56527 12.6512 0.0741248
2072 1 3.55128 12.5617 1.83095
2585 1 3.7095 14.2232 0.0513154
3574 2 5.56886 14.1579 2.09685
1574 2 9.06482 14.33 1.84283
2073 1 10.6545 12.6172 1.71711
2586 1 10.6962 14.4872 -0.0337728
3080 1 9.0323 12.5487 0.0403498
10 3 14.2801 12.6029 1.78478
587 3 14.2707 14.165 0.149495
1082 1 12.3748 12.5237 0.217357
3575 2 12.4691 14.381 1.85899
258 1 17.9158 12.5498 1.98519
771 2 17.9155 14.2765 0.354084
1575 1 16.1648 14.2579 1.92337
3082 3 16.1147 12.436 0.128574
626 1 0.0514625 17.8603 0.335144
1084 2 2.05574 16.2694 0.178268
1688 2 1.94749 17.8711 1.98767
2074 1 0.154343 16.0625 1.79967
11 3 3.86878 15.8827 1.848
630 2 7.16043 17.6357 0.00804367
2075 1 7.07067 15.8585 1.88023
2691 1 3.79311 17.9224 0.155673
3084 3 5.61227 15.9867 0.137409
3690 3 5.62633 17.9959 2.13164
12 1 10.743 16.0575 2.08865
1086 1 8.83772 16.0354 0.180128
1690 3 8.90157 17.7724 1.98599
2693 3 10.7912 17.8051 0.143746
634 2 14.3759 17.7952 0.0787547
2076 1 14.285 16.2267 2.05693
3086 1 12.6699 16.0146 0.303467
3692 2 12.5712 17.9057 1.89348
876 2 17.7353 17.9639 0.182581
1088 2 16.1002 15.9676 0.0834098
1692 2 16.1104 18.0048 1.98028
2011 1 17.6747 16.109 1.82276
13 3 0.0479868 1.9255 5.49965
588 2 0.298509 0.199252 7.18996
1089 1 1.87311 1.93177 7.2103
2564 1 0.164761 0.181668 3.55434
3063 1 1.72183 2.07326 3.65801
3576 2 1.87949 0.0252585 5.39107
14 2 7.08232 1.98294 5.35879
564 1 3.6662 0.103454 3.7832
1065 2 5.49953 1.91692 3.63638
1577 2 3.4041 0.0650682 7.14404
1576 1 5.26067 0.262577 5.45938
2078 1 5.28755 1.86033 7.18196
2077 3 3.47736 2.13412 5.41316
2589 3 7.07626 0.0886588 7.1369
2567 3 7.25072 0.137402 3.71146
566 2 10.8017 -0.107459 3.4164
2079 1 10.9415 1.60273 5.47816
3065 2 8.98586 1.66171 3.88551
3088 3 8.84447 2.03377 7.10761
3578 2 10.6912 0.0216114 7.16331
3577 1 8.94173 0.0118456 5.47843
15 1 12.6387 1.88413 7.20365
16 1 14.3164 1.81413 5.45972
589 3 14.1979 0.102461 7.09177
1067 3 12.6378 1.85634 3.56953
1578 2 12.4931 0.147328 5.43138
2568 1 14.416 0.12804 3.66906
263 3 18.064 1.91878 5.40201
776 3 17.8504 0.112641 7.18919
1090 2 15.9161 1.78455 7.35929
2815 2 17.9513 0.232021 3.67551
3067 2 16.1278 2.00906 3.68403
3579 1 16.2002 0.190814 5.43517
568 1 0.033915 3.84958 3.69878
1069 3 1.92016 5.51499 3.71588
1580 2 0.0439654 3.66588 7.07599
1579 3 1.77069 3.80218 5.33142
2081 2 1.76178 5.42821 7.29501
2080 3 -0.0241967 5.53624 5.44183
2591 2 -0.0498434 7.33371 7.16708
2575 3 0.150316 7.31012 3.6516
3583 2 1.98948 7.24526 5.40653
17 3 3.65845 5.36557 5.45563
571 1 7.24314 3.77156 3.52627
592 1 7.12974 7.09368 7.24419
576 1 3.56072 7.26537 3.67543
1585 2 5.34373 7.22311 5.38176
2082 1 7.07906 5.38059 5.42016
2590 3 3.65928 3.68621 7.3488
2580 1 7.08793 7.23052 3.66277
2570 1 3.66508 3.81544 3.43654
3069 3 5.35911 5.41899 3.65147
3089 3 5.39482 5.44489 7.29412
3586 2 3.41965 7.01451 7.50653
3581 2 7.25501 3.60335 7.21462
3580 3 5.45548 3.68298 5.43493
18 2 10.7125 5.3136 5.58107
19 2 8.94957 5.38255 7.20874
590 3 10.7081 3.5619 7.13625
579 1 10.7272 7.29175 3.68418
1071 2 9.09369 5.37236 3.86345
1587 1 10.8872 7.14388 7.20496
1581 2 8.89207 3.64283 5.43305
2572 1 10.7571 3.8308 3.80771
3587 3 8.93226 7.08521 5.38675
572 1 14.2477 3.74995 3.70238
1091 1 12.6907 5.2641 7.3533
1589 1 12.5567 7.28639 5.36107
1583 2 14.4711 3.71735 7.16826
2083 3 14.2521 5.54638 5.36222
2593 2 14.2089 7.11726 7.27001
2583 3 14.2629 7.08762 3.56268
3071 3 12.5405 5.54337 3.56432
3582 3 12.605 3.70987 5.41575
757 1 17.8319 3.52538 3.66024
1073 3 16.2486 5.42958 3.52919
1768 1 17.8622 3.35149 7.29557
1582 3 16.2275 3.57876 5.44542
2084 1 16.0906 5.38784 7.05536
2017 3 17.8574 5.28586 5.52032
2841 3 17.9111 7.13841 6.94274
2826 3 17.8604 7.3056 3.84352
3589 3 15.8094 7.2494 5.46949
20 2 0.156283 9.05557 5.52958
574 1 0.107677 10.7102 3.62816
1584 3 1.85557 10.7313 5.32895
3073 2 1.96904 8.94751 3.75364
3090 2 1.99775 9.01264 7.16285
3584 1 0.247343 10.7388 7.2427
21 2 5.4144 8.78261 7.32408
22 2 7.254 8.89554 5.40564
591 3 3.69771 10.8213 7.16098
580 2 7.19211 10.5098 3.65731
1075 3 5.41396 8.92946 3.68016
1588 1 7.163 10.6438 7.38932
2085 2 3.69101 9.08078 5.37403
2577 3 3.53951 10.7629 3.63319
3585 3 5.54813 10.6436 5.50827
1092 3 8.89126 8.76367 7.22284
1586 1 8.80827 10.6521 5.4596
2086 1 10.6493 8.83019 5.49725
2592 2 10.5788 10.5494 7.17286
2581 2 10.6063 10.545 3.65649
3075 2 8.89794 8.77717 3.59335
23 1 14.3378 9.12683 5.59634
582 3 14.4724 10.9892 3.66548
1077 3 12.5947 9.02819 3.90136
2087 2 12.5376 8.93602 7.15339
3590 3 14.3891 10.6853 7.2813
3588 1 12.4539 10.6138 5.5668
270 3 17.8697 9.02136 5.43312
764 3 17.8988 10.7674 3.74709
1590 2 16.0149 10.756 5.36395
3091 2 16.0922 8.92817 7.12742
3077 1 15.9237 8.97671 3.8868
3835 1 17.7185 10.5343 7.15216
24 2 1.7707 12.5006 7.23147
593 1 0.141401 14.1757 7.14809
1079 2 1.81973 12.3817 3.67275
2088 3 0.0433947 12.5824 5.44782
2584 2 0.219545 14.3424 3.56664
3591 3 1.85641 14.3556 5.46111
25 1 3.6962 12.4942 5.59152
584 3 3.83223 14.1875 3.71721
1093 3 5.48053 12.5387 7.2993
1592 1 3.67855 14.2304 7.19472
1591 2 5.43553 14.2585 5.37607
2089 1 7.19736 12.5514 5.54641
2594 1 7.29061 14.2889 7.20306
2587 2 7.23121 14.1264 3.75465
3079 2 5.39525 12.4016 3.7466
26 1 10.8368 12.2907 5.48406
586 2 10.8373 14.1464 3.63343
1081 3 8.93372 12.4614 3.57838
2090 3 8.92599 12.2356 7.22647
3593 2 10.8079 14.1564 7.27511
3592 1 8.88837 14.2092 5.55517
594 3 14.4114 14.3605 7.10632
1593 3 12.4946 14.3069 5.35085
2091 1 14.2803 12.4565 5.43721
2588 1 14.1426 14.3896 3.53544
3092 1 12.4737 12.6105 7.19878
3081 3 12.3958 12.3794 3.49032
27 2 16.1795 12.4678 7.20836
781 3 17.7049 14.1934 7.12474
1083 2 16.0695 12.5953 3.6009
2025 2 17.7848 12.5042 5.41218
2835 3 17.8077 14.3373 3.62997
3594 1 15.8216 14.3451 5.24976
28 3 0.116203 15.9798 5.48973
651 3 0.126506 17.7243 7.22198
1094 1 1.90774 16.1666 7.20089
2690 1 0.273593 17.9315 3.54946
3083 1 1.98854 16.0175 3.69273
3701 1 1.79752 17.8057 5.31817
29 2 7.10118 16.046 5.38772
629 2 3.76123 17.9121 3.72628
1085 1 5.39727 15.9317 3.77893
1704 3 3.87504 18.0719 7.29852
1703 3 5.48729 17.8175 5.37916
2093 2 5.4308 16.1188 7.23096
2092 2 3.67036 16.1483 5.61809
2715 1 7.16456 17.9914 7.11325
2695 1 7.29529 17.8034 3.84895
632 1 10.6997 17.8177 3.70726
2094 3 10.7688 16.0113 5.4653
3093 3 8.95364 15.9621 7.12917
3085 1 8.82696 16.008 3.77472
3704 3 10.6438 17.8626 7.3609
3703 1 9.00511 17.6318 5.44235
30 1 12.5154 15.9791 7.25706
31 1 14.1031 16.0205 5.39984
653 1 14.3023 17.8192 7.352
1087 1 12.4384 16.17 3.63318
1706 2 12.6115 17.9031 5.59616
2698 2 14.474 18.0349 3.70334
278 3 17.9032 16.1348 5.28856
901 3 17.6758 17.7327 7.10841
1095 3 15.9702 16.0786 7.14149
2878 3 17.8234 17.8467 3.66688
3087 3 16.0608 15.9724 3.611
3707 1 16.1925 17.768 5.41041
1594 2 1.79644 0.215823 8.94199
2095 3 0.109198 2.09898 8.73572
2595 2 0.121679 0.0549294 10.7386
3094 3 1.8568 1.87294 10.6172
33 1 6.94158 1.94161 8.95128
595 1 3.69812 0.0963184 10.6844
1096 3 5.40449 1.77481 10.8827
2597 1 7.24294 -0.147286 10.7857
2596 2 5.49254 -0.0553212 9.06619
3095 3 3.73495 1.91628 8.96518
596 3 10.5454 0.19309 10.6517
1097 1 10.9086 1.96573 8.95189
3096 3 8.79296 1.70031 10.5562
3596 1 8.93855 0.182809 8.85804
597 3 12.4434 -0.0951226 8.88955
1098 2 12.5516 1.89395 10.8473
2098 1 14.2329 1.90224 9.0002
2598 2 14.2451 0.163522 10.7104
1597 3 16.1741 -0.0630425 9.0567
2032 1 17.9754 1.83975 8.90422
2845 3 17.9066 0.116473 10.8446
3097 2 15.9534 1.85548 10.743
598 3 0.0675746 3.67102 10.7424
1099 3 1.88126 5.36679 10.6428
2603 2 0.13644 7.30198 10.8325
2599 1 1.84546 3.69557 9.01514
3098 2 0.200022 5.49798 8.98945
3602 2 1.75854 7.21731 9.06224
36 3 3.62028 5.4394 9.156
605 2 3.67338 7.40046 10.8493
604 2 5.48553 7.09546 9.04196
600 2 7.15255 3.65177 10.7973
1100 1 7.30915 5.24757 8.93888
2606 2 7.19882 7.25702 10.771
2600 2 3.59447 3.74816 10.8709
3099 1 5.60611 5.40234 10.7874
3599 3 5.34328 3.72564 9.03484
606 1 10.6631 6.95001 10.7362
599 2 8.98058 3.50711 9.03789
1101 1 8.97527 5.37123 10.6803
1605 2 8.99195 7.11786 8.91216
2100 3 10.7424 5.28842 8.92836
2601 3 10.7752 3.73206 10.6828
601 2 14.2535 3.47824 10.6288
1600 2 12.4943 3.51193 8.81739
2609 2 14.3604 7.06301 10.6615
2608 3 12.4528 7.04354 8.87779
3101 3 14.3498 5.38511 8.85158
3100 2 12.4408 5.34001 10.423
786 2 17.8914 3.60124 10.7866
1102 3 16.1281 5.40425 10.8037
2853 3 17.8828 7.16187 10.7792
2602 3 16.2006 3.56657 9.14437
3348 3 17.8472 5.29873 8.93224
3608 3 16.1973 7.13457 8.92229
39 2 0.196096 9.14851 8.76798
603 1 0.313513 10.8982 10.8548
602 2 2.01307 10.7461 9.15678
3102 1 1.81533 9.15871 10.7051
607 2 7.28868 10.4 10.8638
1104 2 5.46511 8.92461 10.735
1103 2 3.59585 8.88161 8.84823
1603 1 5.58761 10.7382 9.17223
2104 1 7.15883 8.88395 9.03022
2604 2 3.85335 10.6989 10.7143
2607 1 10.657 10.5831 10.6924
2605 2 8.85266 10.6009 9.1483
3104 2 9.09667 8.75269 10.7051
3103 2 10.8576 8.98332 8.98689
42 1 14.3882 8.76827 9.13575
609 2 14.2885 10.701 10.7463
1105 2 12.4209 8.76639 10.6034
3606 1 12.3386 10.751 8.92327
289 3 18.0215 8.85602 8.92244
792 2 17.9051 10.6175 10.6972
608 1 16.1784 10.6666 9.07116
3105 1 15.9267 8.88197 10.8904
1107 2 1.96279 12.6011 10.8122
1106 3 0.24893 12.4776 9.05513
1609 3 1.6427 14.3381 8.89504
2610 2 0.187437 14.4219 10.9057
610 3 3.59234 14.4559 10.6519
2107 2 3.75032 12.4396 8.96987
2612 2 7.21032 14.2574 10.8125
2611 3 5.43917 14.1368 8.96281
3107 3 7.32223 12.4609 8.98563
3106 2 5.4389 12.6351 10.8472
45 3 10.7468 12.4988 9.11816
611 3 10.6964 14.3916 10.6935
1108 2 8.90001 12.4344 10.7754
3611 3 8.94842 14.2434 8.92993
612 1 12.4401 14.3052 9.00069
1109 1 14.3085 12.5398 8.93821
2613 3 14.3235 14.0772 10.7662
3108 2 12.6214 12.4234 10.6872
1293 2 17.8094 12.3645 9.04488
1110 1 15.9712 12.4086 10.7808
1612 1 16.0377 14.2841 8.97966
2860 3 18.0412 14.1861 10.6015
1719 2 1.70973 18.0131 8.83735
2110 2 0.0544536 16.1311 8.85128
2721 1 0.0289634 17.9348 10.6189
3109 2 1.84222 16.2902 10.5859
48 1 7.06482 16.0212 9.02771
659 1 3.77263 17.8207 10.5689
1111 1 5.3635 15.9297 10.545
2724 3 6.88499 17.8021 10.7334
2722 1 5.64892 18.0042 8.80989
3110 3 3.58969 16.0339 8.82013
661 3 10.5768 17.6711 10.5921
1112 1 10.8001 15.8979 8.94279
3111 3 8.90809 15.9088 10.8177
3723 3 8.89685 17.7543 9.08432
663 3 12.42 17.8781 8.95085
1113 2 12.4982 15.9529 10.7073
2113 3 14.1538 15.9985 9.09639
2727 1 14.5746 17.8154 10.8853
1725 3 16.2342 18.0175 8.95437
2047 1 17.9903 16.1404 8.948
2908 2 17.8766 17.9474 10.7793
3112 3 16.1724 16.0301 10.6383
32 1 0.0880122 1.78839 12.5087
613 2 0.197329 0.168838 14.4925
1114 1 1.91057 2.02359 14.2774
3595 2 1.90782 -0.0168939 12.614
34 3 7.17423 1.86713 12.5133
614 3 7.27283 0.0688845 14.4147
1595 1 5.39747 0.0291823 12.4952
2096 3 3.76857 1.82285 12.4802
2614 2 3.58221 0.351241 14.4063
3113 1 5.5909 1.97145 14.3089
1115 3 9.1492 1.75807 14.2779
2097 3 10.7856 1.84143 12.4985
2615 3 10.7059 0.0306104 14.245
3597 1 8.93925 0.0531485 12.4909
35 2 14.1655 1.74192 12.504
615 3 14.077 0.160365 14.2313
1596 1 12.4386 0.16691 12.5173
3114 3 12.3108 1.78801 14.3823
282 3 17.938 1.83664 12.3245
801 2 17.9835 0.182983 14.1454
1116 1 16.0318 1.86571 14.2113
3598 2 15.8356 0.149737 12.3596
618 3 0.0641208 7.20774 14.3268
1598 3 1.86818 3.79817 12.4336
2099 1 0.211312 5.64373 12.4612
2616 3 0.0729801 3.70812 14.2499
3115 1 1.90525 5.3539 14.426
3603 3 2.02328 7.38159 12.5241
37 1 3.65659 5.46601 12.426
620 1 7.22694 7.12193 14.3708
616 3 3.67237 3.7558 14.2507
1117 3 5.40925 5.44716 14.4459
1604 2 5.57265 7.15334 12.6695
2101 1 7.29282 5.23248 12.492
2620 3 3.73086 7.1521 14.2402
2617 1 7.17585 3.67284 14.3278
3600 1 5.43448 3.67807 12.6423
38 3 10.7621 5.24783 12.6369
617 3 10.7124 3.60541 14.4366
1599 1 9.02228 3.62244 12.6356
2621 3 10.7071 7.11877 14.2053
3116 3 8.97653 5.40364 14.6039
3605 1 8.91596 6.97329 12.5548
622 2 14.4281 7.15376 14.1346
1118 2 12.5006 5.60985 14.4116
1607 2 12.5299 7.11432 12.3661
2102 1 14.1281 5.38063 12.4666
2618 1 14.0698 3.65576 14.1641
3601 1 12.5199 3.58422 12.4669
806 1 17.7714 7.11098 14.4849
1601 1 15.9559 3.61299 12.3564
2036 3 17.8198 5.40326 12.6847
2866 2 17.866 3.53493 14.2433
3117 3 15.9497 5.18859 14.2135
3609 1 16.0812 7.09535 12.6198
40 1 0.0846547 9.01388 12.5826
1119 1 2.01281 8.84746 14.4012
1602 1 1.99657 10.7962 12.7941
2619 2 0.149005 10.7718 14.2845
41 2 7.27181 8.81195 12.7117
619 1 3.68618 10.4604 14.3632
2103 3 3.66808 8.96209 12.6278
2622 1 7.13763 10.7806 14.2995
3118 2 5.45849 8.93742 14.3582
3604 1 5.52145 10.5005 12.455
621 2 10.7144 10.9704 14.3039
1120 3 9.01445 8.88993 14.2855
1606 1 9.00111 10.7891 12.4953
2105 3 10.668 8.82685 12.478
43 1 14.1761 8.86304 12.3719
2623 3 14.1708 10.6385 14.301
3119 1 12.6222 8.68684 14.2438
3607 3 12.4061 10.7303 12.4316
290 2 17.6755 8.76876 12.5442
1121 3 15.9127 9.13093 14.3125
1608 3 16.1 10.7611 12.4004
2870 1 17.9217 10.8039 14.2674
623 2 0.234787 14.3007 14.2004
2106 2 0.262466 12.6333 12.6185
3120 2 2.05124 12.5191 14.4098
3610 1 1.96085 14.2008 12.541
44 3 3.74592 12.557 12.4131
624 3 7.12413 14.1566 14.2367
1122 2 5.30816 12.3403 14.1742
1610 2 5.42187 14.555 12.3764
2108 2 7.24836 12.3772 12.3705
2624 2 3.69312 14.3523 14.1004
46 2 10.7937 12.4787 12.4173
2625 3 10.8745 14.1043 14.0833
3121 2 8.95773 12.4984 14.2955
3612 1 8.93835 14.1585 12.5227
625 1 14.3025 14.264 14.2777
1123 2 12.7129 12.4795 14.2701
1611 1 12.4401 14.2711 12.4254
2109 3 14.2066 12.4529 12.5463
811 1 17.8058 14.042 14.3811
2044 2 17.9898 12.5052 12.5241
3122 1 16.0147 12.3906 14.2818
3613 1 16.2446 14.387 12.3109
47 1 0.0310517 16.1174 12.7415
676 3 0.0991586 17.9556 14.2936
1124 3 1.87652 16.0546 14.2636
3720 3 1.79249 17.769 12.4858
49 3 7.09059 16.1151 12.6244
678 1 7.04971 17.9649 14.5479
1721 1 5.21517 17.955 12.2862
2111 3 3.57853 16.1956 12.6088
2740 2 3.72511 17.8108 14.2239
3123 1 5.34718 16.0704 14.0164
1125 3 8.99176 16.0478 14.4067
2112 2 10.7304 16.135 12.5674
2741 1 10.6193 17.828 14.1793
3724 3 8.87814 17.7647 12.3245
50 2 14.3856 15.9085 12.5549
680 3 14.4123 17.9744 14.0352
1724 3 12.5344 17.922 12.3698
3124 1 12.6528 16.036 14.1615
297 3 17.901 16.1076 12.5137
926 3 17.9465 17.9882 14.4015
1126 3 15.9604 16.1844 14.2724
3726 1 16.0954 17.8327 12.3941
1613 2 1.91126 0.376492 16.2294
2114 1 0.0941287 1.92498 16.005
2626 1 -0.0918991 0.181553 17.8145
3125 2 1.9607 1.93067 18.0569
51 3 3.72027 2.01246 15.9487
502 2 3.57737 0.224686 17.8638
1128 3 5.40391 1.7682 17.9253
2115 2 7.10877 1.77728 16.0843
2628 1 7.14576 -0.0667587 17.9339
3614 3 5.52525 0.0287539 16.0039
52 1 10.8972 1.64815 16.1063
503 3 10.7111 0.0780297 17.8754
1614 2 8.93019 -0.101419 16.1436
3127 3 8.93536 1.69722 17.8913
1130 3 12.4916 1.94556 18.0105
2116 3 14.3532 1.79599 16.0464
2630 3 14.4091 0.0473479 17.876
3615 1 12.6069 0.0261909 16.1854
1615 3 16.0861 0.115281 16.0065
2051 1 17.9251 1.90407 16.0922
2501 3 17.8138 0.0260576 17.9329
3129 2 16.1605 1.77081 17.8192
53 1 0.242768 5.3109 16.1742
506 3 0.214609 3.62482 17.7821
1132 1 1.86136 5.40164 17.8987
1618 3 1.8679 7.08501 16.1361
2636 3 0.0821703 7.12118 17.8387
3616 2 1.90246 3.50752 16.0904
54 3 7.1606 5.3595 16.2368
508 2 7.31892 3.52053 17.8413
513 2 3.76474 7.21491 17.9671
1616 3 5.40595 3.67992 16.1681
2117 3 3.78511 5.42609 16.1832
2640 3 7.22994 7.32626 17.85
2632 1 3.57923 3.71575 17.885
3131 2 5.44925 5.50462 17.9005
3620 1 5.4402 7.17734 16.123
515 1 10.7578 7.22396 17.9678
1134 1 8.9326 5.41129 17.9742
1620 2 9.09602 7.23435 16.2165
2118 1 10.7961 5.46149 16.214
2633 1 10.6968 3.609 17.8911
3617 2 9.18483 3.46036 16.2008
55 3 14.2228 5.46178 16.0699
510 1 14.4879 3.62292 17.8267
1617 2 12.4406 3.58786 16.1085
2644 1 14.2688 7.39625 17.9293
3133 3 12.7749 5.39417 18.0567
3622 3 12.5756 7.10457 16.074
303 1 17.8374 5.37025 15.9274
819 1 17.8268 3.64965 17.6937
1136 3 16.0898 5.60337 17.7592
1622 1 15.9076 7.30417 15.9339
2511 1 17.936 7.20894 17.8803
3618 2 15.8897 3.63865 16.0714
511 3 0.215709 10.784 17.8347
2119 1 0.0176362 8.93928 16.0078
3135 3 1.96695 8.96888 17.8399
3619 2 2.0102 10.7306 15.9969
56 2 3.77166 9.04992 16.1303
516 1 7.23156 10.687 17.83
1138 2 5.53448 8.99871 17.9006
1619 1 5.45865 10.866 16.0837
2120 3 7.35948 8.9992 16.0022
2638 1 3.70654 10.6901 17.8434
57 1 10.8956 8.89815 15.9465
2641 2 10.7897 10.755 17.9864
3137 2 9.16908 9.00402 17.8214
3621 1 9.04481 10.8264 16.3034
519 3 14.3099 10.7403 17.7842
1140 3 12.5181 9.18419 17.8462
1621 1 12.5712 10.7475 16.0734
2121 2 14.2352 8.96272 15.98
825 2 17.8274 10.6542 17.7495
2056 3 17.8463 8.75772 16.0425
3139 1 16.1282 8.948 17.7942
3623 1 16.0029 10.8204 16.0649
58 1 0.256963 12.4298 15.9712
1142 1 1.76593 12.5931 17.7725
1623 3 1.84206 14.4822 16.0285
2646 3 0.191666 14.313 18.0037
59 3 7.10813 12.5324 16.1176
522 3 3.64274 14.4349 17.8307
2122 1 3.61304 12.564 16.2303
2648 1 7.19186 14.3957 17.8116
3141 1 5.26677 12.5852 17.9316
3624 1 5.34445 14.3138 16.1033
523 3 10.767 14.3611 17.8769
1144 3 9.03961 12.5944 18.0287
1624 2 9.03487 14.3336 16.1546
2123 1 10.858 12.5125 16.0418
60 2 14.2378 12.6129 16.0714
2650 1 14.3438 14.2092 17.7647
3143 2 12.5593 12.5336 17.7665
3625 2 12.4963 14.2871 16.1108
308 2 18.0006 12.4566 16.1694
1146 1 16.0749 12.443 17.9812
1625 3 16.1345 14.3152 16.0463
2521 1 17.8654 14.4142 17.9373
1738 3 2.02771 17.7458 16.1241
2124 1 0.0527903 16.228 16.2214
2751 3 0.0701958 17.9388 17.8002
3145 1 1.7373 16.1339 17.7225
61 2 3.84838 16.0757 16.0153
691 2 3.77657 17.8564 17.9339
1148 3 5.49803 15.9993 17.6526
2125 2 7.26771 15.9419 15.9924
2755 1 7.15976 17.8837 17.7105
3740 1 5.25409 17.8328 15.9898
62 2 10.888 16.0649 15.7665
693 1 10.7509 17.6137 17.7817
1740 3 9.03297 17.9588 16.0746
3147 2 8.87734 16.0543 17.9658
1150 1 12.4777 16.0609 17.7898
2126 3 14.3222 16.1301 16.0279
2759 3 14.2473 17.76 17.8316
3742 3 12.5122 17.8805 15.9021
1742 1 16.0204 17.9557 16.1651
2061 3 17.6855 16.068 15.9825
2938 2 17.6934 17.9288 18.0685
3149 3 16.1459 15.874 17.8373
501 3 0.100381 0.234754 21.6045
63 1 0.0063363 1.77401 19.5565
1127 1 1.92104 1.94252 21.4724
3626 2 1.8015 0.0930417 19.7519
504 1 7.10495 0.0450474 21.5498
64 1 7.3853 1.79245 19.763
1626 1 5.38143 0.103432 19.8118
2127 2 3.64495 1.75988 19.5616
2627 2 3.5684 0.169513 21.3854
3126 3 5.41964 1.91004 21.4434
1129 3 8.87064 1.87573 21.5701
2128 1 10.677 1.75238 19.7964
2629 2 10.8634 -0.00874311 21.3273
3627 3 9.08433 -0.0515529 19.795
505 1 14.3746 0.0596572 21.4825
65 3 14.196 1.94837 19.7183
1627 3 12.5641 0.102633 19.7196
3128 3 12.4779 1.92484 21.4407
815 1 18.0254 0.143662 21.3634
313 2 18.0266 2.03199 19.6624
1131 2 16.0413 1.96996 21.3867
3628 1 15.9358 0.0868467 19.7725
512 1 -0.0639033 7.30569 21.461
1628 2 1.78769 3.66474 19.7578
2129 3 -0.0381631 5.31335 19.5582
2631 3 0.101698 3.48292 21.4836
3130 1 1.87975 5.23139 21.3833
3631 3 1.86509 6.9908 19.6899
507 3 3.80423 3.73197 21.247
517 2 7.29954 7.33214 21.4914
66 3 3.9191 5.4913 19.7723
1133 2 5.72206 5.43352 21.3846
1632 1 5.48061 7.25934 19.6927
2130 1 6.93784 5.27575 19.6727
2639 2 3.81622 6.99958 21.5585
2634 3 7.12344 3.53444 21.4444
3629 3 5.49311 3.41572 19.5937
509 3 10.6614 3.68409 21.3854
67 3 10.8906 5.46289 19.7689
1629 3 8.92722 3.58884 19.588
2642 2 10.4463 7.10113 21.4804
3132 1 8.78443 5.32386 21.4002
3633 3 8.9628 7.01899 19.5694
520 3 14.3921 7.20613 21.5058
1135 1 12.4224 5.53429 21.44
1634 2 12.5063 7.34056 19.6558
2131 2 14.4411 5.49303 19.8098
2635 2 14.5212 3.62043 21.4085
3630 3 12.5152 3.76011 19.7234
826 2 17.9488 7.21515 21.4051
1630 2 16.1649 3.60148 19.4437
2316 2 17.8272 5.29473 19.5645
2507 2 17.7676 3.79512 21.4982
3134 2 16.2372 5.47394 21.7023
3635 2 16.1445 7.18427 19.687
68 1 0.203954 9.04964 19.8704
1137 3 1.99195 8.89004 21.3753
1631 3 1.77429 10.878 19.7618
2637 3 0.0925595 11.0199 21.4055
514 1 3.65235 10.7163 21.5138
69 2 7.1297 9.01613 19.5782
2132 3 3.56214 8.76161 19.7329
2643 1 7.2727 10.6652 21.3356
3136 1 5.44169 9.05876 21.5433
3632 3 5.56035 10.7419 19.6623
518 1 10.8847 11.0379 21.3068
1139 2 8.84054 8.96726 21.3486
1633 3 8.92008 10.7773 19.6584
2133 1 10.7054 8.97029 19.789
70 2 14.2523 9.14273 19.5687
2645 1 14.3997 10.7887 21.3467
3138 1 12.6984 9.25008 21.3863
3634 2 12.6453 10.8745 19.6412
318 1 17.9055 8.99951 19.7212
1141 3 16.086 8.96265 21.4353
1635 1 15.9796 10.6333 19.5756
2514 1 17.8527 10.882 21.216
521 2 0.108266 14.4218 21.4308
2134 2 0.155861 12.627 19.6783
3140 3 1.88231 12.549 21.4376
3636 3 1.90105 14.3767 19.7133
524 3 7.12271 14.4383 21.3591
71 1 3.45457 12.5739 19.6168
1143 3 5.51082 12.6441 21.3125
1636 3 5.30118 14.459 19.7258
2135 3 7.07567 12.5581 19.5268
2647 3 3.67132 14.3174 21.3212
72 1 10.6921 12.5501 19.5942
2649 1 10.585 14.0131 21.3418
3142 1 8.9143 12.5868 21.3788
3637 2 8.80613 14.5183 19.6351
525 2 14.2549 14.3131 21.359
1145 2 12.5767 12.4864 21.32
1637 2 12.4833 14.2791 19.7326
2136 1 14.4055 12.5565 19.5759
835 3 17.9039 14.1547 21.4574
2321 1 17.8289 12.5579 19.5047
3144 2 16.1667 12.5182 21.3346
3638 2 16.118 14.2672 19.53
690 2 0.15365 17.7285 21.5514
73 2 0.136004 16.1532 19.6504
1147 2 2.03782 16.1302 21.4351
3751 3 1.92639 17.9297 19.6137
695 2 7.08702 17.7754 21.3957
74 1 7.20283 16.2079 19.5647
1502 2 5.41823 17.8186 19.5644
2137 1 3.69795 16.1504 19.5959
2754 3 3.4847 18.0188 21.4237
3146 1 5.17127 16.1566 21.2673
1149 3 9.0277 16.1766 21.352
2138 2 10.6541 16.1077 19.6602
2757 1 10.7062 17.8632 21.1003
3753 2 8.80892 17.9408 19.5114
698 1 14.25 17.8712 21.4712
75 3 14.3003 15.9291 19.6415
1504 3 12.4406 17.908 19.725
3148 2 12.4923 16.0668 21.477
941 1 17.8831 17.7782 21.3342
323 2 17.889 15.8841 19.5717
1151 3 16.0386 15.9313 21.4677
3755 1 16.0555 18.0067 19.6703
1638 1 1.84365 0.181044 23.2285
2139 2 0.0357361 1.97473 23.1999
2651 1 0.301793 0.149037 24.9446
3150 2 1.9667 1.88375 24.8281
526 2 7.31851 -0.0266993 25.0847
77 2 5.41985 1.71265 24.9892
76 1 3.6206 1.80471 23.2151
2140 3 7.22293 1.67955 23.4518
3640 3 3.54931 0.000551554 25.0232
3639 2 5.42096 0.306719 23.1963
78 3 10.7622 1.77466 23.1751
1152 3 9.09658 1.74532 24.9712
1640 3 10.7387 0.0844193 24.8926
1639 1 9.1516 0.0564121 23.0906
2142 2 14.5285 1.91402 23.1353
2141 1 12.7463 1.8822 24.8631
2652 3 13.9905 -0.0534569 24.8147
3641 3 12.5096 0.134209 23.114
1641 1 16.0775 0.182314 23.1809
2326 3 17.8642 2.07987 23.0904
2526 2 17.8296 0.173304 25.0801
3151 3 16.1087 1.76062 24.9809
528 3 0.301441 7.16621 25.0706
80 1 1.93738 5.59464 25.0017
79 3 0.0471996 5.25537 23.2876
1645 3 2.05145 7.07564 23.0441
3643 2 0.154455 3.67147 24.9594
3642 3 1.94395 3.50449 23.197
527 2 3.61022 3.74563 25.0252
81 2 7.21671 5.55693 23.2262
1153 3 5.41554 5.42989 24.8546
1648 2 3.66664 7.09666 25.0047
1643 3 7.11958 3.70438 24.8569
1642 2 5.39279 3.58312 23.1512
2143 3 3.76224 5.24729 23.268
2655 1 7.31733 6.92753 25.0824
3648 1 5.51382 7.14008 23.24
1649 1 8.91511 7.25914 23.2764
2145 2 8.97465 5.40096 24.8302
2144 2 10.81 5.29245 23.0554
2653 2 10.9021 3.72134 25.0049
3650 2 10.7381 7.26423 24.9767
3644 1 8.97801 3.46463 23.2282
530 3 14.3709 7.23278 25.0079
82 2 14.4641 5.49434 23.1362
1644 3 12.5665 3.72194 23.2195
3152 1 12.6333 5.59604 25.0028
3652 3 12.3355 7.25489 23.214
3646 3 14.3149 3.78691 24.8948
841 3 17.8777 7.36147 24.9744
329 2 17.9227 5.52056 23.3316
83 2 16.0982 5.41498 24.9757
1651 1 16.1432 7.26818 23.3598
3893 2 17.9279 3.72906 24.8343
3645 1 16.1584 3.73292 23.2581
1154 2 2.00008 9.05547 25.0777
1646 3 0.0998197 10.7166 25.0138
2146 1 0.154255 8.90965 23.1957
3647 3 1.78846 10.8301 23.3148
84 2 3.64183 8.9447 23.4391
1647 1 5.35337 10.7518 23.0909
2148 1 7.33644 9.06595 23.3552
2147 2 5.52755 8.96846 25.0684
2654 1 3.72273 10.8306 25.2694
3651 2 7.13017 10.6942 24.9996
529 3 10.6602 10.8579 25.001
85 1 10.7521 9.28961 23.1003
3153 2 8.98404 9.02962 25.2091
3649 2 8.97197 10.9061 23.0892
86 2 12.3684 9.00273 24.8989
1652 1 14.2102 10.6974 25.0827
1650 1 12.5174 10.7888 23.2115
2149 3 14.3075 8.83181 23.3403
1155 3 16.1614 9.07999 24.9606
1835 1 17.9554 10.6352 24.9292
2333 1 17.8901 8.90472 23.0901
3653 3 16.2083 10.7198 23.217
87 1 0.0753327 12.662 23.3077
1653 2 1.96605 14.2255 23.398
2150 3 1.80944 12.5056 25.1298
2656 1 0.0909861 14.4031 25.0587
531 2 7.32291 14.6559 25.0434
88 1 7.03447 12.7575 23.3506
2151 1 3.76075 12.5805 23.2704
3154 3 5.48897 12.8043 25.1735
3655 2 3.68935 14.3271 25.1259
3654 2 5.30474 14.5361 23.3059
89 1 8.76653 12.6469 24.9693
1655 1 10.64 14.1574 24.8618
1654 2 8.98566 14.2169 23.256
2152 1 10.641 12.4762 23.2371
90 1 14.3129 12.6255 23.0949
1156 3 12.4011 12.7399 24.9863
2657 1 14.2418 14.3419 25.1246
3656 3 12.4922 14.3341 23.0909
337 1 17.747 12.6028 23.2049
1656 2 15.9205 14.2199 23.1753
2153 3 15.9875 12.4788 25.0474
2531 3 17.9997 14.1775 24.9645
1513 3 1.7777 17.8436 23.3103
2154 1 0.0224093 16.0872 23.311
2776 3 0.024494 17.9608 25.1572
3155 1 1.60637 16.1949 25.0977
715 1 7.31215 17.8891 24.7409
92 1 5.46627 16.2545 24.943
91 3 3.59085 16.1807 23.2773
2155 2 7.46384 15.9953 23.1544
3767 2 3.67188 18.0211 24.9444
3766 3 5.37954 17.9235 23.1134
93 2 10.7796 15.9558 23.043
1157 1 9.0751 16.196 25.0544
1515 3 9.09985 18.0919 22.9628
1516 1 10.8044 17.8455 24.801
2157 2 14.1741 16.1205 23.201
2156 3 12.4935 15.9605 24.8996
2778 2 14.4297 17.8747 25.0724
3769 3 12.4365 18.095 23.0897
1519 1 16.1363 17.6765 23.3287
2341 2 17.8782 16.0415 23.0793
2963 2 17.6868 17.8104 24.9917
3156 2 15.9145 15.9023 24.9432
532 3 0.0586642 0.184681 28.4855
94 2 0.191929 1.91531 26.8314
1158 1 1.85861 2.08678 28.7769
3657 3 1.85375 0.204718 26.8507
533 1 5.30161 0.0651192 26.686
534 2 7.23373 0.104416 28.5549
1159 2 3.74785 1.82344 26.5351
2159 1 7.08124 1.61894 26.788
2658 3 3.58449 0.0323839 28.7008
3157 3 5.4106 1.90104 28.6209
1160 3 9.02263 1.95521 28.4574
1658 3 9.02715 0.176449 26.6345
2659 3 10.7291 0.168516 28.4667
3158 1 10.7955 1.89414 26.4956
535 3 14.4022 0.150431 28.5621
97 1 14.3117 1.86225 26.5834
2660 3 12.5681 0.0825172 26.6273
3159 3 12.5095 1.98849 28.3667
845 1 17.9487 0.215877 28.522
344 1 17.8079 1.93823 26.6635
1161 1 15.9834 1.81968 28.6512
3660 3 16.099 0.101688 26.6754
536 2 1.73808 3.50648 26.6717
540 3 0.032485 7.22473 28.7696
1162 2 -0.0526394 5.54718 26.8427
1664 2 1.79795 7.20033 26.9013
2661 2 0.0849834 3.70897 28.6388
3160 1 1.83368 5.53063 28.6129
537 2 3.68801 3.56709 28.6232
543 1 7.24889 7.22482 28.5969
1163 2 5.51619 5.4855 28.3565
1661 1 5.34964 3.5475 26.7565
2162 3 3.64572 5.17058 26.7746
2668 3 3.80136 7.05045 28.4418
2667 1 5.38717 7.07118 26.7599
2663 3 7.19623 3.59799 28.4338
3161 2 7.19056 5.39192 26.7723
538 2 10.8951 3.82722 28.1989
99 3 10.795 5.44474 26.5634
2669 2 10.8221 7.13913 28.4187
2662 2 9.11984 3.52553 26.5879
3162 1 8.93933 5.23103 28.3863
3668 1 9.07744 6.95975 26.7262
545 2 12.4701 7.39964 26.6819
546 2 14.2771 7.15533 28.3946
1165 3 14.5845 5.44364 26.6855
1164 1 12.6018 5.5416 28.388
2664 2 14.4071 3.76497 28.3948
3663 2 12.6322 3.66026 26.562
853 2 17.8635 7.07354 28.4449
539 3 16.2742 3.67082 26.6791
1349 3 17.9619 5.56497 26.5809
1670 1 16.0609 7.27061 26.7889
2536 2 17.9181 3.84424 28.555
3163 1 15.9807 5.48708 28.4336
1166 3 1.88014 9.08361 28.6126
2165 3 0.0888548 8.94436 26.878
2666 2 0.147084 10.803 28.4844
2665 1 1.84416 10.8548 26.7245
541 2 3.69912 10.7157 28.3269
103 3 7.1346 8.90224 26.8767