ITEM: TIMESTEP
5000
ITEM: NUMBER OF ATOMS
4000
ITEM: BOX BOUNDS pp pp pp
-6.4678418483687494e-02 3.5798738418483566e+01
-6.4678418483687494e-02 3.5798738418483566e+01
-6.4678418483687494e-02 3.5798738418483566e+01
ITEM: ATOMS id type x y z
3062 3 8.9807 2.01616 -0.0389436
1647 2 16.1631 15.941 14.3133
2607 3 5.49253 17.8021 5.07396
568 1 17.7253 -0.0976308 3.57973
564 3 3.45664 1.60739 1.70359
565 2 7.27775 1.8736 1.66229
42 3 0.160681 1.79264 12.4612
3590 3 0.238028 6.82129 7.14846
1608 3 6.97028 -0.00668784 10.7455
10 1 9.0992 3.58103 1.6794
616 2 0.0404177 14.3598 10.7936
1615 2 17.7935 7.11837 10.5419
566 2 11.123 1.65344 1.70001
567 2 14.183 1.85116 1.69909
570 2 12.411 3.36252 1.68968
2610 2 12.295 17.6079 5.32788
3562 1 5.33494 0.0528888 1.58269
3083 1 16.0049 17.5752 1.45034
2584 3 0.0535032 15.9656 1.71662
2092 3 17.7611 3.56241 7.09077
5 2 1.38756 3.43879 1.99623
6 1 1.85577 7.3675 1.54053
3566 3 1.71973 5.73362 3.36506
3643 2 14.3016 16.3214 15.9435
3148 1 15.8549 14.3241 16.2822
3606 3 8.91255 -0.00481528 12.3022
619 2 3.71649 17.5007 10.4072
2069 3 3.33875 3.8025 3.41962
3569 1 5.36441 3.43437 1.74806
1120 2 17.8533 3.51788 10.7116
1074 1 3.78559 5.52686 1.84113
3570 2 5.42732 5.18295 3.7366
2615 1 -0.0416463 3.19908 10.8292
3061 1 5.15493 1.42014 -0.029514
2633 3 0.093227 3.57386 14.2489
1072 3 7.13959 5.07369 1.74514
1076 3 11.1633 5.17266 1.70712
3622 3 17.8839 1.57265 15.9967
1569 3 12.5598 7.0482 1.65545
571 2 12.3799 5.61382 3.53921
2144 2 17.6757 16.1431 16.1211
1570 3 14.1959 5.14165 1.85138
572 3 16.2307 3.74188 1.69409
1081 1 15.8478 7.07337 1.76716
1127 1 6.98418 17.7841 10.7723
1073 3 3.65271 7.25887 3.66971
1575 1 3.49932 8.83125 1.81285
575 2 1.75848 10.4151 1.80911
574 2 1.69782 8.76487 3.4886
1075 1 5.47696 7.13001 1.79764
1576 1 7.2955 9.01566 1.32224
2649 2 10.3382 17.7267 14.2551
1568 3 9.01397 6.88518 1.73108
1578 2 8.90878 8.65291 3.38458
2071 2 10.6784 8.75846 1.76881
2074 3 14.0494 8.77599 1.6023
1579 1 12.4582 8.85797 3.50513
1566 3 7.12291 -0.0660719 3.43048
2590 1 3.56341 -0.0501314 7.04293
1572 3 14.3866 7.19117 3.72492
1580 1 16.388 8.95693 3.47745
2586 1 7.36696 17.7369 3.27736
2081 1 3.71666 12.2239 1.99225
2647 2 12.6076 14.1419 16.2236
3619 3 8.75566 17.8731 12.4021
3641 3 10.5965 16.2298 16.1529
1083 2 5.36658 10.4565 2.00918
2575 2 7.11341 12.6394 1.57925
1084 3 6.97437 10.7406 3.50699
2648 2 1.79167 17.7791 16.2978
3112 3 15.9119 17.865 5.51838
1087 2 8.78804 10.8791 1.8146
2578 2 8.59683 12.3141 3.41446
2579 2 10.6477 12.3553 1.6332
580 1 12.4817 10.6757 1.64162
2581 3 12.6202 12.3092 3.35507
579 3 10.4363 10.7393 3.48942
1585 3 10.698 17.6411 -0.104293
2580 2 14.3261 12.2519 1.75373
1581 2 16.2428 10.9012 1.50286
3575 3 14.1442 14.1856 3.33325
3114 3 12.4677 0.0269639 12.6474
2078 2 1.95654 14.051 1.54926
3077 2 3.76633 15.8549 1.89124
3581 2 12.666 17.6733 1.62626
2082 1 5.2428 13.9654 1.7394
2086 2 1.78629 17.8126 1.54414
3078 3 6.87377 15.8819 1.75939
2614 1 17.7305 1.57385 12.4591
1583 1 8.78138 13.8524 1.56821
3579 2 8.85838 15.8258 3.34007
2577 2 7.13184 14.0964 3.32725
3072 2 10.7188 14.1983 3.45142
3600 1 -0.0510363 16.0693 8.83844
1605 1 1.73539 17.9196 5.34584
2085 2 12.5202 14.1808 1.46488
3080 1 10.6808 15.9776 1.9438
2101 3 0.0336213 12.4297 5.46086
1622 1 17.6957 12.4695 12.7675
3081 2 14.1879 15.9524 1.55063
2583 2 16.0879 14.2813 1.42791
3578 3 8.9271 17.5651 1.42689
2563 3 1.64286 1.74621 3.45688
600 3 17.8817 8.9165 8.80037
3585 3 3.66769 1.69346 5.12348
3088 2 16.0294 0.297075 5.41076
2087 1 3.47473 17.7342 3.41018
2564 3 5.35588 1.69642 3.47153
21 2 0.0394244 1.88036 8.79933
3584 2 7.21981 1.66987 5.2321
586 3 8.92734 1.76215 7.23344
2565 1 9.11443 1.65282 3.21761
2567 2 12.5742 1.70645 3.45408
3069 3 14.2706 3.24909 3.38378
604 1 0.0367429 0.0962434 10.7438
3586 3 10.7988 1.69032 5.30836
2115 1 -0.0570031 9.16074 12.5695
3564 3 16.1485 1.69427 3.48949
25 3 14.229 1.80134 5.26821
588 3 15.9283 1.79211 7.2228
1643 1 8.93375 16.0709 14.2643
3090 2 1.56625 3.57124 5.12125
590 3 3.53288 5.45691 5.28353
28 3 1.6141 7.12923 5.45826
2068 3 7.29726 6.87861 3.38515
3593 1 5.47729 3.45247 5.35392
1094 1 5.30627 7.04174 5.25607
3592 2 7.18437 3.52387 7.18431
3568 3 7.33535 3.62003 3.42777
3572 2 10.5717 3.58418 3.59854
31 2 8.85533 3.57614 5.23298
592 1 7.20517 5.25159 5.37467
3571 1 9.08372 5.54054 3.70338
33 3 12.3465 3.29523 5.56672
594 1 10.6958 5.21437 5.35362
1100 3 14.442 5.31948 5.33254
3595 3 16.06 3.44505 5.25423
573 3 16.2302 5.22009 3.50902
1595 2 16.3582 7.21339 5.22803
1594 3 16.0466 5.27528 6.8619
1103 2 3.50759 8.94857 5.5866
577 2 5.46184 8.71799 3.58786
578 1 3.35754 10.5671 3.6042
1597 1 7.10532 8.72328 5.49452
1104 1 5.35193 10.6555 5.42939
1106 1 7.36979 10.7357 7.38974
1596 3 5.6163 9.02455 7.38564
1589 3 10.6168 7.08062 6.92861
1590 1 8.96881 7.11484 5.3465
599 1 8.85855 10.5225 5.39222
1107 1 9.04234 9.12985 7.21852
569 1 10.816 7.3282 3.51156
1592 3 12.4436 7.05285 5.31565
2097 1 10.6034 8.83471 5.19441
2098 2 14.3479 9.52355 5.30285
1108 3 12.2528 10.6432 5.35407
2072 1 14.397 10.3474 3.25108
2099 3 14.6094 10.7849 7.10194
1599 2 16.0118 8.96569 7.18899
2100 2 16.3801 10.6904 5.24058
3108 1 8.89423 17.7303 8.72699
51 1 17.7641 10.6777 10.843
2141 3 8.76391 14.3812 16.3479
3639 2 7.13078 16.0228 16.2113
596 3 1.58386 10.6626 5.17923
1582 3 1.6215 12.4829 3.47636
2102 2 1.65186 14.1458 5.275
2600 2 3.4506 12.1771 5.49606
2574 3 5.22954 12.322 3.86671
2601 3 7.18178 12.3651 5.31679
2104 2 5.42883 14.3111 5.13335
39 1 10.6773 10.7807 6.97266
2602 3 10.673 12.4946 5.28665
2603 3 10.6872 14.3025 7.24316
2605 3 14.4579 12.1781 5.25165
3098 2 12.4703 13.9175 5.15718
1603 1 12.5525 12.3522 7.15866
2582 1 16.2626 12.2648 3.32569
3099 1 16.0823 12.6983 7.22134
3066 3 17.9416 1.66788 1.63948
3576 3 1.70404 15.9609 3.68231
2083 2 3.70424 14.0739 3.55119
3602 3 3.52062 15.9581 5.3243
2077 1 -0.00818407 12.2948 1.76821
1112 2 7.27927 14.3733 7.05499
3577 1 5.33741 15.9069 3.36436
3106 2 5.18394 16.007 6.89056
2594 2 17.5462 1.71373 8.9426
2587 3 14.5386 17.7947 3.46173
2604 3 9.01212 14.4036 5.18334
3601 3 7.26625 16.0431 5.24564
3603 3 10.5385 16.0713 5.31466
3140 1 17.7289 7.03903 14.2826
3580 3 12.3564 15.8791 3.40189
3604 2 12.5198 15.8417 6.82929
2608 1 8.98259 17.8882 5.51475
583 1 16.126 15.9611 3.65112
3100 3 15.8994 14.1287 5.25988
41 2 14.0283 15.9566 5.29495
584 1 1.70612 1.68267 6.77049
3067 2 -0.0652026 3.46999 0.0708637
29 3 3.66988 3.46696 7.00621
2591 2 3.36618 1.80033 8.68714
2110 1 1.86679 1.7408 10.6367
2643 3 5.30191 14.5684 15.9993
22 2 5.28072 1.52016 7.25635
585 1 7.10735 1.67482 8.81636
30 3 5.29368 3.26467 8.91417
1101 1 -0.13138 8.85451 5.29864
2111 3 5.2818 1.65265 10.707
3633 2 3.41351 10.9643 14.4977
2592 2 10.7766 1.49768 8.83609
2113 2 10.5642 3.30294 10.7288
1591 2 8.8836 3.62657 9.03763
2112 2 7.17001 3.20281 10.5877
23 3 12.5221 1.76582 7.26694
3594 3 10.6292 3.53871 7.19546
2613 1 12.4171 1.88228 10.8873
587 2 13.9812 1.76656 8.93312
3119 3 14.3358 3.72505 10.8299
2627 1 17.5754 15.7532 12.4406
58 1 5.16475 0.241709 15.9421
35 2 14.1416 3.50196 7.12678
2595 3 15.8653 3.55981 8.99163
3640 1 5.1409 17.8221 16.2696
593 3 3.6987 7.16874 7.1076
27 2 1.83861 5.39596 7.28754
2091 3 1.94714 3.72604 8.95945
1096 2 3.70229 5.11138 9.08708
2616 1 3.57605 3.34971 10.6552
1095 1 5.46427 5.22131 7.06473
3607 1 5.53995 5.01721 10.6873
1097 2 8.97489 5.21446 7.21576
3091 1 7.17079 5.42805 8.79641
3609 3 8.80011 5.36494 10.8022
46 1 10.4156 7.20093 10.7687
1098 1 10.6869 5.58163 8.95843
1099 1 12.4056 5.41546 7.30416
34 2 12.4884 3.92749 8.99748
3611 2 12.409 5.6002 10.782
609 1 14.0949 7.2968 10.3414
36 2 14.3858 5.52614 9.00081
2093 2 16.189 6.90049 8.83927
3612 1 16.084 5.41467 10.913
38 2 3.42645 10.657 7.28787
1093 3 1.7066 6.99168 8.99478
1102 1 1.51844 9.04881 7.04072
2596 2 1.64545 10.6606 8.88655
1586 3 17.6497 16.0262 1.8495
591 2 6.7675 7.09674 7.19209
3591 1 5.34148 7.15343 9.04857
37 3 3.55706 9.21386 8.83234
1588 2 8.7456 7.25634 8.79548
2096 2 7.27135 9.14891 9.20598
3596 2 8.99348 10.8117 8.95087
1598 2 12.4588 8.92312 7.09692
32 1 12.7073 7.16232 8.76221
598 3 10.8109 8.75165 8.81681
2597 3 14.4628 8.99441 8.69656
1071 3 -0.0288938 5.41481 1.68386
595 1 14.271 7.12347 6.97953
72 3 7.29044 14.6263 14.3948
1122 1 16.1236 8.72399 10.3296
1109 3 15.9503 10.7422 9.01741
3637 2 3.34116 16.0453 16.0842
1642 2 5.25273 16.1945 14.557
2103 3 1.83969 12.5682 7.37715
2599 2 3.37725 14.2144 6.80643
3094 1 1.65147 14.219 8.99932
1123 2 1.86888 12.5496 10.8105
1600 1 5.34519 12.5001 7.12881
3095 2 3.7488 12.7628 8.86156
1618 3 3.54705 14.3243 10.7552
1105 1 5.40726 10.9639 8.84173
3121 3 3.56621 11.0035 10.6812
1124 3 5.4859 12.7473 10.3211
1601 3 7.28797 12.5787 8.73497
3097 1 8.97025 12.6542 7.03984
3598 1 10.8733 12.3925 8.95713
2598 2 12.5358 10.6669 8.72656
1620 3 12.3585 12.4457 10.8846
516 1 3.23083 14.3511 14.4785
1114 3 17.751 12.4402 5.4051
3150 1 1.64409 16.0529 18.1418
3120 2 0.0287374 10.7477 10.7592
1602 3 14.3183 12.6163 8.82565
3102 3 16.0792 14.3263 8.98321
1126 1 14.2667 14.3744 10.6274
2105 1 5.306 17.7564 8.86422
1604 3 1.62219 16.0439 7.2488
2119 3 1.91783 16.0313 10.7695
3126 3 17.9577 14.3395 10.4721
2638 2 14.4383 8.79644 16.2472
3588 3 17.9543 1.73832 5.28213
1111 2 5.54835 14.3598 8.56075
2106 2 3.6396 15.898 8.88173
40 3 7.17421 16.254 9.21049
1593 3 17.8715 5.10033 9.12942
3096 1 8.88376 14.4664 8.99357
2107 1 8.98798 15.883 7.1417
2108 3 10.6883 16.1181 9.19615
617 2 10.7741 14.403 10.7195
2625 1 8.86469 15.9946 11.0012
1115 1 12.4135 18.0988 8.95439
3583 3 -0.180694 1.66134 5.18315
1113 1 12.3392 14.4267 8.989
2626 1 12.2996 16.1903 10.589
2135 2 16.0745 10.4759 16.2065
3620 1 14.3316 17.9056 10.6277
603 2 14.0189 15.9756 8.82538
602 1 14.1596 14.2912 7.03545
2109 1 16.1781 15.9421 7.08556
2628 1 15.9378 16.3756 10.6151
2095 2 -0.19233 9.03311 9.12574
2636 2 0.0440945 10.6104 14.3941
1633 1 16.2042 7.16883 15.9708
43 3 3.60712 1.63396 12.635
2629 2 1.94952 1.45597 14.1267
2126 2 3.58133 3.30451 14.1259
1144 3 12.4003 10.5249 16.1019
605 2 7.24235 1.56971 12.5914
2612 3 9.08766 1.5949 10.5344
2128 1 6.98482 3.61504 14.3243
2134 3 7.19566 8.90338 16.2326
606 3 10.6001 1.57877 12.517
3610 3 8.74249 3.52299 12.5099
3137 1 10.9457 3.48463 14.1577
610 3 12.6126 3.81899 12.3358
3116 3 15.7153 1.8962 11.1011
2623 3 1.90165 17.786 12.3173
1117 3 14.1073 1.61185 12.8068
1121 3 16.1524 3.22499 12.705
2606 3 1.7797 17.6434 9.00927
2637 3 10.7493 8.75175 16.129
2641 3 1.31556 14.3607 15.969
607 3 1.97487 3.27984 12.5436
3117 2 1.87122 5.0028 10.9257
3624 1 1.73729 5.26084 14.288
1610 2 3.62134 5.39164 12.3418
1119 2 1.71271 7.02559 12.5587
3146 1 17.7805 14.1192 14.5958
3608 1 3.36414 6.95922 10.7714
608 2 5.50154 3.40001 12.4533
3626 3 5.29066 5.26616 14.2974
60 3 6.96485 7.27245 14.3327
45 3 7.06437 6.98111 10.7458
1612 2 7.01483 5.32807 12.5788
2114 2 8.8434 6.7139 12.6648
3629 3 8.61771 5.50776 14.3638
1613 3 10.6081 5.20779 12.6022
3630 1 12.3551 5.58293 14.3345
1614 2 14.3499 5.56977 12.4075
3138 2 13.9924 3.59605 14.3141
2618 3 16.0419 7.50377 12.5376
2569 3 3.3429 3.55579 0.166393
48 3 1.76585 8.91168 10.8284
67 3 2.04978 8.74357 14.1884
49 3 5.34417 8.93768 10.6793
1611 3 5.33762 7.11682 12.3394
2116 2 3.58118 8.93022 12.385
2619 1 7.028 9.02054 12.6736
70 2 5.16668 8.97404 14.5973
613 3 8.99684 9.139 10.6909
71 3 8.73588 8.90903 14.3511
69 1 7.06901 10.6794 14.2482
614 2 12.5365 8.9646 10.7357
3628 2 10.5358 7.03629 14.2652
2617 3 12.4486 7.17387 12.507
2620 3 10.5306 8.83722 12.587
510 3 12.7786 8.79134 14.2303
3122 3 14.2382 8.82436 12.2533
1617 2 12.4703 10.74 12.6232
3144 1 14.1373 12.3511 16.3663
511 1 15.975 8.96591 14.3127
2118 3 15.9215 10.4204 12.4715
3631 3 14.4497 6.9791 14.2569
611 2 1.84816 10.7535 12.6545
514 1 1.82786 12.5526 14.3433
3124 3 3.56217 12.7196 12.5964
2136 2 1.77601 12.5612 18.0363
1577 1 6.9165 10.8079 -0.203028
12 2 14.1479 3.32674 -0.197213
1616 2 5.17314 10.8505 12.3911
515 3 5.23831 12.6261 14.2968
612 1 6.91273 10.8055 10.681
1125 2 9.17582 12.4858 10.5733
2117 3 8.80297 10.8207 12.434
3125 3 6.84285 12.5869 12.8311
3613 3 10.6436 10.593 10.8907
50 1 14.2436 10.7092 11.148
3141 3 10.47 10.7438 14.4164
1147 1 12.4068 12.6306 14.2702
3616 2 10.5704 12.27 12.6582
1621 2 16.053 12.3153 10.9158
1149 1 16.0454 12.2748 14.4858
3617 2 14.3184 12.2292 12.6133
3635 3 13.9857 10.7978 14.2614
3618 1 16.0044 14.2051 12.4545
1116 3 10.6583 -0.182384 10.7516
1150 3 1.6642 15.9605 14.1116
3123 1 1.78654 14.2756 12.4969
1148 3 17.7938 12.534 16.6264
3614 3 5.46129 14.3021 12.4173
2120 2 5.5029 15.8837 10.5851
53 3 3.55802 15.8677 12.6331
1619 2 7.32559 14.0771 10.9723
3615 3 9.08917 14.0159 12.5683
618 1 7.10537 16.2099 12.6747
54 1 10.9552 16.1427 12.4715
1646 3 12.5543 16.3301 14.552
73 1 10.859 14.0864 14.3095
2622 3 12.7147 14.3449 12.6333
3143 2 10.1492 12.6868 16.1711
1146 1 14.5705 13.9235 14.415
1636 3 8.83667 10.5949 16.1887
1584 2 17.8622 14.0659 3.42299
620 3 14.5575 16.1977 12.2792
621 1 0.074712 1.63342 16.2213
1129 1 3.60342 1.96257 16.1367
503 3 1.7339 3.70441 16.3748
19 2 12.342 15.7656 -0.254676
3128 1 5.4532 1.79522 14.3684
1131 3 7.03767 1.75071 15.8996
26 1 15.7738 -0.17238 8.66886
1091 2 10.5751 17.663 3.59412
3129 1 8.94417 1.83532 14.3148
1145 1 8.60112 12.4467 14.4954
2094 2 17.8762 7.09023 7.2665
1133 3 10.4142 1.33784 16.0093
3131 2 12.1977 1.7529 14.4172
1134 3 14.3116 1.47543 15.9787
3107 3 6.93482 17.4635 7.22964
3142 2 6.78905 12.7407 16.1211
3132 1 16.1216 1.34853 14.4687
1139 1 16.0634 3.51226 16.077
3093 2 17.5962 10.7323 7.2259
3105 3 3.53305 17.7515 7.03589
1630 1 3.41949 5.24869 15.8371
504 3 1.65726 7.16945 16.2327
2566 1 14.4945 0.0336905 -0.275302
3136 2 3.59735 6.95442 14.3933
1631 3 5.46833 7.30984 16.1781
61 3 5.30051 3.57309 16.0453
1629 2 7.20356 5.50578 16.084
506 3 9.17571 3.38995 15.8032
2129 3 8.98327 7.0757 16.1382
1632 3 10.8092 5.25247 15.9424
3084 2 -0.0943474 -0.031858 7.12662
2130 3 12.5289 7.29699 16.0969
1136 1 12.7652 3.58966 16.0959
2642 3 3.55773 12.6933 16.0743
65 1 16.2496 5.34158 14.3888
2131 1 14.3486 5.3179 16.1824
1635 3 5.19224 10.8475 15.9952
1141 3 1.80978 10.9786 16.1041
2133 1 3.37989 9.04101 15.9667
1639 1 17.8813 10.5322 14.4664
2593 2 8.77565 -0.0563336 5.2498
505 1 3.70084 7.0175 17.7429
2075 3 16.2638 8.74953 -0.0555853
3065 1 16.1442 1.56947 -0.0561394
508 3 1.92384 8.80468 17.8314
18 2 9.03806 15.87 -0.106535
3082 3 18.0175 17.9654 -0.0101292
3634 2 10.7742 10.8242 17.9939
3574 3 14.4563 13.9666 -0.250824
11 2 12.5751 5.32121 -0.00850644
1070 3 10.4673 -0.0952509 -0.106583
3076 3 1.80925 15.9098 -0.271531
576 1 3.30317 10.6028 -0.121872
3139 1 14.4729 3.28654 17.7916
2070 1 17.9964 7.04439 0.148183
3565 3 -0.263307 7.12993 0.314125
2646 3 12.186 12.5746 17.855
4 2 1.73997 5.2907 0.256063
1567 3 7.30215 6.83128 0.171666
3074 3 12.5694 12.4266 -0.0484113
1085 3 5.24809 9.12859 -0.0765901
3130 3 12.2528 1.94472 17.6819
1086 3 9.14413 8.96761 0.0849759
8 1 3.54373 7.17282 -0.124184
80 2 3.46628 1.70386 19.5159
1717 2 16.1226 15.8266 32.3306
3164 3 8.82636 17.9383 19.8606
79 2 6.89883 1.83648 19.577
3649 2 5.44324 3.58766 19.6153
517 3 17.6282 14.6174 17.8939
2147 2 5.13275 1.68697 21.4712
2668 2 1.85029 0.016762 26.8102
2572 1 0.168338 13.9993 35.6896
1158 3 -0.194623 9.05991 19.5278
1695 2 -0.177746 8.63455 30.4814
81 3 10.5259 1.75348 19.5989
85 1 8.86402 3.59405 19.9162
68 2 3.36876 10.5718 18.091
2696 3 0.0756549 10.4501 28.7713
3627 2 5.2845 5.2782 17.865
1702 2 14.3222 17.635 28.5811
3147 1 16.143 12.563 17.9308
521 1 3.53868 0.347388 21.6474
522 1 14.4021 2.12904 19.5588
3651 1 16.1289 3.44418 19.6211
2 2 18.021 -0.114296 35.3792
3154 2 1.50927 3.56029 19.42
524 3 3.36006 5.60019 19.5276
84 1 1.52701 7.24066 19.7728
1700 1 1.70678 17.7493 30.3265
525 1 7.03988 5.22163 19.7234
1152 2 5.34863 7.15674 19.5418
3648 2 5.45 5.473 21.4515
2084 2 10.5594 14.1123 36.0083
1190 2 0.0554974 5.04725 30.3463
1155 3 10.7151 5.23726 20.0222
3650 3 8.75708 5.49956 21.469
2691 3 8.95632 -0.242699 30.6424
87 3 12.392 3.81391 19.5764
2127 1 3.37919 3.63157 17.8357
638 3 17.9213 3.41543 32.2282
77 2 15.9903 16.3665 17.8551
1156 3 14.4141 5.30799 19.5926
1143 1 8.97636 8.77983 17.774
3657 1 -0.188753 1.86185 26.7393
1142 2 5.31985 8.96955 17.8887
1159 1 3.57588 8.80102 19.6412
3653 2 3.51921 10.6939 21.6823
529 2 1.84399 8.87985 21.4898
111 3 0.0551675 12.3469 27.0878
533 2 7.29904 10.7172 21.6277
532 3 5.31574 10.4444 19.9517
531 3 5.36724 8.68007 21.8918
1154 1 8.95901 6.91386 19.924
1651 1 6.96804 8.96465 19.7426
1153 3 7.1447 7.20241 21.5315
1161 3 9.04807 8.84604 21.6131
527 3 12.5509 7.23119 19.9224
1652 3 10.5036 8.84505 19.8971
1162 3 12.5634 8.99119 21.6081
1653 3 14.0127 9.00049 19.8851
1157 3 15.9112 7.34623 19.6528
1656 3 16.272 10.8964 19.8535
3710 1 14.3069 15.9771 34.0534
647 2 10.5239 17.9554 32.3216
530 1 1.71219 10.8515 19.816
1659 3 1.88634 14.4749 19.6461
1658 3 1.8081 12.4446 21.6601
3693 2 -0.0764507 15.9497 30.3645
2149 3 3.53625 12.6087 19.6481
1661 1 3.75501 14.2745 21.7946
2150 3 5.15913 12.2937 21.4566
90 2 8.90675 10.4588 19.5331
2151 2 7.11976 12.1335 19.7832
2152 3 10.5459 12.5541 19.6247
1662 1 8.76537 14.285 19.7539
2153 2 9.20594 12.2748 21.467
3673 3 -0.0297941 15.9087 26.751
534 1 12.4092 10.9723 19.683
2155 1 14.3749 12.5898 19.5702
2659 3 12.513 12.7738 21.3833
3642 3 8.69686 15.9755 17.8936
2156 2 16.1366 14.5283 19.6158
2660 1 14.4581 14.2871 21.4606
2661 3 15.9739 12.6138 21.5483
1704 3 0.0487782 3.94546 32.1863
3161 2 1.74339 15.9806 21.4615
1164 2 17.8952 14.423 21.6089
557 1 17.8175 12.4651 23.1896
3218 1 12.3279 17.6978 34.0391
2639 2 17.5939 10.7368 18.0557
2138 1 5.43505 11.845 18.0218
2667 1 0.151009 -0.0517188 25.1515
1163 1 5.44312 14.267 19.8526
2664 2 3.68812 16.0933 20.0359
2663 2 7.09527 16.0572 19.5697
3163 3 5.58048 16.0409 21.4836
3160 1 6.95891 14.2965 21.4103
3152 3 8.69224 0.0132819 19.7842
3655 2 8.51163 16.0625 21.5311
523 2 -0.11888 5.50679 19.8292
2154 3 12.4444 14.1219 19.58
2665 2 10.462 15.9227 19.7743
3656 3 12.6224 16.1721 21.2424
1637 2 14.1516 10.5586 17.9578
63 2 10.9456 6.73676 18.0586
1660 1 -0.0576052 14.3061 21.5674
3166 1 14.41 15.993 19.5583
1657 3 -0.0287846 12.844 19.5173
1077 2 10.6465 7.1328 35.8013
558 3 12.2941 17.8868 26.7593
1634 2 17.8016 7.37392 17.9966
2145 1 1.61562 1.95013 21.6107
3202 3 16.1835 17.399 30.5895
2644 3 10.7204 14.414 17.9179
631 2 -0.113152 1.59598 34.0499
3169 2 3.3671 1.84084 23.2974
3175 1 3.35366 3.65555 25.2599
3170 2 7.05771 1.77179 23.1822
2652 2 8.6638 1.64199 21.4584
2205 2 -0.136327 12.3072 33.8304
537 3 8.72151 1.41767 24.8664
3660 3 10.7 1.54963 23.0982
2656 3 10.8551 3.62497 21.3681
2653 1 12.3319 1.72657 21.4205
3153 1 16.113 1.50457 21.2077
3663 1 14.0722 1.67017 23.1982
3668 2 16.2336 3.17939 23.2601
539 2 16.1118 1.76714 25.0374
3155 1 1.57544 5.26684 21.3773
526 3 3.3827 7.14812 21.579
3173 1 1.80639 3.7971 23.1569
98 1 1.80675 6.89544 23.7447
3213 1 12.5087 14.3546 33.7858
2655 1 3.65297 3.4419 20.9446
3156 3 6.76642 3.50622 21.6386
100 3 3.52794 5.46411 23.4942
3665 1 4.99289 3.63988 23.249
542 1 6.96923 5.60722 23.2734
543 3 5.36182 5.05358 25.2355
3666 1 8.80162 3.43751 22.9714
547 3 8.89745 5.09261 24.8894
102 3 10.811 5.13331 23.1428
2675 3 7.08921 3.08752 24.7943
3179 2 12.5629 3.53414 23.2935
88 1 12.628 5.3732 21.2182
548 1 14.2625 5.08319 23.1527
2657 1 14.4718 3.40313 21.5143
1716 2 12.4282 16.2558 32.363
89 3 16.0879 5.24985 21.4346
540 2 3.56695 6.98008 25.2221
106 3 1.83194 10.7096 23.3196
1177 2 3.42481 8.83896 23.4569
1175 1 1.7792 8.71499 25.1868
2160 1 15.7103 0.244162 23.2497
541 1 5.23427 7.08777 23.4994
108 2 5.28125 10.5947 23.458
1176 1 5.56058 8.9891 25.18
1170 2 10.7812 7.19636 24.6347
86 1 10.8489 7.15218 21.6927
1178 2 7.09324 8.82786 23.379
546 2 8.82454 6.99469 23.3196
552 3 8.85581 10.9642 23.457
1181 2 9.07208 8.90183 24.6641
1674 3 11.1407 9.1948 23.4179
1670 2 12.5103 6.99756 23.395
1675 1 14.2918 8.92965 23.2483
2148 3 14.2074 7.28096 21.6815
1655 2 16.3719 8.98988 21.4352
1671 2 16.2574 7.2429 23.1716
2169 3 3.78068 12.4145 23.2895
1678 3 1.64168 12.3877 25.0195
639 3 17.8973 6.8805 32.1168
1185 3 5.29727 12.567 25.2632
2170 1 5.42205 14.555 23.4869
2167 1 7.14182 12.3294 23.132
2681 1 9.01047 12.9526 25.1219
113 3 7.00097 14.3099 25.3474
1180 3 7.05641 10.8763 25.0544
1654 3 14.3806 10.59 21.3612
1160 2 10.7 10.8374 21.619
1182 2 12.3562 11.0617 23.2618
2171 2 10.5833 12.6951 23.2407
2684 2 14.2757 12.4428 23.3574
1677 3 16.2549 10.5148 23.2534
2685 2 16.0059 12.0766 25.0925
3217 2 10.6063 15.8423 34.1922
128 2 3.37679 17.728 28.4935
1184 2 1.58372 14.4119 23.3694
1684 1 1.63204 16.2909 25.008
2168 2 3.4083 14.2443 24.9744
3133 2 16.1145 1.58103 17.8099
64 2 12.5915 5.36328 17.86
3185 3 3.38588 16.2013 23.3369
3187 1 4.86152 16.0432 25.1983
3186 1 7.05226 16.2212 23.5669
2682 1 8.82625 14.2836 23.3701
1686 3 8.95812 15.9931 25.2849
1718 1 17.912 16.3012 34.0789
2658 1 10.4865 14.4099 21.2026
2683 3 12.5949 14.4352 23.2254
3675 1 10.3947 16.1186 23.1642
3676 1 14.2912 16.24 23.3254
92 2 15.9854 16.0903 21.5008
2173 1 16.1849 14.5074 23.2823
550 3 0.1782 8.87705 23.3368
2183 2 14.4111 -0.150442 28.4767
75 3 12.5277 16.1309 17.8311
93 2 1.76274 1.98144 25.2036
1168 3 1.53492 3.63842 27.0448
2180 3 1.98751 1.71082 28.6802
1683 2 1.59089 17.8077 23.2214
2669 2 3.7074 1.61143 26.7935
3658 1 5.03488 2.08195 24.7134
2181 1 5.40208 1.58801 28.6924
3176 1 5.61141 3.33601 26.9835
94 1 7.05293 1.47967 26.8031
1171 1 8.8304 3.26039 26.6768
1691 3 7.25507 3.28001 28.4909
2158 3 5.07375 0.187177 23.4014
3661 2 12.3585 1.75533 24.9665
2672 3 10.7987 1.74418 26.9025
104 3 12.3563 3.58135 26.5215
2146 2 6.8875 0.0329988 21.5967
105 1 14.2578 3.47333 24.7688
538 1 14.3443 1.686 26.6662
1188 3 -0.0364477 0.0590287 28.5428
99 3 1.68724 5.41977 25.2599
2207 3 8.71879 14.1906 33.8797
3206 1 17.5692 1.74947 33.9471
544 1 3.77539 5.47803 27.1454
3195 1 5.48661 5.65824 28.7448
3177 3 10.5363 3.45867 24.7255
2676 1 7.09204 5.20095 26.6062
545 1 10.5716 5.37374 26.7868
549 2 12.417 5.29532 24.88
3667 1 14.4794 7.05741 24.8261
3178 3 12.5397 6.7419 26.7908
3180 2 16.1833 3.56507 26.8538
103 1 14.6153 5.20493 26.7788
1172 2 16.1883 4.96721 24.8584
3685 2 16.1318 5.08784 28.623
1187 1 17.8659 16.2876 23.3428
1669 1 1.70831 7.21165 26.983
3687 3 1.72958 9.01649 28.6703
3215 3 7.04466 16.1577 33.7994
101 1 7.35554 7.21866 25.053
3174 2 5.59217 7.34515 26.8533
107 1 3.60299 8.87934 26.7684
1179 2 5.59218 10.4222 26.8678
3670 2 3.72567 10.7443 25.1909
3688 3 3.78336 10.7103 28.532
1169 1 9.14422 6.98052 26.913
2162 2 7.5637 9.22016 26.6546
109 2 9.10756 11.0826 26.6631
1676 3 12.5472 8.64624 25.5891
551 1 10.8979 10.9261 24.954
3684 1 14.2623 7.13462 28.5523
110 2 10.2861 8.92621 26.6181
2164 3 14.5779 8.96246 26.8389
1183 3 16.1441 8.75738 25.0819
1174 1 16.2605 6.96476 26.9131
628 1 16.0784 8.76063 28.8321
554 2 16.3645 10.5238 26.7645
2161 2 1.80963 10.6073 26.8521
2680 2 3.41612 12.6368 26.7343
1006 3 5.26897 12.5944 28.5522
630 1 6.93402 14.4574 28.7964
2698 2 10.4643 10.7358 28.5303
1680 1 10.9944 14.4652 24.8526
1679 2 7.10074 12.544 26.9949
3182 3 10.9215 12.708 26.9804
1008 3 8.96636 12.6512 28.6268
2172 1 8.7866 14.3736 26.8883
1681 3 12.2902 12.6747 25.0277
3181 3 12.3445 10.8276 26.7635
1682 1 13.9481 12.2178 26.9468
2163 3 13.9505 10.4931 25.1361
3184 3 16.0852 14.2411 26.909
1011 2 16.2079 12.2194 28.7251
2079 2 1.76015 12.0778 35.6769
3210 3 -0.1029 10.3781 32.4254
2679 1 1.71787 14.1748 26.8607
2192 2 1.58534 15.9174 28.5247
1685 1 3.3586 16.0294 26.8826
1007 2 3.4906 14.3364 28.6489
1701 3 7.24356 18.0634 28.6974
1715 2 6.98911 18.1405 32.0471
2198 1 0.142775 6.84248 32.1767
3135 3 7.23576 3.39178 17.8583
112 2 5.1268 14.3888 26.8615
3674 1 7.03029 16.2218 26.7022
2193 1 5.23875 16.0527 28.4211
2719 1 17.6862 14.293 32.0846
2194 3 8.90485 16.0427 28.8266
3188 1 12.6949 16.2563 25.1535
114 2 14.547 14.198 25.171
556 1 12.5752 14.3488 27.4268
1688 3 10.7068 16.0174 26.9783
62 2 8.83621 5.43189 18.071
1689 1 15.8774 16.0746 25.1174
116 3 14.2191 16.1425 26.9794
1699 1 14.4301 14.2286 28.6071
2704 3 16.2441 16.0477 28.4899
140 1 0.0720508 14.3311 32.2692
117 3 3.50622 1.41749 30.4119
120 1 1.85551 3.58036 30.2364
1690 3 3.5111 3.42743 28.6027
1663 1 3.5108 17.6843 21.6439
3680 1 5.24104 3.6383 30.3352
118 3 7.21197 1.76578 30.581
2708 3 5.38055 1.45413 32.287
2710 2 7.12361 3.59236 32.3788
3708 3 6.99665 14.2752 31.9032
2182 3 8.81445 1.48195 28.7132
2709 1 8.92677 1.84977 32.0673
3662 1 14.0409 0.134103 25.2994
2184 2 12.4609 1.96661 28.6851
119 3 10.6876 1.51178 30.2832
561 2 14.4166 1.43831 30.1382
1003 3 12.4215 3.1323 30.5777
2714 1 16.4036 10.4428 34.0189
3193 2 15.9326 1.74657 28.3665
3205 3 16.0127 1.72255 32.1052
1713 3 5.39172 14.1336 33.7312
3194 3 1.85446 5.62165 28.6289
3207 1 2.11958 5.5747 32.2756
1001 1 3.69214 5.55315 30.0764
121 2 1.67494 7.0955 30.3326
3196 2 3.50678 7.39077 28.6246
1191 2 7.1688 5.15667 30.6153
3700 3 3.72829 7.02669 32.4758
1692 2 5.6052 7.29524 30.527
3197 3 8.83423 4.99235 28.6517
2694 1 10.4951 3.13517 28.4927
3682 3 9.00727 3.40225 30.4423
3681 2 10.638 6.84892 28.7322
3683 2 12.4933 4.97978 28.5679
1002 2 10.7966 4.91566 30.041
3703 1 12.1867 5.15075 32.0861
2631 2 8.92957 1.7422 18.0337
1028 3 8.87007 17.8876 34.3119
2695 2 14.4282 3.34087 28.6282
623 2 16.2758 3.39504 30.2751
1693 2 14.2645 5.09488 30.1772
1694 1 16.0257 6.83307 30.5372
2570 3 7.17236 3.47015 35.7224
624 1 1.71663 10.7211 30.5067
3706 2 1.90988 8.56962 32.24
136 3 14.4404 10.3333 32.2037
122 3 7.22956 10.6558 28.8593
3689 1 5.64307 8.91188 28.6315
1696 1 3.36819 8.65024 30.5579
134 3 5.42297 8.9541 32.0671
3212 3 7.10281 10.8493 32.2814
563 3 7.1551 7.06307 28.4619
2693 2 8.9555 6.96682 30.3409
625 3 9.08306 8.72556 28.7189
2189 3 7.14379 8.82986 30.1567
135 1 8.91562 9.20053 32.048
3701 2 7.45804 7.22723 32.3165
2187 1 12.541 6.85539 30.156
2697 1 11.003 8.78679 30.5233
626 2 12.2833 8.88142 28.4851
627 2 12.546 10.7119 30.4575
2699 3 14.4334 8.88019 30.4238
139 2 16.1639 8.56769 31.9671
3209 1 14.2538 7.102 32.1788
629 3 1.80714 12.6133 28.6824
2700 3 3.51136 12.3893 30.3277
641 1 1.75244 12.301 32.2933
3707 2 3.47969 13.9993 32.1052
3216 2 3.5849 15.7682 34.0337
3211 1 3.62844 10.6365 32.232
2188 2 5.31155 10.7629 30.2531
3199 2 7.23531 12.6206 30.423
1697 3 8.98879 10.5845 30.4935
3200 3 10.5339 12.5201 30.3753
124 2 10.7183 14.4449 28.9145
643 2 10.5445 14.3393 32.143
1009 1 12.6825 12.3198 28.8539
3201 1 14.444 12.2375 30.6144
2702 1 12.4587 14.3973 30.2519
3690 2 14.1437 10.5269 28.7682
2190 3 16.2237 10.6113 30.4436
645 1 14.4201 14.1748 31.8825
509 1 7.21801 10.3458 18.0173
2206 1 1.61501 14.2726 33.9667
1026 3 1.80148 16.1947 32.3069
3691 3 1.77862 14.2628 30.4158
2177 2 10.7157 17.9669 24.9569
3198 2 5.19063 14.2677 30.3962
126 1 3.50538 16.1342 30.322
1027 1 5.02361 15.9309 32.2671
127 2 6.87044 16.2086 30.4595
2701 3 8.94545 14.3433 30.5148
1029 3 8.79543 16.2819 32.1527
2718 3 14.1818 12.6071 33.9024
3696 2 10.7265 16.3079 30.4418
2195 1 12.5795 16.1833 28.6336
125 1 16.0775 14.3255 30.0867
129 1 14.2198 15.9193 30.0296
2720 3 16.034 14.0203 33.8648
2707 3 1.65739 1.75761 32.1847
1705 3 3.64616 3.76507 32.4529
3709 3 5.45589 17.7762 34.1422
1024 1 16.2592 12.1361 32.3325
633 2 3.44175 1.83687 33.8177
632 2 7.00375 1.64989 33.9504
3151 3 1.52855 -0.117603 19.9315
1020 2 8.90207 3.47525 33.992
634 3 10.8126 1.43603 33.9993
3204 3 12.7361 1.69729 32.3116
1023 1 12.7131 10.4982 34.0752
2716 1 7.07964 12.5495 33.6872
644 2 9.06635 12.3653 32.1892
2717 2 11.0437 12.4799 33.9284
646 2 12.5792 12.6376 31.6738
1016 1 14.3349 1.76569 34.0997
3699 1 1.63362 3.71607 34.1479
1022 1 5.12269 10.7862 34.0147
1018 2 3.59737 5.40433 34.3854
3208 3 5.42106 5.18692 32.2711
132 2 5.46708 3.33162 34.0151
1019 1 7.23447 5.25014 34.1108
3702 1 9.27183 5.05157 31.9846
1707 2 10.7441 5.067 33.8436
1714 2 3.64474 17.7872 32.2862
642 2 5.19756 12.3727 31.9354
637 3 12.5269 3.55175 33.6754
2711 3 10.6888 3.27125 32.1534
1021 1 12.3593 6.97675 34.0082
3695 3 8.62091 18.1609 30.5206
2715 2 3.57426 12.3327 33.9402
3704 2 16.0288 4.99685 32.1623
133 1 15.9746 3.55514 34.0161
2200 2 14.4602 3.54695 32.1598
1708 1 13.9818 5.44939 34.1141
3075 1 16.2099 12.4156 35.5331
17 1 5.105 16.0801 35.781
636 1 1.76671 7.19523 33.9974
1712 3 3.60313 8.91038 34.1039
3219 3 17.8943 17.5646 32.1761
2199 3 5.46715 7.33953 34.4134
2201 2 7.30064 9.07568 34.1503
2713 1 10.8705 10.7785 32.1267
1706 2 8.91898 7.07438 34.0626
640 2 9.09774 10.6844 33.9678
1710 2 1.90525 10.586 33.7674
2712 2 10.4831 7.19669 32.0971
2203 1 14.4927 8.67291 34.0144
137 1 12.5671 8.72502 32.3748
2202 3 10.7979 8.6951 33.9059
1709 1 16.3145 6.918 33.9459
9 2 8.97962 5.12328 35.9482
97 2 -0.115907 7.08961 25.131
2174 2 5.41509 17.8698 23.5198
2662 1 -0.0191476 16.0262 19.8128
2197 2 14.2661 -0.0888648 31.9701
2576 3 6.85072 14.2717 35.7837
1166 2 17.7082 16.0247 19.8588
2186 1 -0.0608584 7.11147 28.6886
2073 3 12.4131 8.79265 35.7539
1137 2 14.4889 7.17005 17.8269
1673 2 0.0685089 8.99024 27.021
2191 3 -0.119678 12.484 30.4712
2721 3 1.98653 17.9423 34.2015
3162 1 5.43285 17.9021 19.7751
3192 2 12.6357 0.160168 30.3191
3183 1 17.697 14.3153 24.9341
83 2 -0.169681 7.2914 21.8996
2080 2 5.16303 12.4454 35.9581
3145 1 14.3376 14.6161 17.7068
1665 2 1.54243 0.173433 23.1334
2678 1 18.0327 7.16936 24.898
14 3 10.8923 10.715 35.5208
3646 1 12.3402 -0.00906225 19.5146
2635 2 10.5024 3.77235 17.894
3669 3 0.011047 10.8303 24.9711
3698 3 8.82178 -0.27155 33.9824
3168 1 0.00530359 1.66772 23.161
1030 3 14.4484 17.5781 32.2054
2185 1 -0.0170291 3.66796 28.6981
2196 1 11.0154 -0.00812696 32.2495
20 2 15.7307 16.0374 35.5625
2677 1 17.7953 5.35026 23.2458
1571 2 14.244 6.96993 35.85
2670 2 3.27192 0.0412586 25.0762
3165 2 14.092 18.0294 21.461
1078 3 15.9786 5.24745 35.4877
3071 2 3.52761 14.103 35.7744
2645 3 8.71708 12.4516 18.2109
1640 2 16.0483 8.98492 18.2396
2139 3 3.55031 14.2688 17.8386
7 1 5.50227 5.17363 35.6114
1135 3 7.1333 6.89826 18.0091