ITEM: TIMESTEP
5000
ITEM: NUMBER OF ATOMS
4000
ITEM: BOX BOUNDS pp pp pp
1.2826087608084435e-01 3.5605799123919496e+01
1.2826087608084435e-01 3.5605799123919496e+01
1.2826087608084435e-01 3.5605799123919496e+01
ITEM: ATOMS id type x y z
1 1 0.258606 1.86617 1.96455
1563 3 0.186892 0.245841 -0.0968287
2064 2 1.77647 2.09743 0.151115
3561 2 1.98065 0.161082 1.89058
564 1 3.41355 2.03942 1.77339
565 3 7.35812 2.02252 2.09336
1565 3 7.17292 0.151131 0.0772162
2065 1 3.62676 0.0175694 0.110974
3061 1 5.4415 1.89388 0.296368
3562 3 5.5583 0.145862 1.96892
566 2 10.7585 1.76883 2.00811
1070 1 10.7408 0.108887 0.100739
3063 1 9.06822 0.0686823 1.85155
3062 1 9.03739 1.99609 0.222402
567 2 14.3538 1.91654 1.7715
2566 1 14.267 0.0380835 0.0633689
3064 3 12.446 1.85264 0.221443
3563 1 12.576 0.0619559 1.95946
2 1 17.7983 0.171505 0.0877581
3 3 16.0164 0.105301 1.88425
3066 2 17.8059 1.80033 1.89223
3065 1 16.2327 1.76588 0.0902263
4 1 1.90204 5.47949 0.0132658
5 3 1.76929 3.86955 1.98584
6 1 1.8684 7.34149 1.75929
1071 1 -0.265248 5.49406 1.84048
3067 1 -0.0277696 3.65261 -0.0215001
3565 2 0.0835223 7.33229 0.0409768
7 2 5.34357 5.54813 0.101342
8 1 3.6183 7.28212 0.0443857
1072 2 7.2725 5.54203 1.8637
1075 1 5.44062 7.31908 1.96491
1074 3 3.67568 5.53699 1.75509
1567 1 7.32648 7.21975 0.132017
2570 2 7.21888 3.65039 0.187316
2569 1 3.5229 3.73044 0.0681348
3569 1 5.46806 3.72388 1.77561
9 2 9.08681 5.47885 0.18057
10 1 9.26002 3.81433 1.91999
1077 1 10.782 7.38771 0.254297
1076 2 10.8003 5.50686 1.99125
1568 3 9.0433 7.28728 1.88735
3068 2 10.7922 3.75009 0.168695
11 1 12.3975 5.47248 0.249047
12 1 14.3907 3.63976 0.0479695
570 1 12.4267 3.73409 2.02215
1571 3 14.2996 7.14255 0.218974
1570 1 14.315 5.27433 1.93818
1569 2 12.5608 7.28269 2.04156
572 2 16.129 3.5668 1.87601
1081 1 16.0044 7.23189 1.99476
1079 3 17.8668 5.48284 1.86623
1078 2 16.1908 5.43953 0.151695
1573 3 17.8643 3.58461 0.0664876
2070 1 17.8111 7.18721 0.244331
575 3 1.85598 10.8617 1.78472
1082 3 1.86486 8.97113 -0.0622773
1574 3 -0.0195046 8.9524 2.02154
3070 2 0.110287 10.7303 0.106289
576 1 3.87203 10.8697 0.126565
1085 3 5.38117 9.07664 0.201037
1083 2 5.52491 10.6891 1.89972
1577 3 7.2589 10.8137 0.233038
1576 2 7.16924 8.84755 1.86555
1575 2 3.70763 9.167 1.91038
14 3 10.6814 10.7334 0.100624
1087 1 9.12822 10.8415 1.92306
1086 2 8.85323 9.05703 0.115134
2071 2 10.8695 8.99995 1.86886
580 3 12.6465 10.7798 1.95512
1088 1 14.2805 10.6836 0.28099
2073 1 12.6157 8.94974 0.264469
2074 2 14.2778 9.05472 2.02976
15 2 17.9554 8.95399 2.05884
1581 1 16.2543 10.6917 2.02619
2076 2 17.7925 10.784 0.320299
2075 3 16.0436 8.98731 0.339618
2079 2 2.05938 12.5528 0.116435
2078 2 1.91327 14.2834 1.83719
2077 2 -0.100375 12.5689 1.68253
2572 1 0.224551 14.2504 0.124942
2082 3 5.43044 14.2889 1.76662
2081 3 3.59188 12.3873 1.96127
2080 1 5.50644 12.5436 0.163011
2576 2 7.29194 14.2717 -0.116435
2575 3 7.21878 12.462 1.88985
3071 1 3.60468 14.1873 0.122697
1583 1 9.05399 14.3026 1.791
2084 3 10.8159 14.2225 0.183124
2579 2 10.6586 12.4822 1.95983
3073 1 8.8748 12.6023 0.139841
2085 2 12.6108 14.3065 1.89455
2580 3 14.3961 12.6312 1.90137
3074 1 12.4594 12.4143 0.117546
3574 1 14.3639 14.2584 0.0456577
581 2 17.956 12.6583 1.793
1089 1 17.6495 14.4529 0.228568
2583 2 16.0101 14.183 1.90076
3075 2 15.9836 12.5734 0.0460867
16 3 0.194423 17.712 0.163913
2086 1 1.94904 17.8426 1.75556
2584 2 0.0974703 16.1425 1.84065
3076 3 1.9619 16.0299 0.064422
17 3 5.49899 16.0244 0.0524716
1090 3 3.63894 17.8299 0.126208
2585 2 7.26795 17.7727 0.111509
3079 3 5.42801 17.8211 1.7673
3078 2 7.1955 16.0546 1.91821
3077 3 3.6576 16.0421 1.9017
18 2 9.06281 16.0259 0.00948071
1585 1 10.9563 17.9723 0.00980827
3080 2 10.8828 16.0786 1.9902
3578 3 8.98864 17.8742 1.87463
19 1 12.5357 15.9424 0.105171
2088 1 14.2347 17.9245 0.294557
3081 2 14.2977 15.9877 2.08636
3581 1 12.4378 17.9376 2.04246
20 2 15.8079 16.1136 0.244758
1586 3 17.8682 16.1568 1.8474
3083 2 16.168 17.9046 1.95391
3082 3 17.8624 17.8892 0.108704
584 3 1.80612 1.95114 7.1966
1564 1 0.0287973 0.340081 3.64205
2588 3 1.75977 0.138477 5.46305
2563 1 1.97138 2.03505 3.87304
3084 2 0.130917 0.217703 7.19905
3583 1 0.0526646 2.02063 5.39259
22 1 5.47957 1.85923 7.39658
1069 3 3.62926 0.200608 3.79011
1566 3 7.38625 0.0549424 3.61717
2089 3 5.46523 0.222802 5.33342
2590 2 3.69516 0.112964 7.15513
2564 3 5.35525 2.0759 3.60653
3085 1 7.16715 0.157379 7.09378
3585 3 3.68879 1.88973 5.4455
3584 2 7.20316 1.86776 5.33876
586 2 8.95571 1.94818 7.14744
2066 3 10.7394 0.134938 3.69604
2593 3 8.9266 0.069596 5.33049
2565 1 9.13798 1.93207 3.80948
3086 2 10.5946 0.201973 7.29925
3586 1 10.7514 1.88444 5.52379
23 1 12.5293 1.86634 7.25436
24 1 14.4514 0.126576 7.08346
25 2 14.3397 1.82952 5.38906
2568 1 14.4084 -0.00958044 3.6552
2567 1 12.6456 1.93882 3.6745
3087 1 12.5344 0.0372709 5.45177
568 2 17.8781 0.0626819 3.69232
588 3 16.1048 1.81385 7.16801
1587 3 17.7763 0.16398 7.1742
3088 2 16.0902 -0.00918549 5.38679
3588 2 17.8712 1.9712 5.52795
3564 1 16.0622 1.93861 3.58801
27 2 1.86157 5.50311 7.32369
28 2 1.84681 7.03909 5.44795
589 2 0.046636 5.52235 5.46304
2067 3 0.124524 3.68508 3.67499
3090 1 1.83688 3.77323 5.41515
3590 3 0.0683822 7.17602 7.26439
3589 2 0.111386 3.74031 7.09777
3567 2 -0.00370843 7.21726 3.60225
3566 1 1.76927 5.60939 3.58215
29 2 3.65792 3.53855 7.28521
593 2 3.65284 7.12957 7.21037
592 3 7.16051 5.51304 5.4783
591 1 7.13212 7.16412 7.20485
590 3 3.62491 5.43689 5.52067
1095 1 5.36351 5.30077 7.18668
1094 3 5.40196 7.09982 5.46234
1073 1 3.518 7.14534 3.74317
2068 2 7.24828 7.28351 3.7931
2069 3 3.58921 4.03003 3.56183
3593 3 5.3964 3.70909 5.39284
3592 2 7.10219 3.57361 7.16929
3570 3 5.52145 5.48486 3.54175
3568 3 7.36387 3.69694 3.76895
31 3 8.97399 3.84558 5.56096
569 2 10.6997 7.40774 3.59505
594 3 10.7602 5.58587 5.5831
1097 2 9.05078 5.51402 7.37594
1590 1 9.03195 7.30301 5.67796
1589 3 10.6679 7.36901 7.30023
3594 1 10.6124 3.6848 7.30266
3572 2 10.7244 3.88273 3.81412
3571 3 8.9923 5.54823 3.71215
33 1 12.4158 3.6864 5.61265
35 1 14.4004 3.58415 7.27501
571 1 12.4526 5.47776 3.63486
595 3 14.3079 7.12561 7.37579
1100 1 14.3595 5.38501 5.70735
1099 2 12.5516 5.42601 7.43263
1592 3 12.5923 7.09063 5.5013
1572 3 14.4457 7.16822 3.79962
3069 2 14.3138 3.75208 3.70766
573 3 16.0861 5.448 3.67551
1080 3 17.944 3.50358 3.63879
1595 2 16.0847 7.20397 5.61424
1594 2 16.187 5.38004 7.32327
2094 1 17.8632 7.01624 7.14725
2092 1 18.0414 3.45834 7.38957
2571 3 17.7941 7.27003 3.84684
3092 2 17.8067 5.28197 5.60914
3595 3 16.1388 3.55492 5.51746
13 2 0.145681 10.8878 3.5625
597 3 0.137969 10.7719 7.1195
596 2 1.99589 10.8599 5.27975
574 1 1.97344 8.76273 3.61305
1102 3 1.68725 8.91041 7.16624
1101 1 0.0207397 9.07341 5.3178
38 1 3.50832 10.777 7.26804
578 2 3.63963 10.7088 3.74246
577 3 5.40731 8.97799 3.96837
1106 3 7.22107 10.7611 7.26901
1104 1 5.34973 10.6523 5.58917
1103 2 3.48148 8.96049 5.54128
1084 3 7.3117 10.6889 3.62276
1597 1 7.3355 9.11999 5.51773
1596 2 5.33405 9.00407 7.11979
39 1 10.8698 10.6749 7.1029
599 2 9.05173 10.821 5.40574
579 2 10.7242 10.7855 3.69301
1107 2 9.10315 9.23062 7.08125
1578 3 9.05791 9.15882 3.67155
2097 1 10.7414 8.94496 5.41655
1108 1 12.6172 10.8555 5.44414
1598 1 12.541 8.96634 7.35062
1579 3 12.5153 9.02797 3.75915
2072 1 14.285 10.8101 3.63137
2099 3 14.4159 10.8628 7.42867
2098 1 14.4468 9.0261 5.57768
1599 1 16.1926 8.87043 7.45912
1580 3 16.0676 8.91544 3.72976
2100 1 16.0535 10.7284 5.33766
3093 3 17.9735 10.7604 7.1568
3597 1 17.9226 8.98042 5.60531
3573 2 17.9323 10.8955 3.70906
1110 3 0.0115543 14.3105 7.29908
1582 3 1.77703 12.7181 3.55003
2103 2 1.8506 12.7029 7.2643
2102 3 1.99018 14.3158 5.30237
2101 1 0.0307693 12.5182 5.40004
2573 3 0.057075 14.3405 3.66435
1112 1 7.23171 14.2752 7.0357
1600 3 5.38873 12.5669 7.11888
2104 2 5.49922 14.3085 5.42979
2083 3 3.76285 14.2138 3.63692
2601 1 7.28091 12.4355 5.35279
2600 3 3.82009 12.4459 5.51001
2599 1 3.81858 14.282 7.16233
2577 3 7.24875 14.1917 3.7782
2574 3 5.3536 12.4458 3.69815
2604 3 9.10027 14.3552 5.42584
2603 1 10.7132 14.1857 7.19546
2602 1 10.7292 12.5529 5.37723
2578 2 9.01624 12.6276 3.6465
3097 1 9.20536 12.3824 7.14244
3072 2 10.7328 14.1278 3.6071
602 1 14.37 14.3074 7.31069
1603 1 12.4856 12.4931 7.34044
2605 3 14.4584 12.6525 5.45897
2581 2 12.7202 12.5811 3.68712
3098 3 12.4919 14.2704 5.4704
3575 1 14.3233 14.2851 3.84592
1114 1 17.8654 12.6123 5.4691
1584 3 17.9405 14.2798 3.61131
2582 1 16.0939 12.5142 3.62719
3100 2 16.2108 14.2787 5.46764
3099 1 16.2377 12.3858 7.26082
3599 1 18.0004 14.2943 7.31236
582 1 0.105085 17.8025 3.66554
1605 2 2.03892 17.8604 5.38628
1604 3 1.82101 15.9644 7.21619
3104 2 0.090903 15.9553 5.42088
3103 2 0.246661 17.7649 7.15883
3576 3 1.96258 16.1363 3.52846
2087 1 3.70997 17.9056 3.66731
2607 3 5.62057 17.7332 5.55909
2586 2 7.294 17.9365 3.62016
3107 1 7.29961 17.6807 7.29934
3106 1 5.40249 15.9898 7.27867
3105 2 3.62271 17.7127 7.22503
3602 2 3.79446 16.0107 5.29999
3601 2 7.23282 15.9942 5.595
3577 3 5.67139 16.0217 3.72471
1091 3 10.7201 17.8373 3.69691
2107 1 8.92291 16.0408 7.32175
2608 3 8.90839 17.7285 5.58406
3109 3 10.8058 17.7904 7.25631
3603 2 10.7327 16.0873 5.37683
3579 3 8.89058 16.078 3.6227
41 3 14.473 15.9247 5.54341
2610 2 12.6488 17.7258 5.62281
2609 1 14.2517 17.7045 7.25714
2587 3 14.3796 17.9572 3.76375
3604 2 12.5042 16.0529 7.12456
3580 3 12.4922 16.0269 3.78445
583 1 16.1499 15.9149 3.65174
1606 2 17.8472 17.8697 7.18444
2109 3 16.223 16.0728 7.33639
3112 3 16.2155 17.6345 5.47992
3110 1 18.0918 15.9787 5.32067
3582 2 17.8862 17.8346 3.68732
21 1 -0.0108704 1.87479 9.03879
604 1 0.138606 0.116092 10.7619
2110 3 1.87387 1.86721 10.6911
2589 2 1.99549 0.105208 8.93547
585 2 7.28215 1.68493 9.246
1092 3 5.46305 0.091587 9.13996
1608 1 7.2235 0.109136 10.7934
1607 2 3.66491 0.0878182 10.8808
2111 3 5.36358 1.90642 10.6817
2591 2 3.66204 1.7732 8.95498
1116 3 10.5837 0.140094 10.8581
2612 3 9.11836 1.85248 10.8001
2592 2 10.7721 1.95939 8.96519
3587 1 9.03118 0.00674808 8.90028
587 1 14.3381 1.68415 8.96995
1609 2 14.3275 0.198129 10.8213
2090 3 12.4837 0.177262 9.04648
2613 3 12.4486 1.83693 10.7245
26 2 16.1454 0.0892605 9.10755
2594 1 17.9693 1.72544 8.97277
3116 1 15.9838 1.81009 10.8125
3115 3 17.9496 0.17593 10.7504
1093 1 1.71688 7.20988 9.11914
2091 2 1.78757 3.69638 9.03296
2615 1 0.226379 3.69512 10.807
3118 2 -0.0347929 7.08035 10.7675
3117 2 1.78535 5.41023 10.8638
3089 1 0.0661785 5.44943 8.99867
30 2 5.46291 3.61595 8.96037
45 2 7.12999 7.3045 10.7283
1096 3 3.6966 5.41039 9.0129
2112 3 7.23581 3.65351 10.7549
2616 2 3.81913 3.61174 10.7315
3091 2 7.1806 5.41875 8.8412
3608 1 3.64616 7.24376 10.7087
3607 3 5.63379 5.43036 10.6825
3591 2 5.33335 7.10113 8.8475
46 2 10.8836 7.15122 10.9679
1098 2 10.7958 5.50319 8.98893
1591 1 8.91723 3.66033 9.0503
1588 3 9.02658 7.35799 9.07376
2113 3 10.7901 3.76603 10.8956
3609 3 8.95743 5.51697 10.6633
32 2 12.4897 7.20068 9.09484
34 1 12.6677 3.65011 9.04965
36 2 14.2488 5.46354 9.11781
609 2 14.2591 7.17839 10.8454
3119 2 14.394 3.50247 10.7477
3611 3 12.5792 5.42123 10.7977
1120 3 17.8423 3.82367 10.8952
1615 1 17.9801 7.03578 10.7648
1593 2 17.8994 5.34542 8.98917
2093 2 16.1583 7.1499 9.09387
2595 1 16.1278 3.72489 8.96467
3612 1 16.0747 5.43826 10.7754
48 2 2.04095 8.80921 10.8669
2095 2 -0.0329361 8.94601 9.07715
2596 2 1.69505 10.8342 9.11725
3120 3 0.122865 10.7458 10.8857
37 3 3.52885 8.95776 8.79971
49 2 5.34039 8.98106 10.5801
612 1 7.21551 10.7194 10.649
1105 1 5.35016 10.6535 8.9828
2096 3 7.12193 8.88971 8.77682
3121 2 3.55699 10.7262 10.7602
613 3 9.08084 9.02857 10.8303
598 2 10.7021 9.08405 9.02845
3613 3 10.846 10.6551 10.8027
3596 2 8.99504 10.749 9.10029
50 1 14.3972 10.75 10.7451
614 2 12.5688 9.03088 10.8719
2598 2 12.4647 10.5986 8.95659
2597 3 14.3349 8.94217 9.0714
51 2 17.9078 10.7019 10.6456
600 2 17.9879 8.95432 9.03194
1122 1 16.0284 8.84325 10.7188
1109 1 16.2316 10.6863 9.10179
616 2 -0.020512 14.2629 10.8702
601 1 0.174509 12.5199 9.04605
1123 2 1.90406 12.6205 10.879
3094 1 1.99095 14.377 9.07937
1124 3 5.45722 12.3073 10.9567
1111 2 5.33944 14.2224 9.15367
1619 3 7.17317 14.1136 10.8666
1618 1 3.61893 14.1505 10.8916
1601 1 7.13022 12.4952 8.93946
3095 1 3.68318 12.338 9.04939
617 2 10.6339 14.3588 10.7445
1125 2 8.86152 12.4269 10.7974
3096 1 8.75104 14.2014 9.09916
3598 1 10.7782 12.4173 9.2231
1126 1 14.2951 14.2914 10.7143
1113 3 12.4725 14.4392 8.83749
1620 3 12.6636 12.6624 10.7706
1602 2 14.3184 12.4573 8.87088
1621 1 16.2018 12.4617 10.8289
3126 2 18.0658 14.2683 10.8232
3102 3 16.1072 14.178 9.03044
3101 3 18.0613 12.5996 9.12117
1623 3 0.297715 17.636 10.7496
2119 1 1.94705 15.9431 10.8867
2606 1 1.91797 17.757 9.03997
3600 1 0.177876 16.1019 9.03149
40 1 7.08187 16.0265 9.14956
619 1 3.76485 17.7656 10.966
1127 1 7.07697 17.7153 10.7729
2120 1 5.38475 16.0156 10.9069
2106 1 3.72878 16.0127 8.88961
2105 3 5.36633 17.8423 9.09023
1624 1 10.8444 17.9248 10.7429
2108 2 10.8135 16.0931 9.14312
2625 1 9.03721 16.1775 10.6371
3108 2 8.97737 17.8962 9.03633
603 1 14.3477 16.0986 8.99386
1115 2 12.6229 17.7934 8.98846
2626 3 12.6419 16.0315 10.8149
3620 1 14.3118 17.9548 10.7017
2628 2 16.1815 16.1372 10.7662
2611 2 18.0811 16.1412 9.12043
3127 1 18.0787 17.7827 10.8947
3111 1 16.2186 17.5596 9.05843
42 1 0.104585 1.75991 12.5357
2121 2 0.261646 0.205781 14.2101
2629 3 2.02332 1.98535 14.2824
3113 2 1.99258 0.243896 12.6191
43 2 3.70335 1.9935 12.5004
605 2 7.17627 1.95149 12.5091
1625 1 7.1961 0.239904 14.4086
2123 2 3.7877 0.106373 14.2417
3128 2 5.43406 1.83881 14.2726
3605 1 5.50102 0.104268 12.5829
606 3 10.85 1.94592 12.614
1627 1 10.7557 0.0752833 14.4619
3129 2 8.9301 1.98414 14.2833
3606 1 8.95712 0.12711 12.6958
1117 3 14.1512 1.84297 12.5975
2632 3 14.3479 0.113885 14.2692
3131 2 12.472 1.74825 14.2886
3114 1 12.4492 0.0600577 12.5206
44 3 15.99 0.128461 12.4064
501 3 17.779 0.173551 14.2962
2614 3 17.7445 1.78597 12.5558
3132 3 16.0386 1.81835 14.3473
607 1 1.94684 3.60867 12.483
1119 2 1.8629 7.10292 12.6614
1118 2 0.12918 5.22822 12.5957
2634 3 0.0783964 7.12547 14.4334
2633 1 0.30201 3.696 14.2415
3624 3 2.0371 5.57293 14.2848
60 1 7.20527 7.31613 14.2138
608 1 5.52027 3.4967 12.6163
1612 3 7.17812 5.441 12.5174
1611 2 5.35344 7.28019 12.5114
1610 3 3.81189 5.51704 12.484
2128 1 7.26751 3.78513 14.5396
2126 3 3.6619 3.75642 14.2032
3136 2 3.64276 7.16926 14.3509
3626 2 5.3893 5.48045 14.1625
1613 2 10.7274 5.48603 12.4936
2114 3 8.91523 7.20907 12.5202
3137 3 10.661 3.81323 14.3723
3629 1 9.10939 5.56791 14.3166
3628 1 10.7369 7.20061 14.3628
3610 1 8.8895 3.57409 12.5743
610 3 12.5346 3.83647 12.6136
1614 2 14.4929 5.3923 12.4809
2617 2 12.4298 7.15058 12.7317
3138 3 14.2795 3.60964 14.4001
3631 3 14.2543 7.27106 14.2305
3630 2 12.4757 5.4133 14.3919
47 2 17.8648 5.46208 12.7516
65 1 16.0507 5.51011 14.2798
1138 1 17.8236 3.58558 14.3472
1121 3 16.088 3.66092 12.7567
2618 1 16.1927 7.18731 12.6418
3140 1 18.0751 7.31204 14.4895
67 3 1.84004 8.86343 14.4009
611 1 1.72731 10.717 12.7096
2115 3 0.277963 8.84678 12.6148
2636 2 0.129689 10.7439 14.3911
69 3 7.11836 10.6649 14.3157
70 1 5.27955 8.92475 14.4348
1616 1 5.33101 10.5267 12.4731
2116 1 3.66288 8.77255 12.5258
2619 1 7.08356 8.76149 12.4513
3633 2 3.77106 10.5628 14.285
71 1 9.00195 8.94687 14.3296
2117 3 9.10037 10.676 12.5022
2620 2 10.6857 8.9001 12.6057
3141 2 10.6807 10.8479 14.3172
510 1 12.51 8.9999 14.3109
1617 1 12.544 10.6491 12.5858
3122 2 14.4005 8.9983 12.5237
3635 3 14.4241 10.7186 14.3433
511 3 16.1678 8.95325 14.3386
615 1 17.9254 9.06806 12.491
1639 1 17.8063 10.7205 14.4073
2118 2 16.0807 10.7196 12.5939
513 1 0.204601 14.3823 14.3733
514 3 1.80404 12.4731 14.2506
2621 1 0.0176761 12.4902 12.5216
3123 1 1.69528 14.2483 12.6619
72 2 7.22221 14.1708 14.2973
515 1 5.4865 12.5063 14.2876
516 1 3.68184 14.3193 14.2907
3125 3 7.21777 12.3122 12.6192
3124 1 3.63361 12.2488 12.6079
3614 2 5.40755 14.1866 12.616
73 1 10.6135 14.1947 14.0786
1145 1 9.00345 12.5575 14.4224
3616 3 10.8582 12.4728 12.3665
3615 1 8.83948 14.3086 12.3877
1147 3 12.5733 12.5052 14.2272
1146 1 14.328 14.3881 14.3302
2622 3 12.5109 14.486 12.5372
3617 3 14.3132 12.5588 12.4665
1149 1 16.0862 12.5595 14.3409
1622 2 17.8781 12.339 12.5022
3146 1 17.9424 14.1513 14.4158
3618 3 16.0478 14.1104 12.3565
52 2 0.154547 16.1778 12.8155
518 3 -0.0218142 17.9486 14.4386
1150 2 2.02178 16.1187 14.3515
2623 2 1.89579 17.7401 12.5427
53 1 3.69773 16.1994 12.6022
618 3 7.11156 16.1532 12.4662
1151 1 3.67478 17.9136 14.3455
1642 1 5.49669 16.0687 14.4188
2142 1 7.13808 17.814 14.2149
2624 2 5.3738 17.8644 12.5879
54 1 10.7763 16.1639 12.7097
1643 1 9.05443 16.1472 14.2922
2649 2 10.9945 17.8025 14.406
3619 2 8.97904 17.7419 12.4745
55 1 12.6991 17.8587 12.6648
620 3 14.4413 16.0348 12.4512
1646 3 12.525 15.982 14.3697
1644 2 14.6367 17.9365 14.2944
56 1 16.1079 17.871 12.5045
1647 1 16.0667 16.0125 14.2225
2627 3 17.8643 15.9497 12.4702
3644 3 17.9633 17.9131 14.1762
57 3 1.89603 0.0160054 16.1048
621 1 0.177808 1.79415 16.0762
1128 2 0.175787 -0.0366391 17.8519
2122 2 1.91815 2.01712 17.9339
58 2 5.61997 0.129892 16.1755
1132 1 7.32451 0.242201 17.8989
1131 3 7.15356 1.87708 16.0472
1130 2 3.71481 0.156932 17.8067
1129 1 3.81445 1.86423 16.2879
2630 2 5.46538 1.92975 17.9349
1133 2 10.7047 2.01714 16.0364
1626 1 10.7401 0.207437 17.9032
2631 1 9.07836 2.03942 17.9907
3621 3 8.94835 0.218736 16.1142
59 3 12.4333 0.0819152 16.1358
1134 1 14.1473 1.78344 16.2371
2124 3 14.1797 -0.0235006 17.9744
3130 1 12.511 1.91069 17.8223
502 3 16.0326 0.0651339 16.2093
3133 1 15.9262 1.73339 17.9472
3623 3 17.7658 0.165325 17.8852
3622 1 17.9056 1.86852 16.145
503 3 1.98319 3.67418 16.035
504 1 1.94226 7.18903 16.2375
1628 2 0.108139 5.4681 16.0067
2125 1 0.124817 3.61881 17.831
3134 1 0.0456599 7.15381 17.7235
3625 3 1.9857 5.50079 17.8063
61 3 5.42593 3.74155 16.0025
505 2 3.64297 7.28557 18.0757
1135 3 7.30008 7.28349 17.9088
1631 3 5.22367 7.32131 16.1307
1630 3 3.63638 5.48263 16.1634
1629 1 7.25753 5.52924 16.0319
2127 3 3.80883 3.67036 17.8067
3135 3 7.13623 3.77268 17.7752
3627 1 5.50477 5.49051 18.0518
62 3 8.9674 5.52081 17.9826
63 2 10.6879 7.14275 17.9428
506 2 8.98693 3.69099 16.0286
1632 2 10.7009 5.42127 16.1846
2129 2 8.93453 7.15191 16.1612
2635 3 10.8249 3.57451 17.7967
64 3 12.548 5.4558 17.9153
1137 3 14.2469 7.14499 18.0328
1136 2 12.5683 3.5966 15.9993
2131 2 14.2927 5.64197 16.0676
2130 1 12.4717 7.18277 16.1952
3139 2 14.3613 3.59614 17.8721
66 1 17.865 5.4073 16.0648
507 2 15.9592 5.498 17.8167
1140 1 17.8338 3.66281 17.6476
1139 2 15.9179 3.54936 16.0988
1634 1 17.6944 7.08971 18.0043
1633 3 16.0336 7.30719 16.1125
508 3 1.91575 8.96167 17.9063
1141 2 1.76462 10.8118 16.0679
2132 3 0.114671 8.9646 16.1613
3632 2 0.0501049 10.7131 17.8192
68 3 3.6551 10.7736 17.8479
509 2 7.08741 10.8792 17.7588
1142 1 5.43443 8.86141 17.938
1635 1 5.39007 10.8024 16.1924
2134 1 7.21114 8.85872 16.0674
2133 2 3.70895 9.01539 16.1027
1143 2 9.00331 9.00597 17.8575
1636 3 8.91672 10.7482 16.0715
2637 2 10.7969 8.95316 16.0222
3634 1 10.6437 10.7729 17.8759
1144 1 12.604 10.736 16.0571
1638 3 12.499 8.92429 17.8139
1637 2 14.2421 10.7884 17.9106
2638 1 14.2939 8.85327 16.2198
512 3 17.9972 8.93263 16.3559
1640 3 16.1255 8.93392 18.0136
2135 3 16.132 10.589 16.2052
2639 2 17.841 10.6816 17.9564
2137 3 0.0905335 14.253 17.778
2136 1 1.79003 12.3789 17.8155
2641 2 1.88121 14.3078 16.0705
2640 1 0.195702 12.4982 16.0082
2140 1 7.16074 14.259 17.9746
2139 1 3.65681 14.2284 17.8204
2138 3 5.38783 12.4646 17.9022
2643 3 5.32613 14.2283 16.119
2642 1 3.63279 12.356 15.8481
3142 3 7.19123 12.4968 16.0019
2141 3 8.93168 14.2653 16.1309
2645 1 8.9504 12.4961 17.8085
2644 3 10.6921 14.2674 17.819
3143 2 10.7414 12.618 16.0707
2647 1 12.415 14.3009 16.2346
2646 1 12.5577 12.3935 17.9299
3145 1 14.3931 14.3405 17.7404
3144 2 14.4364 12.4467 15.9737
517 3 17.8893 14.4119 17.8889
1148 1 17.7668 12.412 16.1239
3148 3 16.097 14.2569 16.1194
3147 3 16.0138 12.4811 17.8195
2648 3 1.83709 17.7972 16.1397
3150 2 1.76406 15.9453 17.8112
3149 2 -0.124451 16.0369 16.0876
3636 2 0.0480524 18.0155 17.64
1641 2 3.6153 17.7488 17.8359
2143 1 7.31186 17.7429 17.7812
3640 3 5.617 17.7204 16.093
3639 2 7.30463 15.9813 16.208
3638 2 5.35558 16.0946 17.9236
3637 3 3.6675 16.1526 16.0534
74 3 9.0348 17.8303 16.0079
519 3 10.6332 17.814 17.8493
3642 2 9.0572 16.1235 18.0019
3641 1 10.6459 16.0285 16.0339
75 2 12.48 16.1358 17.7465
76 3 12.6065 17.8972 16.0227
1645 1 14.3491 18.066 17.7855
3643 2 14.4144 16.0495 15.983
77 2 16.1228 16.1144 17.7961
2144 2 17.8886 16.1776 16.0863
2650 2 17.8744 17.866 17.7368
3645 1 16.1678 17.794 16.079
520 1 0.235161 0.0620792 21.5213
78 3 0.175615 1.94774 19.7143
2145 3 1.99385 1.95634 21.4008
3151 3 1.9904 0.0978993 19.6406
521 1 3.75064 0.178235 21.3517
80 2 3.82352 1.99736 19.5483
79 3 7.23118 1.99266 19.6174
2147 1 5.39778 1.94893 21.4307
2146 1 7.18759 -0.0278851 21.3949
2651 2 5.49162 0.074315 19.7431
81 2 10.7982 2.01058 19.7092
1648 2 10.6107 0.0694581 21.5784
2652 3 8.88181 1.95121 21.5532
3152 1 8.89609 0.209639 19.711
522 3 14.0815 1.99019 19.5942
1649 1 14.3705 0.177079 21.3975
2653 3 12.5662 1.84918 21.4189
3646 3 12.4244 0.192704 19.6445
82 1 17.5795 -0.0594873 21.3274
2654 3 17.6108 1.81377 19.5912
3153 1 15.9562 2.00415 21.4629
3647 2 15.9426 0.106672 19.6504
523 3 0.162811 5.47104 19.6064
84 1 1.8391 7.22817 19.7543
83 2 0.026236 7.23089 21.4136
1650 3 0.14079 3.71916 21.4535
3155 1 1.94053 5.48905 21.4413
3154 2 2.14989 3.72555 19.5856
524 2 3.60104 5.57994 19.5998
525 1 7.30137 5.41015 19.8436
526 2 3.69453 7.42937 21.4656
1153 2 7.37629 7.34552 21.5694
1152 3 5.6207 7.22111 19.7162
2655 3 3.79119 3.68533 21.4761
3156 2 7.0862 3.77599 21.5189
3649 1 5.48909 3.78848 19.6509
3648 3 5.39757 5.60633 21.4952
86 3 10.8371 7.30219 21.4103
85 2 9.01936 3.78739 19.7891
1155 1 10.6749 5.4049 19.6302
1154 2 9.08346 7.31177 19.6887
2656 2 10.9466 3.49726 21.5677
3650 2 9.10357 5.48717 21.3463
527 3 12.49 7.31707 19.6239
88 2 12.4495 5.47512 21.5081
87 2 12.4232 3.78419 19.6055
1156 2 14.2299 5.35187 19.701
2148 3 14.2495 7.17286 21.4661
2657 1 14.0975 3.58338 21.4469
528 2 17.8089 3.5096 21.3375
89 3 15.8945 5.34044 21.404
1157 3 15.9828 7.18713 19.7185
3158 1 17.8422 5.33188 19.6985
3157 1 17.9402 7.33695 21.3667
3651 2 15.9361 3.55439 19.6056
529 1 1.85639 9.07709 21.5664
530 1 2.0263 10.7893 19.5025
1158 1 0.0937767 8.91682 19.5435
3652 3 0.0337022 10.6499 21.4372
531 3 5.50492 9.09378 21.5048
532 1 5.47939 10.8057 19.6346
533 3 7.30125 10.8397 21.5114
1159 1 3.61976 9.04255 19.6715
1651 3 7.33826 9.06216 19.6163
3653 3 3.60913 10.9498 21.4677
90 3 9.08098 10.7823 19.7473
1161 1 9.11784 8.98201 21.5222
1160 3 10.7804 10.8652 21.5155
1652 2 10.7731 9.03575 19.7074
534 2 12.4758 10.9072 19.8156
1162 1 12.5954 9.04595 21.3365
1654 1 14.3979 10.7773 21.3542
1653 2 14.3395 9.00977 19.5355
1656 1 16.0886 10.8823 19.6313
1655 3 16.0644 8.92993 21.3517
3159 1 17.7981 10.7017 21.5347
3654 2 17.8852 9.10912 19.7112
1660 2 0.0194406 14.2109 21.266
1659 1 1.81954 14.3844 19.5297
1658 2 1.82645 12.6055 21.2121
1657 3 0.0525888 12.419 19.585
1163 2 5.57977 14.288 19.81
1661 2 3.65547 14.5352 21.4404
2151 3 7.16308 12.5088 19.5745
2150 2 5.52921 12.6383 21.4293
2149 3 3.76871 12.5638 19.823
3160 2 7.24375 14.3279 21.384
1662 2 8.86611 14.1619 19.5743
2153 3 9.13643 12.5585 21.3756
2152 1 10.8838 12.6557 19.5545
2658 2 10.5902 14.5613 21.3472
2155 3 14.2071 12.717 19.6439
2154 3 12.4128 14.504 19.6025
2660 1 14.2912 14.5386 21.4387
2659 2 12.5888 12.6198 21.5512
535 2 17.7928 12.5625 19.6159
1164 1 17.7896 14.3667 21.319
2156 3 16.0071 14.357 19.6407
2661 3 15.9031 12.6555 21.3727
1165 3 0.0592613 17.8182 21.4576
2157 1 1.76754 17.8457 19.5452
2662 3 0.0655877 16.0186 19.6078
3161 2 1.83529 15.9767 21.4701
1664 3 7.17128 17.8483 21.4853
1663 3 3.59681 17.768 21.3886
2664 3 3.66974 16.1226 19.5635
2663 2 7.14562 16.0462 19.6355
3163 1 5.44786 16.168 21.3916
3162 3 5.40352 17.9639 19.5053
536 2 10.6943 18.0355 21.3834
2665 1 10.6916 16.179 19.678
3164 3 8.95754 17.8855 19.7276
3655 2 8.87691 16.1368 21.248
2666 3 12.461 17.9915 19.568
3166 2 14.3766 16.1757 19.4254
3165 1 14.1329 17.9031 21.3337
3656 3 12.5039 16.1658 21.3027
92 3 15.9535 16.1281 21.3389
91 2 17.8177 17.8819 21.4445
1166 3 17.8999 16.0538 19.7382
3167 3 16.1632 17.9783 19.6331
93 2 2.01127 1.73549 24.9509
1665 2 1.96079 0.0574587 23.1768
2667 2 0.155356 0.0474382 24.9425
3168 3 0.163276 2.0308 23.3105
2158 2 5.35583 0.0988231 23.1281
2670 2 3.77034 0.0867445 24.9616
3170 1 7.1003 2.04316 23.214
3169 2 3.73581 1.84787 23.2652
3659 3 7.19161 0.0347292 24.9629
3658 2 5.50344 1.88109 24.9942
537 1 8.91794 1.86737 24.9636
2671 1 9.0159 -0.00111168 23.1355
3171 1 10.7481 0.0524321 25.0315
3660 1 10.8108 1.69479 23.3802
2673 1 12.4762 0.248782 23.3801
3663 2 14.3307 2.02759 23.2849
3662 3 14.137 0.131176 25.0297
3661 2 12.5191 1.8982 25.1005
539 1 16.0845 1.89361 24.9601
1167 1 17.9287 0.0489884 25.0252
1668 1 17.8124 1.7698 23.0706
2160 3 16.0197 0.0892101 23.3113
99 3 1.92911 5.45258 24.785
98 2 1.81538 7.32016 23.1444
97 1 0.149239 7.28367 24.84
96 1 0.0594324 5.28123 23.2609
3173 3 2.10852 3.61416 23.2909
3172 1 0.240973 3.72584 24.9375
540 3 3.66478 7.07837 24.9157
541 3 5.50233 7.28064 23.2271
542 1 7.28274 5.49173 23.2266
543 1 5.46713 5.49237 25.0137
101 3 7.13324 7.32416 25.0669
100 3 3.79225 5.40992 23.1291
2675 2 7.2386 3.71466 24.8924
3175 1 3.69959 3.63309 24.9694
3665 2 5.49737 3.70653 23.383
546 3 9.08083 7.25806 23.2036
547 3 9.01224 5.38454 25.0866
102 3 10.7108 5.34638 23.2469
1170 2 10.8146 7.39294 24.9258
3177 3 10.752 3.59947 25.1087
3666 1 8.98337 3.50796 23.2738
548 1 14.0642 5.44682 23.3463
549 1 12.4359 5.23223 25.0747
105 3 14.2538 3.58284 25.1262
1670 1 12.6054 7.34231 23.2822
3179 2 12.4818 3.64201 23.3056
3667 2 14.3971 7.18521 25.0338
1172 1 16.0804 5.47782 25.0547
1672 1 17.9496 3.60541 24.8858
1671 1 15.9275 7.12352 23.2167
2678 1 17.8735 7.23341 24.8013
2677 1 17.7679 5.33019 23.0846
3668 1 15.9413 3.65851 23.4004
550 2 0.069588 8.99252 23.2304
106 2 1.84079 10.9229 23.158
1175 2 1.88145 9.05522 24.9081
3669 1 0.166025 10.8911 24.9616
108 2 5.28083 10.8452 23.3128
1180 2 7.27058 10.759 24.8543
1178 1 7.28323 9.08197 23.1886
1177 1 3.56654 9.14367 23.1624
1176 2 5.38831 8.89064 25.0119
3670 1 3.6037 10.8198 25.1072
551 2 10.7106 10.8215 24.9336
552 2 9.07901 10.7318 23.2019
1181 2 9.02758 9.00943 25.0984
1674 1 10.7871 9.15555 23.1731
1182 2 12.6859 10.7368 23.0271
1676 3 12.5001 9.08629 24.9582
1675 3 14.4014 8.89053 23.1957
2163 1 14.3134 10.8678 25.01
1183 2 16.1913 8.99814 24.8687
1677 2 16.1208 10.8093 23.1831
2165 2 18.0364 10.8043 24.9074
3671 3 17.9174 8.96188 23.1986
555 2 0.0903601 14.3509 24.9622
1184 1 1.76711 14.2578 23.2549
1678 2 1.8617 12.4723 25.0013
2166 3 0.085424 12.548 23.0836
113 3 7.21343 14.4987 24.9587
1185 1 5.52349 12.6445 24.9887
2170 3 5.51022 14.3953 23.1257
2169 1 3.7435 12.6981 23.0399
2168 1 3.65125 14.3155 24.8756
2167 3 7.18637 12.634 23.238
1680 3 10.7011 14.5112 25.1008
2171 3 10.8044 12.5732 23.3116
2682 1 8.97581 14.421 23.2136
2681 2 9.04726 12.572 24.9564
114 1 14.3008 14.2794 24.945
1681 1 12.3937 12.6826 25.1348
2684 3 14.2325 12.6305 23.2708
2683 2 12.5353 14.2812 23.0896
557 2 17.7897 12.606 22.9738
2173 2 16.1221 14.2449 23.1691
2685 2 16.209 12.6079 24.8434
3183 3 17.8967 14.3646 25.0011
1684 3 1.8832 16.1424 24.8411
1683 2 1.93732 17.8049 23.2827
2688 1 0.141505 15.946 23.0386
2687 3 0.163799 17.8292 24.9978
2175 2 7.16644 17.8603 24.8897
2174 3 5.55518 17.9826 23.0915
2689 2 3.69973 17.8325 24.8448
3187 3 5.40973 16.1908 24.9428
3186 1 7.1752 16.1682 23.2332
3185 1 3.63687 16.0461 23.1903
1687 1 8.98329 17.8022 23.0395
1686 2 8.93159 16.2461 24.921
2177 2 10.8408 17.8982 24.837
3675 2 10.7084 16.2663 23.0257
2178 2 14.1937 17.7613 24.9092
2690 2 12.6185 17.9546 22.9718
3188 2 12.5009 15.9156 24.9203
3676 2 14.1236 16.1105 23.2217
1187 1 17.8333 16.1292 23.1099
1186 1 17.9202 17.9108 24.9338
1689 2 16.2048 16.0743 24.7718
3189 3 15.9719 17.9024 23.1774
1188 2 0.143916 0.22713 28.7371
2180 3 1.83819 1.93789 28.4361
2668 3 1.99868 0.165427 26.8072
3657 1 0.117121 1.68108 26.5332
559 2 7.30344 0.0516047 28.5454
94 3 7.19181 1.85367 26.6767
1189 1 3.65661 0.074794 28.5098
1666 3 5.48423 0.199981 26.7888
2181 3 5.26495 2.07364 28.7353
2669 3 3.80811 1.86984 26.8416
560 3 10.7795 0.0557397 28.4218
95 2 8.99433 0.0724322 26.6343
2182 2 8.85276 1.84197 28.5499
2672 2 10.6883 1.81914 26.7779
538 3 14.3131 1.72812 26.7099
1667 2 12.5112 -0.00324628 26.8065
2184 2 12.4719 1.80563 28.6386
2183 1 14.3675 0.0620937 28.4828
2159 3 17.9082 1.73551 26.7528
3193 1 16.0811 1.89196 28.5462
3679 1 17.9533 0.0101535 28.4842
3664 1 16.1214 0.121401 26.6517
1168 3 1.96746 3.60943 26.6632
1669 1 2.05828 7.418 26.6749
2186 3 0.132197 7.19456 28.5461
2185 1 0.0502129 3.6099 28.3492
2674 1 0.161336 5.49316 26.6087
3194 1 1.79182 5.45034 28.3334
544 2 3.603 5.35904 26.8071
563 3 7.22064 7.26318 28.4905
1691 2 7.1488 3.55762 28.5721
1690 3 3.6413 3.79918 28.6482
2676 3 7.15238 5.51916 26.7607
3196 3 3.67232 7.25926 28.5202
3195 2 5.47344 5.40189 28.5379
3176 2 5.47917 3.62684 26.7736
3174 3 5.34545 7.20712 26.8123
545 1 10.7792 5.41487 26.8131
1171 2 9.02015 3.54649 26.8072
1169 1 8.96753 7.3403 26.726
2694 2 10.8665 3.70552 28.475
3197 2 8.9381 5.36553 28.614
3681 3 10.6825 7.3223 28.6912
104 2 12.6289 3.45059 26.9899
103 1 14.2285 5.56166 26.7752
2695 1 14.2043 3.5998 28.5815
3178 3 12.4981 7.25261 26.7191
3684 1 14.3856 7.28943 28.4363
3683 3 12.579 5.50436 28.5371
622 2 17.7744 3.6107 28.3915
1004 3 17.7744 7.24098 28.619
1174 2 16.0553 7.26208 26.6749
1173 3 17.9534 5.4152 26.5968
3180 1 16.1282 3.53434 26.6768
3685 1 16.2482 5.45144 28.3509
1673 1 0.147493 8.75475 26.6702
2161 2 1.88235 10.8053 26.7541
2696 3 0.0269808 10.7633 28.5439
3687 3 1.77363 8.95182 28.5299
122 2 7.28943 10.9246 28.4257
107 1 3.70912 9.11776 26.7643