ITEM: TIMESTEP
5000
ITEM: NUMBER OF ATOMS
4000
ITEM: BOX BOUNDS pp pp pp
-1.2603595044396343e-02 3.5746663595044474e+01
-1.2603595044396343e-02 3.5746663595044474e+01
-1.2603595044396343e-02 3.5746663595044474e+01
ITEM: ATOMS id type x y z
564 2 3.34589 1.87475 1.79053
2092 3 17.659 3.67915 7.15218
2069 2 3.54449 3.31569 3.88594
1647 1 16.235 16.0247 14.4939
2563 1 2.00089 1.83155 3.57929
1608 3 6.85457 0.399105 10.7604
2610 1 12.341 17.6696 5.57217
2564 1 5.32453 1.74462 3.43101
3569 2 5.3324 3.4779 2.14568
1565 1 6.95255 0.0592819 -0.146259
1567 1 6.96019 7.28013 0.0879952
565 3 7.16447 1.89063 1.81337
10 2 8.89578 3.9312 1.85199
566 3 10.3979 1.88828 1.92252
2567 1 12.6394 1.8401 3.49098
51 1 17.8021 10.7131 10.6478
3582 1 17.7461 17.7343 3.49115
26 1 16.1642 0.102922 8.66474
3087 3 12.3455 -0.122351 5.35357
567 1 14.3303 1.71445 1.74138
572 1 15.8579 3.50307 1.7103
3114 3 12.5823 -0.144237 12.4799
2627 1 17.6413 16.0655 12.3609
3082 2 17.3111 17.7862 -0.000365418
5 1 1.70928 3.7199 1.937
1074 3 3.60403 5.38666 2.12891
6 3 1.74008 7.34263 1.79772
42 2 0.0505788 1.87701 12.483
1072 3 6.90826 5.46806 1.74691
1120 2 17.7677 3.56432 10.8506
3572 1 10.6761 3.73547 3.62737
1076 1 10.6823 5.34888 1.72637
570 1 12.3419 3.67585 1.73002
571 1 12.4659 5.57607 3.46221
1570 2 14.1654 5.33453 1.61352
3148 2 16.1181 14.4316 16.3311
573 1 16.0311 5.48982 3.31339
1090 2 3.48377 17.831 -0.0959469
3643 3 14.4117 16.325 16.2718
575 3 1.73576 10.6297 1.54719
1575 1 3.82301 8.97358 1.80228
2588 3 1.53193 -0.0306313 5.7116
1075 1 5.24455 7.37329 1.66705
1576 1 7.12559 9.17987 1.76893
1568 1 8.89044 7.39095 1.76021
2071 3 10.7465 9.17514 1.82543
1578 3 8.66388 9.07953 3.57562
2089 1 5.20015 -0.130704 5.45023
1569 3 12.2569 7.23205 1.80084
1579 3 12.3524 8.80535 3.65884
1572 3 14.3228 7.08256 3.3308
1081 3 16.041 7.39885 1.6161
2074 1 14.2271 9.21281 1.5997
18 2 9.00925 15.9844 -0.0774489
2647 2 12.5464 14.3716 16.1331
2064 1 1.65199 1.92037 0.129
1646 2 12.6211 16.4581 14.4528
2081 2 3.7694 12.1898 1.76654
1639 1 17.8669 10.8176 14.626
1116 1 10.4843 0.176847 10.7071
1083 2 5.55767 10.7678 1.66158
2082 3 5.25951 14.2699 1.92322
2575 3 7.09465 12.5726 1.59897
3088 1 15.9309 0.0844359 5.30386
1087 3 8.96153 11.0209 1.58309
2579 3 10.8553 12.6386 1.70709
1583 1 8.91685 14.5937 1.81335
2576 1 7.19952 14.3733 0.090876
3101 1 17.8296 12.1269 8.7037
580 2 12.6913 10.8389 1.94096
2581 1 12.5948 12.3283 3.73533
2085 1 12.3578 14.7697 1.51932
2634 3 0.0120594 7.09858 14.164
1581 1 16.2825 10.6397 1.93413
13 2 0.0231769 10.8287 3.46519
2580 3 14.4284 12.4456 1.92757
1628 1 0.0757071 5.45419 15.9469
2078 3 1.95092 14.1283 1.84884
3077 3 3.54575 15.9592 1.87503
4 1 1.4518 5.42569 0.0285542
3641 1 10.5233 16.0428 16.1589
3126 2 17.8277 14.0474 10.7645
3078 1 7.40025 16.0563 1.95061
2577 1 6.99007 13.9992 3.58481
1587 2 17.7654 -0.000957618 7.00695
3640 1 5.2777 17.8695 15.9292
3080 2 10.7483 16.0373 1.65765
1118 3 0.0202032 5.37621 12.4413
3113 1 1.60203 -0.183558 12.8812
3081 3 14.5252 15.7949 1.76167
3580 2 12.5201 15.9821 3.48093
3588 2 17.7699 1.80423 5.36434
3120 1 0.0208389 10.8346 10.6096
3575 3 14.1037 14.1959 3.50062
2583 2 16.1606 14.0155 1.68214
583 3 16.2365 15.978 3.58189
2607 2 5.249 17.6648 5.32162
2614 3 17.8643 1.82132 12.6338
3090 3 1.75757 3.63995 5.52681
1091 2 10.917 17.7741 3.57394
3065 3 16.1758 1.85115 -0.0292062
3585 1 3.55005 1.72179 5.62732
3584 2 6.80335 1.86169 5.50024
3146 1 17.7429 14.2319 14.2738
2565 1 8.88197 1.81608 3.57102
3586 2 10.5822 1.87068 5.17461
3568 3 7.27297 3.51535 3.83985
1627 2 10.1856 -0.0260715 14.2859
33 3 12.4128 3.60835 5.35246
25 1 14.1702 1.70402 5.38386
23 2 12.3498 1.72894 7.11849
2141 1 8.96516 14.225 16.2577
3564 2 16.0403 1.72247 3.46055
588 2 16.1388 1.8135 7.28695
3109 1 10.6202 17.7674 7.22206
3566 3 1.80123 5.40607 3.58623
28 2 1.91459 6.82474 5.43386
72 3 7.27373 14.3045 14.3568
1073 2 3.51666 7.37178 3.43359
3593 3 5.36103 3.35633 5.56249
3570 3 5.64292 5.398 3.72201
590 2 3.60044 5.20957 5.2887
592 1 7.14592 5.48547 5.35206
31 3 8.73546 3.81233 5.42371
3571 1 8.71385 5.45307 3.39831
569 2 10.4809 7.12838 3.46769
594 3 10.5452 5.57014 5.14582
1590 2 8.83839 7.1008 5.34255
1097 1 8.82725 5.37856 7.35393
3069 3 14.1192 3.6182 3.4401
35 2 14.2079 3.3655 7.07437
3594 3 10.8313 3.61332 7.23918
1099 3 12.46 5.22357 7.20786
2080 3 5.19747 12.5165 -0.0314297
24 3 14.2312 -0.0515231 7.25197
3595 2 16.0815 3.31804 5.35249
1100 1 14.4212 5.20929 5.50534
1595 2 16.1334 7.19331 5.22039
1594 2 16.0379 5.35896 6.99081
574 3 1.50962 8.89414 3.48516
578 3 3.53099 10.5712 3.75276
1102 3 1.69036 8.79282 7.03249
1103 3 3.38054 9.08261 5.37956
3639 1 7.21107 16.1873 16.0987
1094 1 5.18601 7.00456 5.50718
577 3 5.49772 8.88095 3.66012
1104 1 5.28046 10.7421 5.70169
593 1 3.52548 7.22664 7.04992
2068 3 7.1471 7.16823 3.33981
1597 2 7.14153 8.8042 5.57111
2097 1 10.4069 9.15115 5.32798
1107 2 8.89515 8.77406 7.14492
1589 3 10.662 6.98029 7.00042
1592 1 12.5905 6.95047 5.08009
1598 1 12.48 8.82017 6.87592
39 2 10.822 10.4729 7.16838
2099 1 14.2418 10.6007 7.25228
2098 3 14.4127 9.12421 5.43464
1580 1 16.2709 8.85357 3.4856
1599 1 16.2781 8.89424 6.88734
1582 3 1.88643 12.3038 3.39699
596 3 1.66578 10.7384 5.07911
2103 1 1.41457 12.682 6.99404
2102 3 1.78595 14.3165 5.42701
2101 2 -0.160755 12.4493 5.28419
2083 2 3.43225 14.3062 3.68864
1106 2 7.05854 10.707 7.18811
2600 2 3.32935 12.5309 5.13445
2574 3 5.20647 12.3908 3.67169
2104 3 5.1962 14.0956 5.16645
2578 3 9.00387 12.4961 3.53978
3072 2 10.9065 14.2 3.40568
599 2 8.84803 10.7547 5.4707
1084 2 6.98315 11.0123 3.6204
2601 1 7.10859 12.46 5.49727
2604 2 9.04604 14.2624 5.02005
2602 3 10.5374 12.5546 5.37815
3097 2 8.64438 12.4073 7.03582
579 2 10.5399 10.5345 3.61491
1108 2 12.3829 10.7412 5.45841
3098 2 12.4323 14.2382 5.44862
1603 1 12.4784 12.5924 7.17031
2072 3 14.385 10.5599 3.66959
2641 2 1.76966 14.2173 16.1662
2605 3 14.1616 12.4634 5.58782
2100 1 16.0659 10.5818 5.3982
2582 1 15.9894 12.5318 3.92003
3100 2 16.0424 14.2473 5.49196
2094 2 17.8498 6.98258 7.02879
1640 1 16.1455 8.76682 17.7594
3576 2 1.7384 15.7707 3.5706
17 1 5.3222 15.9239 0.0337377
3577 3 5.31983 15.9433 3.90335
3602 2 3.5997 15.9088 5.45125
1112 1 7.19831 14.3932 6.78394
3601 3 7.279 16.228 5.2624
3579 1 9.02675 16.2456 3.57305
3603 2 10.7359 15.8547 5.36793
3 2 16.072 -0.0217993 1.7242
3079 3 5.37281 17.7802 1.69088
41 3 14.3641 16.0419 5.21402
3604 3 12.4069 16.0474 7.11308
3637 3 3.40053 16.0709 15.9229
2142 2 7.37068 17.7779 14.1167
581 2 17.783 12.3698 1.85406
3092 2 17.6798 5.26779 5.26637
584 3 1.60456 1.73329 7.19298
2110 1 1.88368 1.5807 11.0009
2091 2 1.64896 3.49207 8.87695
22 2 5.13777 1.73131 7.10035
3592 1 6.89549 3.58057 7.25946
2591 1 3.29502 1.64544 8.96827
585 3 6.97362 1.82045 8.92282
2111 1 5.21481 1.96269 10.6966
586 1 8.81868 1.94257 7.07958
2612 2 9.00281 2.03998 10.6959
2592 2 10.762 1.95606 8.93655
1148 1 17.717 12.6521 16.4345
3150 1 1.78299 16.2783 17.7559
587 1 14.1207 1.8048 9.19005
34 2 12.7035 3.6023 9.02425
2613 3 12.3226 1.82323 10.7041
2113 1 10.8133 3.79123 10.916
510 2 12.5278 8.78525 14.4584
3562 2 5.01523 -0.204409 1.81016
2087 1 3.51516 17.8426 3.39548
2609 3 14.184 17.6584 7.10552
2595 1 16.0812 3.29183 8.81773
2135 1 16.0813 10.9151 16.0758
2616 1 3.4662 3.49302 10.8283
27 1 1.79335 5.41548 7.20819
3117 3 1.67404 5.28014 10.8509
29 1 3.47335 3.54355 7.32502
30 2 5.28864 3.40876 9.14601
1095 2 5.28423 5.2457 7.08409
1096 3 3.66566 5.07404 8.87669
1591 3 9.01519 3.62584 8.95396
3091 3 6.84632 5.1434 8.90369
3609 1 8.90138 5.28472 10.7527
1098 2 10.6769 5.5121 9.26378
36 3 14.6581 5.31568 8.85456
609 1 14.4814 7.04928 10.4006
3611 3 12.6687 5.39653 10.5588
2093 2 16.1276 7.29047 8.8462
3144 2 13.9881 12.6751 16.1498
3612 1 16.1063 5.38756 10.9071
1093 1 1.93292 7.07765 8.942
37 2 3.3241 9.11264 8.51461
1596 1 5.371 8.6546 7.06883
3591 2 5.26059 7.18164 8.81793
2096 1 7.12041 9.12025 8.84319
3608 1 3.36812 7.26742 10.6472
591 3 7.06378 6.9333 7.22481
1588 1 8.96434 7.34392 9.1845
3596 1 8.9626 10.4463 9.00104
613 2 8.81506 9.10718 10.7259
32 3 12.3763 7.15283 8.92033
598 3 10.6729 8.91919 8.79766
2598 1 12.5493 10.5538 8.77526
46 2 10.7048 7.29482 10.7886
595 1 14.416 7.17501 6.98544
2597 1 14.257 8.78043 8.98266
1109 2 15.9494 10.5513 8.63859
2090 3 12.4303 0.0262699 9.05996
1149 3 15.7345 12.6149 14.2844
3625 3 1.69915 5.53769 17.8945
38 2 3.34775 11.0755 6.84495
2596 1 1.62545 10.6832 8.76062
3094 3 1.54692 14.4877 8.62958
1600 1 5.40484 12.5442 7.02278
3095 3 3.4895 12.5056 9.15016
1105 2 5.30072 10.302 8.70435
1619 2 7.22971 14.1403 10.7192
1601 1 7.12473 12.1233 9.12565
3096 3 8.73659 14.4745 8.91121
1125 3 9.01001 12.4473 10.8061
617 1 10.7749 14.1079 10.9847
2603 2 10.5092 14.2331 6.98624
50 3 14.0817 10.6498 10.6218
3598 3 10.4749 12.3829 8.7837
1602 3 14.3275 12.5931 8.74393
3099 2 16.071 12.3479 7.15393
602 1 14.2703 14.3175 7.1767
1147 3 12.5911 12.4213 14.261
1144 2 12.3625 10.9997 16.1366
2130 2 12.4928 6.9846 15.9371
1604 1 1.71439 16.1808 6.98674
2599 3 3.54393 13.9458 6.97749
2106 1 3.65716 15.8572 8.71521
1143 1 8.93203 8.72583 17.8718
2119 2 1.78413 16.0784 10.5904
3063 1 8.82425 -0.00221852 2.04021
1111 3 5.39849 14.1091 8.85757
3106 3 5.44648 16.0306 7.05126
40 1 7.12276 16.1861 8.78183
2107 3 9.0493 16.0662 7.05965
2108 2 10.8748 16.1002 8.93083
2637 2 10.5457 8.94899 15.9851
3085 1 7.10614 0.0567116 7.19944
1113 2 12.2054 14.3418 8.95689
603 1 14.0607 15.8132 8.89926
2109 3 15.9033 16.1082 7.13535
2584 3 0.12101 15.9757 1.69545
3102 1 16.1355 14.5077 8.80529
509 1 7.17399 10.8056 17.9522
3143 1 10.6139 12.3838 16.0065
607 2 1.75753 3.48366 12.5024
1077 1 10.4239 7.17064 -0.0234572
2629 1 1.49163 1.82004 14.2259
43 1 3.65578 1.8943 12.4977
605 1 6.98266 1.75041 12.8047
2593 1 8.94935 0.217329 5.17179
3128 2 5.26694 1.90967 14.2707
3083 3 15.8223 17.7821 1.87005
3140 1 17.7796 7.35225 14.112
606 3 10.6102 1.80579 12.6623
3129 2 8.98163 1.88673 14.3464
1117 3 14.224 2.0602 12.1311
3142 3 7.24174 12.2882 16.0623
73 2 10.4479 14.2964 14.4213
3116 1 16.0592 1.78785 10.7308
3132 2 16.0351 1.60885 14.1758
1635 1 5.4989 10.7333 16.1187
2077 1 0.0911828 12.4488 1.64411
1610 3 3.53348 5.54454 12.5131
608 2 5.39857 3.68697 12.5802
3607 3 5.38542 5.49182 10.9405
1612 2 7.16841 5.33596 12.7924
45 3 7.17967 7.37846 10.8254
1611 1 5.24448 7.27393 12.4977
2112 2 7.01478 3.45177 10.718
3610 1 8.92702 3.60738 12.6146
1613 1 10.9453 5.50582 12.265
2114 1 8.83686 6.89766 12.4412
3119 1 14.2072 3.91587 10.8065
610 3 12.3872 3.44111 12.6967
2617 3 12.4162 7.1681 12.3876
1121 2 15.9194 3.56446 12.5316
1614 1 14.1457 5.54142 12.3434
65 2 16.0967 5.2539 14.2773
2618 2 16.0758 7.08119 12.608
1119 1 1.84506 7.20282 12.7125
3136 1 3.51403 7.11519 14.4044
48 1 1.64637 9.1653 10.6007
2116 2 3.65554 9.1302 12.5745
2643 3 5.32861 14.3334 16.1342
612 3 6.9502 10.7032 10.6461
49 2 5.24574 8.69831 10.6965
2619 3 7.00769 8.89166 12.5312
70 1 5.32482 8.92545 14.1583
2117 3 8.80851 10.6942 12.4762
614 1 12.7702 8.88812 10.6511
2620 3 10.8398 8.8991 12.4312
3141 2 10.79 10.8038 14.274
1617 2 12.3813 10.5481 12.6149
600 2 17.8633 9.03357 8.78829
1122 2 15.897 9.00084 10.7025
2105 3 5.35498 17.8131 8.80514
3122 1 14.2689 9.09268 12.5952
511 3 16.1106 8.94219 14.3851
2118 2 16.0834 10.7023 12.9054
3620 1 14.4652 17.5086 10.8922
1618 2 3.55448 14.2409 10.7153
1123 1 1.68049 12.7089 10.7346
3121 1 3.77044 10.576 10.7344
611 3 1.92488 10.5563 12.3907
3124 2 3.80636 12.2205 12.5586
514 2 1.89667 12.5101 14.1561
1124 3 5.47115 12.5082 10.6636
515 1 5.29857 12.5724 14.3271
1616 1 5.41443 10.5207 12.4522
3125 1 7.30367 12.5707 12.6115
69 3 7.01642 10.8901 14.1075
1145 2 8.79096 12.3281 14.4626
3613 3 10.968 10.5213 10.6522
1620 1 12.2608 12.6194 10.6808
3616 1 10.6869 12.3064 12.6474
3635 2 14.1819 10.5944 14.3427
1621 1 15.9468 12.3162 10.6648
3617 2 14.119 12.2969 12.3304
2642 3 3.66747 12.5901 15.9859
516 2 3.53057 14.1935 14.214
1150 2 1.54238 16.2616 14.0367
3123 1 1.69929 14.4078 12.5633
53 3 3.68273 16.0339 12.5406
2134 2 7.15315 8.96268 16.0562
3614 1 5.40463 14.2154 12.5722
1642 2 5.44654 15.914 14.3643
2120 1 5.41593 16.0117 10.6599
618 3 7.0331 15.9927 12.5695
1636 1 8.92872 10.5436 16.0778
1643 1 8.83095 16.0021 14.2269
3615 2 8.8848 14.1606 12.5517
2625 1 8.90685 16.1393 11.0571
54 2 10.6663 16.1021 12.597
1146 1 14.2021 14.2644 14.5502
2129 1 9.05001 7.06854 16.0914
1126 3 14.3207 14.068 10.7494
2622 2 12.4344 14.4456 12.6301
2626 1 12.4121 16.0469 10.9136
620 1 14.4218 16.0134 12.8327
3633 2 3.8238 10.6859 14.398
3587 3 8.90631 0.139656 9.16443
2628 2 16.0753 15.7465 10.6285
3618 3 15.8836 14.0127 12.6028
3599 1 17.736 14.2521 7.41011
1115 3 12.6365 17.692 8.97271
1633 2 16.1474 6.81545 16.1384
503 2 1.57787 3.50891 16.101
1584 3 17.9668 14.1619 3.53302
3066 3 18.0685 1.64731 1.79251
60 2 7.35026 7.13454 14.2431
3135 3 7.16934 3.86815 17.6532
1129 3 3.50387 1.90772 15.8494
61 2 5.33962 3.64836 15.9732
71 3 9.09146 8.84741 14.2109
1631 2 5.37502 7.1989 16.0037
1131 1 7.04917 1.98059 16.0983
1133 3 10.7305 1.78679 16.0727
1136 1 12.6813 3.59749 16.2179
3131 3 12.5576 1.61922 14.2759
3105 3 3.6352 17.6669 7.01453
2590 1 3.27071 -0.0736474 7.18806
3138 3 14.3373 3.49258 14.4173
1134 2 14.2726 1.7219 16.0995
1139 3 16.109 3.31151 16.1458
2573 2 0.0618075 14.2673 3.68458
2638 1 14.3375 8.75412 16.2391
3624 2 1.86264 5.56947 14.2945
504 1 1.81497 7.19631 16.046
2126 2 3.46448 3.84282 14.1852
1630 3 3.37167 5.40914 16.0843
3626 2 5.20131 5.46818 14.3392
1571 1 14.2322 7.12328 -0.137459
2128 3 7.21947 3.65689 14.3966
506 2 9.25864 3.72206 16.0463
1629 3 7.32757 5.59488 16.1525
3629 2 9.19766 5.30299 14.3211
3137 3 10.8756 3.66093 14.2991
56 1 16.3444 17.7854 12.1645
3630 1 12.5005 5.30918 14.2187
3628 3 10.6969 7.06342 14.2885
1632 3 10.8984 5.15005 16.1342
67 1 1.76099 8.94459 14.1734
3631 3 14.2393 7.14753 14.4058
2131 1 14.3483 5.20612 15.7645
52 1 0.0405335 16.2132 12.2411
1141 3 1.73414 10.7766 15.9013
2133 3 3.8021 8.81646 16.1108
2636 3 -0.160246 10.7046 14.0911
3581 3 12.5115 17.5812 1.4132
2115 3 0.0494384 9.00694 12.1777
2640 3 -0.157831 12.3654 15.8374
3103 1 -0.112017 17.7747 6.98819
1566 2 7.06921 -0.0310072 3.70457
3606 1 8.79311 0.19091 12.2717
66 1 17.7097 5.12393 15.9253
3600 2 -0.215424 16.0683 8.90916
2630 3 5.42648 1.7956 17.9207
1622 2 17.7975 12.4939 12.5738
2095 3 0.00392943 9.00254 8.8217
2086 1 1.72185 17.7637 1.77704
74 1 8.98843 17.827 15.9934
1138 2 17.6898 3.51415 14.4183
2632 3 14.2421 0.0231963 14.392
3134 3 0.142375 7.4168 17.6718
3622 3 17.8136 1.62118 15.86
63 3 10.9641 7.39714 17.7998
2624 1 5.43017 17.8728 12.573
57 3 1.5798 0.175039 16.1532
2623 3 1.99945 17.8347 12.3011
1071 2 0.0374345 5.49428 2.0812
3145 2 14.3023 14.4707 17.8916
2585 3 7.20038 17.8191 -0.0304896
505 3 3.92269 7.07348 17.9334
2073 3 12.2667 9.00732 -0.0145649
3061 3 5.17034 1.9898 0.123076
1151 2 3.43483 17.7981 14.2683
68 3 3.48223 10.7524 17.9103
1615 1 17.7034 7.30256 10.5994
589 1 0.260101 5.42098 5.4976
1593 2 17.723 5.22405 8.95309
47 2 17.8336 5.46008 12.5983
3644 2 17.8785 17.7756 14.225
3589 1 -0.206202 3.54774 7.10655
615 2 17.8537 8.88391 12.6561
2123 2 3.53348 0.0900028 14.5398
2649 2 10.7612 17.642 14.4186
1606 3 17.8212 17.7108 7.16118
582 3 0.116791 17.6286 3.50741
55 1 12.5231 17.652 12.6482
2586 3 7.08233 17.7049 3.6126
619 2 3.74604 17.7122 10.6468
2125 3 0.0579911 3.6874 17.7675
75 2 12.247 16.1896 17.7451
2136 1 1.78339 12.5974 17.7861
2138 1 5.35989 12.4407 17.9168
1573 3 17.8498 3.62562 0.308
2569 3 3.34309 3.81278 0.243608
1086 3 8.7769 9.25101 0.05161
3074 3 12.4406 12.4757 0.193528
3627 3 5.28292 5.19192 17.7995
3068 2 10.6688 3.54638 0.0799352
2065 3 3.60274 0.00473712 0.00743425
2631 3 8.67583 1.80246 17.8407
508 2 1.64884 9.11498 17.5643
1135 2 7.03582 7.07009 17.7836
3064 1 12.6385 1.69105 0.403625
1638 3 12.5469 9.01671 17.6858
507 2 15.9305 5.17051 17.8176
3623 3 17.8169 0.0287164 17.648
7 1 5.07191 5.32138 0.0788977
1128 1 -0.146876 0.265572 17.6017
3632 1 -0.0172288 10.8069 17.7378
14 2 10.7497 10.7563 0.0498833
2140 3 7.17878 14.2831 17.694
3071 2 3.54202 14.3421 0.00782409
1637 2 14.4481 10.4974 17.7885
11 2 12.5031 5.43872 0.0948601
2127 1 3.56469 3.3756 17.9777
2088 3 14.3162 17.6019 0.0465612
9 3 8.76397 5.28642 0.108394
1641 3 3.61856 17.8359 17.6173
1130 2 3.50541 0.021763 17.6543
80 1 3.60874 1.94689 19.953
3154 2 1.81091 3.44556 19.4932
2145 1 1.74259 1.78695 21.4678
1711 3 0.192476 8.98505 33.897
2143 1 7.03097 17.8691 17.7868
3192 1 12.4705 0.143466 30.5915
3649 3 5.32998 3.67432 19.6028
79 1 7.22094 1.88859 19.5762
2147 2 5.26383 1.8682 21.5725
3679 3 17.7599 0.104537 28.6633
2157 2 1.94101 17.6691 19.7059
2652 2 8.61354 1.83423 21.4766
85 2 9.05897 3.61814 19.8547
2662 1 -0.0159578 16.0021 19.6981
2673 1 12.4326 -0.064896 23.1965
81 2 10.4704 2.03422 19.804
2653 2 12.5271 1.78599 21.4912
96 2 0.0777575 5.33587 23.0334
2688 3 -0.00234647 16.1319 23.2412
522 3 14.4093 1.7432 19.7825
3651 3 16.4357 3.37747 19.7378
3153 2 15.9237 1.62775 21.7761
3168 1 -0.0757791 1.74512 23.2938
2139 1 3.5859 14.2546 17.6677
524 1 3.62684 5.1359 19.3373
526 3 3.46072 7.08822 21.1298
3678 1 -0.152982 1.53115 30.1776
3155 1 1.73257 5.37487 21.3009
1082 3 1.78441 8.96066 35.5874
3156 3 7.08456 3.80499 21.5054
525 3 7.38957 5.31503 19.6781
3648 1 5.17187 5.59139 21.6995
1701 3 7.11607 17.8538 28.6175
3650 1 9.03656 5.51749 21.4778
2656 2 10.5934 3.76502 21.454
97 3 0.177816 6.86576 24.9916
2686 2 17.7663 12.6136 26.9033
1155 1 10.5592 5.46472 19.5879
87 3 12.4573 3.56489 19.7254
2657 1 14.3946 3.48363 21.3209
1156 3 14.1325 5.48776 19.5721
1717 3 16.1703 15.8895 32.1946
84 3 1.80207 7.18419 19.5909
529 1 1.81495 9.05864 21.1974
1159 3 3.56613 9.05883 19.5689
3653 2 3.6885 10.6657 21.5353
2174 2 5.34236 17.8274 23.3167
1152 1 5.43016 7.1529 19.6388
531 3 5.34865 8.76205 21.1852
1651 3 6.94999 9.0856 19.5901
77 1 15.9788 15.9765 17.9229
1154 2 8.90271 7.46361 19.4698
1160 3 10.8231 10.8773 21.6085
3654 1 17.7501 9.29236 19.7067
2670 2 3.48512 -0.0520771 24.7901
1652 2 10.7616 8.85712 19.6415
527 3 12.5131 7.23118 19.5062
86 3 10.7669 7.04241 21.4012
3705 3 17.5942 5.44275 34.0367
2720 1 15.8393 14.1841 34.026
2148 2 14.3004 7.33207 21.4941
1653 2 14.26 8.97109 19.6021
1157 2 15.6885 7.33678 19.5034
1654 2 14.4234 10.7885 21.2048
530 3 1.82232 10.6742 19.6096
2149 3 3.50025 12.5796 19.5348
1658 3 1.75879 12.4649 21.5575
2146 1 7.09645 0.359649 21.2102
532 2 5.17726 10.8734 19.594
3157 2 17.7009 7.37143 21.2576
90 2 8.77834 10.6784 19.6426
2151 1 7.30801 12.4836 19.7012
3160 2 7.32518 14.2534 21.5897
533 3 6.87204 10.6949 21.2567
2677 1 17.8108 5.41769 23.1316
534 1 12.6563 10.5501 19.5782
2152 2 10.4916 12.3826 19.6266
2154 2 12.6637 14.3556 19.6888
1656 2 16.03 10.6453 19.4909
2155 3 14.1541 12.452 19.7508
2156 3 16.1403 14.4043 19.7663
2661 2 16.2207 12.6079 21.4958
2660 1 14.4471 14.2886 21.4579
1659 3 1.75823 14.214 19.8435
3161 1 1.76088 15.9689 21.4084
2664 2 3.68735 15.9855 19.8028
12 2 14.3307 3.76174 35.8372
528 3 17.8527 3.68037 21.5329
1163 2 5.29814 14.1287 19.8301
2084 1 10.643 14.2549 35.5646
1666 1 5.20731 0.0727722 26.7851
559 3 7.0925 0.250963 28.6169
2663 2 7.36818 16.1337 19.5809
1662 3 8.82381 14.2102 19.6134
2651 3 5.22618 0.120201 19.757
3206 2 17.6701 1.87585 34.0227
2665 2 10.8229 15.78 19.6901
2658 1 10.722 14.0458 21.464
3166 3 14.3369 16.3389 19.7323
1013 2 12.3569 17.6571 30.2234
2671 3 8.7281 -0.0231311 23.1486
3710 3 14.2785 16.1033 33.815
1702 2 14.2589 17.8816 28.5258
3164 2 8.98177 17.8114 19.9691
3173 3 1.66056 3.49526 23.4593
93 1 1.58477 1.88013 25.1128
3698 1 8.92655 0.0974405 33.9286
3169 2 3.48 1.68245 23.3525
3658 3 5.37969 1.9486 24.849
3170 3 7.07598 1.90844 23.248
537 2 8.8219 1.88327 25.0996
3660 3 10.5125 1.8142 23.4019
3661 1 12.3895 1.63721 24.9847
560 2 10.6257 0.0960667 28.637
3663 3 14.2243 1.72083 23.1728
3668 3 16.1104 3.55592 23.1728
1189 1 3.54746 -0.0729648 28.6172
98 1 1.87524 7.16464 23.1795
99 3 1.91268 5.17346 24.9819
2655 2 3.50141 3.81282 21.6624
100 3 3.55073 5.35559 23.493
3665 1 5.51125 3.88873 23.1906
542 3 7.25371 5.50878 23.3157
3666 1 9.02082 3.90491 23.1352
102 3 10.8133 5.59199 23.3028
547 2 8.89679 5.53811 24.9293
3179 1 12.3722 3.40548 23.1679
88 1 12.5871 5.28558 21.5475
548 3 14.3263 5.25613 23.2585
549 2 12.4539 5.3197 24.9486
105 2 14.0437 3.4906 24.7463
3217 3 10.5709 15.9033 33.8159
89 2 16.0246 5.2262 21.4676
1671 3 15.7295 7.38822 23.1618
1172 1 15.7969 5.09971 24.9007
3667 3 14.5779 7.01825 25.147
1177 1 4.11414 8.98443 23.1506
106 3 1.98543 10.5803 23.026
123 2 17.6121 9.00129 30.6269
541 2 5.25271 6.9967 23.3167
108 1 5.52907 10.6696 23.0093
1180 1 7.03831 10.5414 25.1677
1176 3 5.48695 9.11595 25.1445
1153 1 7.45049 7.18682 21.4387
546 3 8.85492 7.18758 23.4372
1178 2 7.11383 8.99753 22.9869
1161 2 8.8663 8.93533 21.336
1670 3 12.612 7.01708 23.2096
1162 2 12.5897 8.90453 21.4686
1674 3 10.7378 8.89287 23.1743
1182 2 12.4115 10.958 23.4702
1676 2 12.3633 9.12521 25.1147
1655 2 16.0676 9.08397 21.382
2159 1 17.7453 1.93088 27.0297
1675 3 14.009 9.01303 23.1358
1183 3 15.9894 9.05806 25.0552
1677 3 16.1633 10.696 23.26
1683 1 1.89232 17.7004 23.3541
2169 1 3.72737 12.4466 23.1167
3147 3 15.7821 12.7126 18.1008
1678 1 1.78967 12.2867 24.9465
2150 1 5.41198 12.647 21.3704
2168 3 3.25091 14.2997 25.1618
2153 1 9.06213 12.5887 21.5721
552 1 8.76923 10.8099 23.5804
2167 1 6.86484 12.3857 23.2012
2681 1 8.73425 12.66 25.1709
2659 3 12.4544 12.5149 21.5317
2171 2 10.5439 12.4671 23.4016
2683 1 12.6543 14.2562 23.1379
1681 3 12.6254 12.591 25.3664
3686 1 17.7632 5.25938 30.2242
2684 3 14.6044 12.4023 23.3592
2173 2 16.0481 14.4069 23.2919
1184 2 1.93252 14.3352 23.2184
3185 1 3.59035 16.132 23.3436
3163 3 5.63443 15.8973 21.4744
1661 2 3.53711 14.5734 21.5151
2170 1 5.68513 14.1479 23.0479
131 2 16.1583 0.0488273 34.0895
3655 2 9.18177 16.0603 21.6682
2682 3 8.924 14.3448 23.2723
3186 3 7.17589 16.2084 23.3451
113 3 7.08598 14.328 25.1023
3675 3 10.8792 15.8104 23.3106
2678 2 17.7635 7.02226 25.0585
3656 2 12.6155 15.8711 21.4754
3676 3 14.3483 16.1265 23.4751
2689 1 3.73008 17.7888 25.0967
3215 3 6.93552 16.0177 33.9663
92 3 15.9454 16.1073 21.4454
2207 1 8.95285 14.4148 34.0847
3216 2 3.61574 16.3013 33.8945
2180 1 1.6237 1.63336 28.529
1690 2 3.46125 3.34763 28.7446
1660 2 0.0667016 14.3399 21.3615
2669 2 3.43552 1.76928 26.7168
3176 1 5.31269 3.62636 26.744
2181 2 5.21362 1.83976 28.5376
557 3 18.0118 12.5464 23.0813
3177 2 10.6391 3.60379 24.9579
94 3 6.99087 1.64525 26.7724
2672 2 10.6385 1.83534 26.9172
2182 1 8.7377 2.27172 28.5418
104 1 12.2571 3.46176 26.6934
2184 3 12.2583 1.89345 28.7821
2694 1 10.6392 3.71602 28.5417
535 2 17.7558 12.3804 19.6551
1028 1 8.79167 17.8475 33.8874
1713 3 5.26549 14.1957 34.074
538 2 14.0956 2.33353 26.6327
539 2 16.0494 1.85414 24.7484
3180 2 16.2816 3.68658 26.8824
2137 1 0.0405231 14.2206 17.7379
3175 1 3.57902 3.48832 24.9436
1168 1 1.78271 3.59205 26.7254
3194 2 1.94346 5.18398 28.3495
1669 2 1.87691 7.23314 27.0755
540 3 3.50979 7.41178 25.3409
544 3 3.56881 5.29202 26.6762
543 3 5.3166 5.58064 25.0356
2676 1 7.00706 5.43482 26.7373
2675 2 6.84515 3.78085 24.9119
1171 1 8.87092 3.8416 26.6935
3197 1 8.70701 5.41989 28.6641
1170 1 10.6435 7.3558 25.0119
2695 3 14.2567 3.67179 28.6043
545 1 10.7675 5.36317 26.6998
3178 1 12.5844 7.14832 26.6922
103 3 14.1329 5.13315 26.7994
3683 2 12.4245 5.56648 28.6444
3685 2 15.925 5.31045 28.5234
2176 2 8.64078 17.8545 26.8018
1175 1 2.01341 9.14454 24.9176
2161 2 1.81033 10.6018 26.7784
3687 1 1.52849 9.17986 28.5744
1015 3 6.99048 0.129806 32.0825
107 2 3.56572 9.11215 27.0095
3174 1 5.40751 7.11511 26.9732
3688 3 3.39034 10.9472 28.7594
1181 3 8.82701 8.93491 25.0342
101 3 7.04579 7.16835 24.9092
1169 2 8.86071 7.08129 26.8414
2162 1 7.21279 8.96479 27.0264
110 3 10.4973 9.0564 26.9758
3181 2 12.4527 10.6922 26.7689
626 1 12.378 8.73116 28.4905
3694 1 0.204065 17.8515 28.5085
1174 1 15.984 7.07558 26.956
2164 2 14.2895 9.0198 26.9098
554 2 16.0732 10.6634 26.8911
628 2 15.8731 9.0276 28.5106
2566 3 14.3481 0.252242 35.6568
2178 1 14.3376 17.9211 25.0778
2714 2 16.0385 10.7446 33.8324
3670 1 3.62353 10.9486 25.0336
2680 2 3.2905 12.6508 26.9823
1185 1 5.17615 12.7071 25.0463
1179 3 5.16762 10.9671 26.7983
1006 1 5.25262 12.7125 28.5556
551 1 10.446 10.8464 25.081
1679 2 6.90179 12.6263 27.1629
109 1 8.78439 10.7514 26.8054
3182 3 10.8388 12.5382 26.9571
1680 3 10.7513 14.2122 25.2111
1699 1 14.4278 14.2605 28.6252
2718 2 14.2655 12.4502 33.925
2163 3 14.2624 10.8051 25.1923
1682 3 14.2828 12.5766 26.7279
2685 1 16.1614 12.4224 24.9448
1011 3 16.1203 12.4415 28.6604
130 1 17.8126 0.137394 32.2763
3189 1 16.3449 17.9162 23.3497
1684 3 1.5848 16.1889 25.0331
2679 2 1.47604 14.1057 26.9207
1685 2 3.54036 16.2832 27.0671
3213 3 12.4297 14.1005 33.7333
3664 3 15.897 0.236328 26.9555
3187 3 5.53017 16.2905 25.0709
112 3 5.20665 14.2574 26.837
2644 1 11.0336 14.2031 17.9033
1165 3 0.119755 17.8517 21.5286
1686 1 8.96254 16.0275 25.1347
3674 1 7.04418 15.9607 26.8475
2172 3 9.01164 14.2913 26.697
124 1 10.9759 14.576 28.7001
3172 1 -0.124388 3.55458 25.1797
3188 3 12.5212 16.0929 25.1026
556 2 12.5776 14.5092 26.898
1688 3 10.885 16.1277 26.8383
114 3 14.4145 14.2008 25.0938
116 1 14.3483 15.7765 26.7662
1689 1 16.1085 15.9964 25.1054
3184 1 16.138 14.2365 26.8713
1023 2 12.4333 10.8518 33.9752
2158 2 5.20612 0.0857331 22.9164
2707 3 1.64248 1.80769 32.0096
141 1 -0.154308 17.8367 32.2681
1691 1 6.83615 3.88432 28.7342
117 1 3.48747 1.81988 30.2925
2708 2 4.9081 1.95038 32.2237
118 3 6.84266 1.90727 30.4743
3680 2 5.25541 3.54961 30.3219
2710 2 6.87989 3.59798 31.9079
3682 1 8.6831 3.47979 30.45
1704 3 -0.13503 3.82961 32.1479
119 2 10.6499 1.87048 30.4607
1003 2 12.5684 3.86073 30.3437
3204 1 12.4612 1.94765 32.0859
2711 3 10.6001 3.6494 32.3089
631 3 0.224668 1.83238 34.0908
3193 3 16.1941 1.90836 28.705
561 2 14.0456 2.05006 30.3817
623 3 15.7207 3.58098 30.6042
3196 3 3.37866 7.46925 28.8394
120 1 1.7301 3.55731 30.3121
1001 3 3.43064 5.48153 30.2572
121 1 1.67247 6.93491 30.0698
3700 2 3.52958 7.30227 31.9293
1705 3 3.35903 3.64371 32.2659
3207 3 1.61507 5.60248 32.1219
3195 2 5.33255 5.50619 28.8017
3208 1 5.38234 5.5569 32.089
3701 2 7.38627 7.13396 32.2355
1692 1 5.38362 7.45236 30.3908
1191 2 7.05299 5.40374 30.4218
3702 1 8.80474 5.17156 32.1418
1002 3 10.7058 5.44394 30.5446
3684 2 14.0319 7.07104 28.4661
2187 2 12.475 7.18444 30.4416
643 1 10.6934 14.2548 31.9672
3165 1 14.3007 18.0332 21.6623
1693 2 14.3002 5.57815 30.3857
3159 2 17.8925 10.7886 21.4505
624 1 1.71683 11.0025 30.48
3211 2 3.58594 10.8759 32.1358
3689 3 5.43209 8.94383 28.3181
1696 3 3.40953 9.197 30.4023
134 3 5.33789 9.19245 32.5694
2188 1 5.36266 10.6459 30.3661
563 3 7.00255 7.2681 28.6674
2189 2 7.04176 8.89461 30.7173
625 1 8.98308 8.95426 28.9057
2693 3 8.96186 7.07362 30.4332
3212 2 7.01401 10.6858 32.0241
135 3 8.88491 9.18514 32.1254
3681 1 10.5159 7.06039 28.489
2697 1 10.7389 8.88082 30.3474
627 3 12.4591 10.819 30.3239
137 1 12.2186 9.2333 31.8885
2713 2 10.6086 10.8682 32.1227
2699 2 14.0736 8.85953 30.2161
1694 1 15.8351 7.17812 30.2361
136 3 14.3564 10.9083 32.1082
629 1 1.4807 12.3183 28.5326
3691 3 1.64387 14.2325 30.2644
122 3 7.10869 10.5438 28.6466
630 3 7.02377 14.534 28.5722
2700 3 3.58587 12.5885 30.4107
3198 3 5.36477 14.4422 30.2425
3199 3 7.00966 12.4428 30.1159
3707 2 3.39137 14.4318 32.1604
1697 2 9.03434 11.0672 30.4351
1008 3 8.84147 12.29 28.4383
2701 2 8.93745 14.1153 30.2701
3200 2 10.7999 12.5061 30.1867
2698 1 10.666 10.9183 28.5617
1009 2 12.5573 12.7906 28.658
3690 3 14.228 10.6861 28.7183
2702 2 12.5317 14.4799 30.4481
646 2 12.4322 12.4865 32.1113
645 3 14.2609 14.228 32.0738
2196 3 10.6656 0.0338882 31.9915
2190 3 16.2172 10.762 30.2449
3201 3 14.2476 12.6323 30.2703
1024 2 16.1631 12.8307 32.2546
125 2 16.1595 14.191 30.2127
562 1 15.8826 0.113995 30.5061
2650 2 17.9177 17.7028 18.0253
1007 3 3.35463 14.2863 28.7692
2192 2 1.5826 15.8741 28.4355
1026 1 2.03446 16.1982 32.0706
126 2 3.21124 16.2265 30.3139
2193 2 5.2346 16.0798 28.8086
1027 2 5.37678 16.2287 32.2251
1650 2 0.125983 3.77529 21.4343
1029 2 8.87679 16.1749 32.0024
2177 1 10.3891 17.7859 25.1219
127 3 7.43689 16.0599 30.3366
2194 2 8.93244 15.9998 28.4624
2715 2 3.4808 12.559 33.9694
3697 3 1.8908 0.096246 33.8097
3638 2 5.43404 16.0192 17.8182
3696 2 10.6853 16.009 30.2219
1716 1 12.4298 15.9506 32.1582
2195 3 12.8384 16.1133 28.6134
2075 2 16.1724 8.90024 35.7351
129 3 14.5209 16.0789 30.6449
2704 3 16.1199 16.1921 28.5406
2666 1 12.2947 17.8483 19.6959
3062 3 9.06052 1.66126 35.8568
2717 2 10.4972 12.3877 33.9656
633 2 3.41347 1.91659 33.9213
642 3 5.54712 12.5102 32.0426
20 2 16.1094 15.8841 35.6904
632 1 7.05525 2.12276 34.0582
2716 1 7.18057 12.5127 33.8937
3133 3 15.9012 1.83558 17.8727
2709 2 8.85343 1.90507 32.1706
1020 3 8.8418 3.61753 34.0261
1022 2 5.32722 10.8359 33.8419
634 1 10.8073 1.91675 33.9556
637 3 12.3378 3.63209 33.9563
3162 2 5.37543 17.682 19.4665
1016 1 14.2976 1.98565 33.8877
2200 2 14.1932 3.63181 32.2828
3205 2 16.0637 1.70876 32.1816
3699 2 1.76642 3.84865 34.1863
1018 2 3.43334 5.44911 33.9532
2691 1 9.01192 0.171552 30.2726
132 2 5.00159 3.91425 34.0904
2199 3 5.22266 7.19631 34.0441
1667 2 12.6897 0.295129 26.8662
1019 3 7.09476 5.52991 34.0646
1707 3 10.8517 5.33747 33.9989
1706 2 8.81648 7.08407 33.9969
3130 1 12.4202 1.75867 17.8798
3703 2 12.4543 5.326 32.2618
1672 2 17.8439 3.77556 25.0953
1668 2 17.7099 1.67842 23.4227
3209 3 14.2468 7.24041 32.2002
3708 2 7.19987 14.3096 31.7927
133 1 16.0118 3.80544 33.9728
1708 3 14.0023 5.40449 34.0684
3704 2 16.0183 5.45523 32.1716
1709 1 15.8589 7.17167 33.9768
3574 2 14.3337 14.271 35.6524
3671 1 17.712 8.76272 23.1127
3706 1 1.62539 9.07177 31.9809
2206 1 1.76669 14.3018 34.0392
1710 1 1.66278 10.7385 33.913
1712 2 3.22272 8.84 33.8057
636 1 1.69248 7.26711 33.5204
2201 2 7.10346 8.87383 34.1573
1665 1 1.52082 0.0814076 23.4517
1142 2 5.39778 9.17281 17.8281
640 2 8.77875 10.727 33.7985
2712 3 10.6844 7.225 32.2592