ITEM: TIMESTEP
5000
ITEM: NUMBER OF ATOMS
4000
ITEM: BOX BOUNDS pp pp pp
8.2694873732975793e-03 3.5725790512626830e+01
8.2694873732975793e-03 3.5725790512626830e+01
8.2694873732975793e-03 3.5725790512626830e+01
ITEM: ATOMS id type x y z
1 3 0.260142 1.741 1.7252
1563 1 0.0189476 -0.122962 -0.124204
2064 2 1.92785 1.97351 0.0259154
3561 2 1.64161 0.0536988 1.75316
564 1 3.694 1.98515 1.71816
565 3 7.4213 1.75906 1.69747
1565 3 7.37339 -0.108375 -0.213703
2065 3 3.44841 0.155545 0.0666477
3061 2 5.18151 1.6817 0.187775
3562 3 5.29151 -0.0354301 1.89279
566 2 10.4968 1.83464 1.83654
1070 3 10.8062 -0.00890676 -0.205892
3063 1 9.01359 -0.0599961 1.71823
3062 3 9.15436 1.84634 -0.109867
567 1 14.3835 1.72675 1.82007
2566 3 14.3483 -0.126414 -0.149299
3064 2 12.6377 1.78733 0.0511204
3563 2 12.5248 -0.138776 1.68262
2 3 17.9303 0.00880772 -0.0191154
3 3 16.1861 0.102476 1.73924
3066 3 17.9576 1.72067 1.6892
3065 3 16.2795 1.71827 -0.212396
4 2 1.4889 5.48702 0.0820457
5 2 1.65813 3.69739 1.58352
6 2 1.82676 7.34394 1.95456
1071 2 0.217077 5.39279 1.9755
3067 3 0.102444 3.56764 0.0261607
3565 1 0.0888315 7.29853 0.145443
7 2 5.35859 5.49577 0.0288644
8 3 3.34622 7.25533 0.164072
1072 2 7.18166 5.42131 1.83946
1075 3 5.20319 7.27531 1.93958
1074 3 3.41021 5.3736 2.05998
1567 3 7.23853 7.14304 -0.0588824
2570 2 6.92093 3.64197 0.182678
2569 2 3.56523 3.92064 0.292918
3569 2 5.50556 3.41397 1.79503
9 2 9.07833 5.36056 0.29404
10 1 8.91919 3.50845 1.86156
1077 3 10.7386 7.20518 0.1038
1076 1 10.8638 5.35394 1.7663
1568 3 8.9533 6.99021 1.79163
3068 2 10.5817 3.73886 0.0329928
11 1 12.7835 5.28294 -0.11363
12 3 14.3635 3.47305 -0.0359254
570 2 12.6555 3.61548 1.71958
1571 3 14.6283 7.26038 0.154878
1570 1 14.3883 5.23392 1.92564
1569 1 12.6203 6.80338 1.81072
572 1 16.071 3.47749 1.81544
1081 1 16.2519 7.11973 1.95955
1079 3 17.9848 5.21425 1.82154
1078 1 16.2735 5.13221 0.0153491
1573 1 18.032 3.45 -0.0901574
2070 2 18.0179 7.03785 0.131014
575 1 1.78255 10.7832 1.44111
1082 1 1.74602 8.96563 -0.122787
1574 2 -0.145657 8.9323 1.89344
3070 2 0.143382 10.791 -0.0302459
576 1 3.63905 10.6892 0.0773909
1085 2 5.46836 8.97038 0.207125
1083 2 5.21651 10.8828 2.04337
1577 1 7.02888 10.6347 0.138392
1576 3 7.42191 8.75971 1.95288
1575 1 3.58167 8.97059 1.84187
14 1 10.6716 10.765 -0.067781
1087 1 8.94437 10.721 1.94562
1086 3 8.94426 9.00698 -0.0835256
2071 1 10.748 8.86815 1.91009
580 2 12.4054 10.7735 1.96322
1088 3 14.2552 10.3875 0.0360634
2073 3 12.4321 8.8767 0.0882698
2074 2 14.4131 8.9432 1.76574
15 1 17.9075 8.74204 2.01534
1581 3 16.2451 10.8604 1.66963
2076 3 18.1351 10.68 0.0886047
2075 3 16.2803 9.0011 0.13699
2079 1 1.95298 12.573 -0.0269171
2078 3 1.60665 14.4454 1.70167
2077 2 0.0590653 12.5295 1.64797
2572 1 0.0672664 14.3415 -0.259895
2082 2 5.4065 14.3378 1.94427
2081 2 3.64647 12.519 2.02973
2080 2 5.55072 12.5385 0.0560821
2576 3 6.93426 14.5531 0.0109991
2575 2 6.99921 12.5057 1.86137
3071 2 3.83457 14.2706 0.00479235
1583 2 9.11828 14.244 2.00861
2084 1 10.8767 14.1919 0.134619
2579 1 10.8962 12.4806 1.92462
3073 3 8.95267 12.5572 0.355827
2085 2 12.7095 14.2318 1.52901
2580 1 14.1893 12.3925 1.76458
3074 3 12.429 12.2996 0.250916
3574 1 14.4125 14.123 -0.337565
581 3 18.0547 12.4676 1.84342
1089 1 17.9647 14.3059 -0.039861
2583 1 16.1942 14.159 1.84841
3075 2 16.1852 12.4712 0.100912
16 1 0.267928 17.874 0.114043
2086 1 1.79009 17.7954 1.96786
2584 2 -0.0753453 16.0978 1.85254
3076 2 1.97121 16.1225 -0.24538
17 2 5.42446 16.0744 0.0613302
1090 3 3.55908 17.8072 -0.0241839
2585 3 7.19195 17.8368 0.157662
3079 1 5.39219 17.8159 1.84647
3078 1 7.29944 16.1558 2.28955
3077 2 3.48959 15.966 1.98149
18 3 9.04432 15.9403 -0.145211
1585 2 10.6915 17.7703 0.0296099
3080 1 10.8657 15.965 1.8253
3578 3 8.95927 17.523 1.84856
19 1 12.7115 16.0295 -0.134959
2088 3 14.2825 17.8252 0.048431
3081 3 14.341 16.0991 1.94611
3581 1 12.5429 17.5521 1.87432
20 2 15.9603 16.1104 0.159811
1586 2 17.8233 15.973 1.89895
3083 2 16.2317 17.5685 1.97817
3082 1 18.0772 17.7187 -0.0616349
584 2 1.83606 1.7755 6.99451
1564 1 0.266842 -0.0551845 3.48205
2588 1 1.90545 -0.0777476 5.21261
2563 2 1.89931 1.84081 3.39659
3084 1 0.102347 -0.0856694 7.14285
3583 2 0.0326158 1.70848 5.20079
22 3 5.34222 1.6159 7.15909
1069 1 3.53418 0.127741 3.4692
1566 1 7.1402 0.111375 3.73852
2089 3 5.22659 -0.0962836 5.48541
2590 1 3.33611 -0.149526 7.16064
2564 3 5.24455 1.86358 3.80016
3085 1 7.30018 0.0481021 7.00508
3585 1 3.6307 1.86838 5.43479
3584 1 7.18427 1.81172 5.42939
586 2 8.70001 1.8947 6.9218
2066 1 10.9261 0.127422 3.27542
2593 2 8.92266 0.0581981 5.24954
2565 2 8.97387 1.94597 3.58559
3086 1 10.6247 0.104117 7.25283
3586 3 10.5655 1.78056 5.47095
23 1 12.7001 1.89575 6.99147
24 2 14.3152 -0.0748885 7.13902
25 2 14.3493 1.70703 5.11699
2568 1 14.3239 -0.246285 3.3419
2567 2 12.4411 1.86217 3.40095
3087 2 12.5792 -0.0224358 5.18934
568 1 17.9339 -0.100661 3.70918
588 2 15.9334 1.67214 7.09851
1587 2 17.8876 0.108567 6.93793
3088 1 15.9959 0.0479761 5.3752
3588 3 17.921 1.77205 5.41393
3564 2 16.2322 1.50283 3.67508
27 2 1.71134 5.48308 7.05767
28 1 1.87473 7.17801 5.34313
589 3 0.0673243 5.24288 5.3361
2067 1 0.131463 3.50253 3.63714
3090 2 1.86411 3.51691 5.36863
3590 1 -0.0551783 7.1012 6.84932
3589 3 0.0833358 3.62309 7.01595
3567 1 0.223207 7.14219 3.59022
3566 2 1.7919 5.41505 3.77225
29 2 3.89761 3.54949 7.15407
593 3 3.25023 7.17349 7.2487
592 3 7.25282 5.34625 5.42029
591 3 7.08763 7.21678 7.21733
590 2 3.6137 5.3497 5.55865
1095 2 5.26917 5.52419 7.1343
1094 1 5.36719 7.15991 5.44118
1073 1 3.72418 7.24058 3.90882
2068 1 6.97857 7.07806 3.71972
2069 3 3.45731 3.68229 3.74637
3593 2 5.38018 3.5383 5.36782
3592 3 6.96338 3.72415 7.10667
3570 1 5.36887 5.03302 3.53135
3568 2 7.17323 3.44119 3.57696
31 1 8.98439 3.81114 5.39264
569 3 10.6846 7.05374 3.56165
594 2 10.7616 5.41559 5.45581
1097 1 8.99308 5.20844 7.16839
1590 2 8.7699 7.25895 5.36368
1589 2 10.8969 7.13885 7.21688
3594 2 10.467 3.63614 7.26867
3572 1 10.8477 3.47618 3.4837
3571 2 8.92831 5.32013 3.41096
33 2 12.1849 3.70039 5.3525
35 2 14.1947 3.60621 7.03555
571 3 12.6353 5.15374 3.50825
595 1 14.3431 7.09813 7.39136
1100 1 14.2816 5.26841 5.42181
1099 2 12.6407 5.30318 7.2855
1592 2 12.4092 7.05835 5.34602
1572 2 14.4338 7.21821 3.64208
3069 3 14.3972 3.50033 3.61213
573 3 16.1653 5.36423 3.65653
1080 2 17.8849 3.50474 3.457
1595 2 15.985 7.12725 5.45115
1594 3 16.0378 5.11608 6.98674
2094 1 17.5208 7.16924 7.11499
2092 2 17.9651 3.73688 7.24382
2571 1 17.8486 7.31967 3.59836
3092 2 18.034 5.38137 5.29017
3595 3 16.1079 3.37413 5.23606
13 3 0.106102 10.8964 3.44281
597 1 -0.0328421 10.765 7.30057
596 1 1.8618 10.8477 5.3935
574 1 1.63409 9.11022 3.43492
1102 3 1.65043 9.34327 7.18657
1101 2 -0.00511545 9.13881 4.9712
38 3 3.50664 10.789 7.26875
578 1 3.4357 10.6442 3.68213
577 2 5.37985 9.06421 3.79844
1106 2 7.17185 10.5364 7.16056
1104 2 5.26135 10.7286 5.45993
1103 3 3.67525 9.02714 5.35304
1084 3 7.15078 10.6008 3.57986
1597 1 7.06256 8.91519 5.48869
1596 3 5.32715 9.09191 7.19642
39 2 10.766 10.7971 6.972
599 3 8.80448 10.7377 5.30159
579 3 10.5467 10.6896 3.56388
1107 3 9.10482 8.85408 7.03414
1578 2 8.92056 8.96296 3.76074
2097 2 10.8752 8.93856 5.3514
1108 2 12.5096 10.5895 5.25363
1598 3 12.5531 8.88256 7.23846
1579 2 12.5162 8.77275 3.47916
2072 3 14.1063 10.7095 3.54247
2099 2 14.3014 10.8271 7.1016
2098 2 14.217 8.65727 5.40437
1599 1 15.8395 8.9933 7.39867
1580 3 16.2179 8.97558 3.64551
2100 3 15.8046 10.7262 5.21108
3093 3 17.6981 10.9686 6.85171
3597 3 17.8785 8.80067 5.47594
3573 3 18.2585 10.8463 3.58377
1110 3 0.000390333 14.4091 7.21652
1582 2 1.84886 12.6282 3.82845
2103 2 1.75445 12.457 7.29356
2102 2 1.70242 14.537 5.45559
2101 3 0.271729 12.7197 5.54941
2573 1 -0.00772544 14.206 3.55306
1112 1 7.19753 14.2525 7.12072
1600 1 5.42044 12.4155 7.19341
2104 1 5.43954 14.4594 5.4997
2083 2 3.53418 14.2245 3.61432
2601 1 7.04054 12.2525 5.34175
2600 3 3.53289 12.5721 5.50949
2599 2 3.51351 14.2093 7.11402
2577 3 7.13483 14.247 3.60144
2574 2 5.34268 12.7031 3.85493
2604 3 9.04515 13.986 5.44536
2603 3 10.663 14.1305 7.32072
2602 3 10.8351 12.5688 5.41721
2578 1 9.07738 12.7888 3.5818
3097 1 8.70256 12.4492 7.09013
3072 2 11.0408 14.2364 3.54257
602 3 14.5234 14.3605 7.31106
1603 2 12.6085 12.4163 7.15748
2605 3 14.3184 12.5722 5.52158
2581 2 12.5714 12.509 3.77766
3098 2 12.6243 14.0952 5.51942
3575 1 14.2559 14.2781 3.69993
1114 3 17.8437 12.4925 5.31971
1584 1 17.9884 14.1794 3.49459
2582 1 15.9543 12.7061 3.65801
3100 2 16.2502 14.4102 5.27271
3099 1 16.0061 12.6099 7.01685
3599 2 17.8748 14.2537 7.16202
582 2 -0.0399455 18.0267 3.32452
1605 3 1.63613 17.8306 5.50665
1604 2 1.78903 16.2086 7.22264
3104 1 0.0317089 16.1865 5.32756
3103 1 0.0285775 17.8036 7.26108
3576 3 1.76585 16.0473 3.81192
2087 1 3.65707 18.0044 3.44738
2607 3 5.47474 18.0044 5.4851
2586 1 7.0536 17.9762 3.81879
3107 1 7.48997 17.8102 7.29856
3106 3 5.57491 16.1067 7.21448
3105 2 3.65209 17.8199 7.01833
3602 2 3.49545 16.2802 5.22038
3601 2 7.19688 15.9124 5.35629
3577 2 5.49489 16.3221 3.66245
1091 3 10.7829 18.0176 3.97373
2107 3 8.8997 15.9576 6.82939
2608 1 8.8263 17.8475 5.264
3109 3 10.8153 17.8089 7.02206
3603 1 10.8198 15.8579 5.39588
3579 1 9.21454 15.897 3.77486
41 2 14.2941 16.0074 5.39198
2610 1 12.5458 17.7908 5.42211
2609 2 14.4147 17.4927 7.20514
2587 3 14.3818 17.7605 3.59475
3604 1 12.678 15.8967 7.24621
3580 2 12.5805 15.9018 3.69978
583 1 16.2234 15.9938 3.64597
1606 1 17.8783 17.8567 7.22607
2109 1 16.1762 16.0706 7.18585
3112 2 15.9338 17.7214 5.30564
3110 2 18.1162 15.9094 5.52554
3582 3 18.0489 17.8231 3.70502
21 3 0.0263451 1.57122 8.95307
604 2 -0.303902 0.0898671 10.5211
2110 1 1.82777 1.74565 10.6014
2589 3 1.88979 -0.100263 9.16788
585 2 6.95844 1.77655 8.92645
1092 1 5.38661 -0.218768 8.90074
1608 1 6.79511 0.0634509 10.693
1607 1 3.78768 -0.291772 10.7579
2111 1 5.37735 1.7725 10.6478
2591 2 3.60401 1.63938 8.82313
1116 2 10.575 0.0703121 10.6488
2612 1 8.82773 1.81974 10.8179
2592 2 10.6255 1.74975 8.88337
3587 3 8.80351 0.301693 8.99776
587 3 14.2384 1.58802 8.96782
1609 2 14.1643 0.0949131 10.8406
2090 1 12.4681 0.126578 8.835
2613 3 12.5575 1.81399 10.7088
26 2 16.0838 -0.108514 9.03235
2594 3 17.6068 1.71526 8.87574
3116 1 15.9438 1.76984 10.6329
3115 3 17.8612 -0.06842 10.5649
1093 2 1.52969 7.30282 8.99286
2091 1 1.87271 3.34162 8.61082
2615 1 0.156105 3.43934 10.3683
3118 3 -0.0699762 7.16795 10.6746
3117 2 1.88375 5.16649 10.5983
3089 2 0.173018 5.61191 8.75656
30 1 5.26388 3.83712 8.84274
45 1 7.0154 7.16128 10.6537
1096 1 3.34533 5.10067 8.79517
2112 1 6.99458 3.53137 10.4983
2616 1 3.58835 3.55886 10.7871
3091 3 7.16704 5.24649 8.86338
3608 1 3.52841 7.40565 10.6915
3607 3 5.1747 5.705 10.8379
3591 1 5.19488 6.8615 8.77482
46 3 10.7056 7.13968 10.7945
1098 3 10.5937 5.33557 9.20841
1591 1 8.76785 3.52236 8.94905
1588 2 8.89642 7.21977 9.19714
2113 3 10.6597 3.61667 10.6917
3609 2 8.74726 5.37242 10.5746
32 1 12.5674 7.18399 8.85355
34 1 12.3687 3.1947 8.75496
36 1 14.5633 5.31707 8.73136
609 1 14.2502 7.14501 10.6764
3119 3 14.3759 3.50601 10.7267
3611 2 12.6731 5.25174 10.4662
1120 2 17.7871 3.41055 10.8443
1615 1 18.0578 7.04606 10.8462
1593 3 17.9034 5.30653 9.18418
2093 2 16.184 7.16578 8.99006
2595 2 16.1294 3.30521 8.88349
3612 2 16.0286 5.35246 10.5478
48 2 1.81772 8.82406 10.8598
2095 1 -0.149529 9.12161 9.11895
2596 1 1.70749 10.5923 9.14186
3120 2 0.0230262 10.6405 10.893
37 3 3.48664 8.89323 8.7964
49 1 5.21447 9.00258 10.7027
612 2 6.94194 10.5825 10.855
1105 2 5.26655 10.505 8.91519
2096 2 7.26505 8.9689 9.04588
3121 2 3.4488 10.7733 10.7278
613 1 8.83212 8.9932 10.7273
598 1 10.6725 9.1278 8.88616
3613 1 10.6632 10.791 10.8964
3596 2 8.64796 10.7471 8.89696
50 2 14.3839 10.7457 10.6972
614 3 12.5725 8.77423 10.739
2598 2 12.5903 10.6661 9.10785
2597 1 14.4177 8.92836 9.01643
51 3 17.8826 10.7879 10.8693
600 2 18.0688 8.96646 8.76977
1122 1 16.2004 8.92668 10.7929
1109 1 16.4969 10.9216 8.96627
616 2 -0.0100988 14.5621 10.8113
601 2 0.0045608 12.7517 9.07707
1123 1 1.72119 12.6547 10.6076
3094 1 1.84131 14.5768 8.95086
1124 3 5.11122 12.348 10.6404
1111 2 5.38055 14.2414 8.79199
1619 2 6.95725 14.3405 10.6157
1618 3 3.71973 14.5546 10.778
1601 2 6.9647 12.523 9.0355
3095 3 3.59128 12.6155 8.78019
617 1 10.7934 14.2228 10.8547
1125 1 8.85628 12.7124 10.6074
3096 1 8.81001 14.2479 9.01859
3598 2 10.6031 12.1281 9.00485
1126 3 14.4273 14.0805 10.7323
1113 1 12.4738 14.036 8.88186
1620 1 12.5512 12.4751 10.5865
1602 2 14.4495 12.3841 8.88087
1621 1 16.0834 12.5254 10.8215
3126 1 18.0197 14.3948 10.9756
3102 3 16.1158 14.2674 9.15772
3101 1 17.9246 12.4517 8.99934
1623 3 0.134989 17.9717 10.6206
2119 2 1.90668 16.0202 10.4883
2606 2 1.78583 17.7714 8.70025
3600 3 -0.147624 16.0985 8.93864
40 3 7.2709 16.1078 8.83651
619 2 3.47969 17.7403 10.6383
1127 2 7.21976 17.8944 10.7634
2120 2 5.37127 16.1532 10.4931
2106 1 3.6026 16.0356 8.86686
2105 3 5.3717 18.0043 8.6948
1624 3 10.6511 17.5347 10.7088
2108 2 10.7558 15.7132 8.97225
2625 2 8.81539 16.0044 11.0601
3108 3 9.11431 18.2407 8.69555
603 2 14.3424 16.1262 9.1676
1115 2 12.5897 17.8313 8.76818
2626 2 12.5398 15.8383 10.7406
3620 3 14.2261 17.8868 10.881
2628 2 16.3608 16.2713 10.7897
2611 2 17.9592 16.0436 8.87392
3127 1 17.9253 17.9665 10.6014
3111 1 16.0852 17.8475 8.97756
42 1 -0.00242356 2.02698 12.3906
2121 3 0.0442046 0.0667284 14.312
2629 1 1.78423 1.80576 14.3431
3113 3 1.82653 0.191859 12.2587
43 2 3.63795 1.86234 12.4717
605 3 6.98589 1.92323 12.5283
1625 2 6.88729 -0.0887724 14.1769
2123 2 3.45662 -0.161215 14.3297
3128 1 5.03158 1.8898 14.1811
3605 2 5.22973 0.0853541 12.7425
606 1 10.9068 1.68017 12.571
1627 3 10.6082 0.291372 14.3344
3129 2 8.82847 1.89661 13.9492
3606 2 8.68299 0.126764 12.3779
1117 3 14.3503 1.69827 12.6612
2632 3 14.0551 -0.204297 14.396
3131 3 12.5211 1.83689 14.2453
3114 3 12.5571 -0.0790369 12.3782
44 1 16.0928 0.0582204 12.5303
501 3 17.8489 -0.108291 14.2899
2614 3 17.8193 1.69924 12.6858
3132 2 15.852 1.50454 14.3674
607 3 1.78462 3.33842 12.3381
1119 2 1.64304 6.94613 12.2933
1118 3 0.0460027 4.95863 12.2966
2634 1 -0.0392186 7.04989 14.18
2633 2 -0.0203833 3.65238 14.4546
3624 3 1.90017 5.35798 14.3459
60 1 7.18676 6.9421 14.0463
608 2 5.37226 3.57277 12.4575
1612 1 6.92744 5.24691 12.295
1611 3 5.11883 7.3365 12.7184
1610 1 3.58901 5.40274 12.5756
2128 2 6.84472 3.54101 14.1412
2126 2 3.55525 3.51972 14.3322
3136 2 3.25232 7.1548 14.2843
3626 1 5.29783 5.57879 14.2896
1613 2 10.6703 5.41261 12.6276
2114 3 8.7932 7.00354 12.3552
3137 1 10.8098 3.54816 14.0078
3629 1 8.81941 5.05311 14.2684
3628 3 10.6416 7.12087 14.118
3610 3 8.80958 3.789 12.3148
610 1 12.5885 3.63563 12.4937
1614 2 14.6734 5.33658 12.4308
2617 2 12.5361 6.69403 12.4769
3138 3 14.2175 3.5271 14.2991
3631 1 14.2804 7.28035 14.249
3630 3 12.4464 5.60257 14.3882
47 1 17.8499 5.28606 12.6423
65 1 16.299 5.53933 14.3118
1138 3 17.8959 3.57632 14.4272
1121 2 16.0378 3.23267 12.5947
2618 2 16.2702 7.25499 12.4908
3140 2 17.9481 6.94919 14.4711
67 2 1.70533 8.93118 14.2647
611 3 1.79932 10.9018 12.4261
2115 1 0.0628895 8.88103 12.3846
2636 2 0.251806 10.9156 14.2352
69 1 7.09075 10.5529 14.3774
70 2 5.2853 8.70746 14.6735
1616 3 5.22949 10.5119 12.5883
2116 1 3.31011 9.12586 12.551
2619 3 7.06142 8.75083 12.4172
3633 3 3.37311 10.8245 14.4084
71 2 8.72582 8.75433 14.366
2117 1 8.68303 10.6049 12.5219
2620 3 10.6789 8.70089 12.4061
3141 1 10.3489 10.6889 13.9916
510 1 12.566 8.71369 14.2715
1617 3 12.7319 10.5933 12.3794
3122 2 14.2681 8.77884 12.4269
3635 2 14.4262 10.6922 14.2658
511 3 16.2147 8.77929 14.565
615 3 18.1012 9.0291 12.5762
1639 3 17.8897 10.576 14.4638
2118 3 16.1297 10.4479 12.5225
513 1 -0.00068848 14.5489 14.4127
514 2 1.58661 12.7407 14.2942
2621 1 0.185725 12.7911 12.5292
3123 1 1.83869 14.5363 12.4079
72 3 7.09048 14.26 14.2078
515 2 5.27358 12.4892 14.4133
516 1 3.68312 14.1844 14.4742
3125 3 6.92558 12.373 12.644
3124 1 3.43498 12.5593 12.4636
3614 3 4.93068 14.0624 12.6405
73 1 10.8657 14.5706 14.3056
1145 3 9.04251 12.6479 14.2333
3616 2 10.7056 12.3702 12.4709
3615 2 8.90449 14.2541 12.4792
1147 3 12.5429 12.2679 14.1432
1146 3 14.41 14.0119 14.2417
2622 2 12.6231 14.3185 12.4805
3617 1 14.2594 12.4783 12.4837
1149 2 16.1129 12.3596 14.1661
1622 3 17.8352 12.545 12.4922
3146 2 17.6334 14.306 14.1951
3618 2 16.1267 14.1831 12.3927
52 1 -0.0806867 16.2862 12.4706
518 3 1.12021e-05 17.953 14.1767
1150 1 2.05953 16.1471 14.4699
2623 3 1.75001 17.688 12.5599
53 2 3.59668 16.3496 12.5806
618 1 6.8852 15.9645 12.4265
1151 2 3.80177 17.9972 14.1681
1642 2 5.20582 15.9807 14.3328
2142 1 7.03263 17.7675 14.2784
2624 1 5.52611 17.9477 12.4211
54 1 10.7311 15.9651 12.4725
1643 3 8.78703 15.8923 14.2749
2649 2 10.7775 17.9031 14.3647
3619 1 9.01162 17.8306 12.624
55 3 12.5457 17.7324 12.5531
620 1 14.5249 16.0073 12.4957
1646 3 12.6936 15.9893 14.4532
1644 2 14.1969 17.9401 14.242
56 3 16.0239 17.7651 12.4715
1647 1 15.9702 15.964 14.1867
2627 1 17.8216 16.2813 12.4135
3644 2 17.8229 17.874 14.1867
57 2 1.71069 -0.09976 15.9688
621 3 0.0632487 1.82659 16.2923
1128 3 0.0828677 -0.00189954 17.7448
2122 1 1.63994 1.97294 17.8071
58 2 5.29001 0.289848 15.9102
1132 1 7.26692 0.164724 17.7716
1131 1 7.09922 1.43647 15.9567
1130 3 3.38201 0.169083 17.8429
1129 3 3.44835 1.82118 16.006
2630 2 5.22007 1.92595 17.9331
1133 2 10.5972 1.91581 15.6452
1626 1 10.6959 0.214514 17.837
2631 1 8.95451 1.66433 17.6946
3621 1 8.83736 0.0467825 16.0214
59 3 12.3798 0.23686 16.0244
1134 2 14.2299 1.71436 16.1291
2124 2 14.0546 0.067836 17.8728
3130 1 12.5334 1.8678 17.9193
502 2 15.8809 -0.0791539 16.2674
3133 3 16.0866 1.79727 17.7353
3623 3 17.7723 0.0745306 18.0931
3622 2 17.9468 1.67811 15.9921
503 3 1.78114 3.72017 15.9823
504 3 1.71087 7.17215 16.1149
1628 3 0.0191683 5.48193 16.1916
2125 1 0.191333 3.75785 18.0143
3134 3 0.0265824 7.16216 18.0025
3625 3 1.81669 5.36297 18.1006
61 3 5.36955 3.76153 16.1215
505 2 3.54845 7.26046 18.0692
1135 2 7.25229 6.96844 18.0286
1631 1 5.21223 6.92851 15.9686
1630 2 3.47623 5.38379 16.2449
1629 2 7.03703 5.47349 15.9145
2127 2 3.3783 3.38561 17.933
3135 1 7.04785 3.42024 17.811
3627 2 5.2628 5.40373 18.0463
62 1 8.85048 5.20858 17.5055
63 3 10.5704 7.04911 17.6443
506 3 8.42308 3.42466 15.8812
1632 2 10.6612 5.20826 16.0335
2129 1 8.90953 7.05978 15.7857
2635 2 10.44 3.41374 17.8018
64 1 12.4448 5.41406 17.7927
1137 1 14.3974 7.00023 17.8787
1136 2 12.2757 3.61328 15.942
2131 3 14.2847 5.26146 16.0305
2130 3 12.6204 7.10931 16.0415
3139 1 14.0885 3.69539 17.8833
66 3 17.8681 5.21361 16.1451
507 1 16.1004 5.37148 17.8901
1140 3 17.9225 3.39778 18.0403
1139 2 15.8447 3.56414 16.1762
1634 1 17.6362 7.18495 18.2481
1633 2 16.2447 7.05688 16.2551
508 1 1.61569 8.9025 18.0985
1141 2 1.67724 10.6245 16.0228
2132 1 -0.143313 9.04254 16.01
3632 2 0.123794 10.6654 17.7171
68 3 3.60167 10.6737 17.6919
509 2 7.20816 10.7492 17.9768
1142 3 5.38673 8.9124 17.6686
1635 1 5.62929 10.6616 16.0752
2134 2 7.08985 8.34416 16.0346
2133 3 3.51815 8.80852 16.0483
1143 3 8.95784 8.86529 17.7702
1636 2 8.76682 10.8677 15.9277
2637 1 10.7614 8.7324 16.0957
3634 3 10.9248 10.4123 17.7525
1144 2 12.4703 10.6558 15.8857
1638 1 12.6147 9.02225 17.9739
1637 2 14.447 10.7504 17.8358
2638 3 14.3608 8.8476 16.1677
512 1 17.7962 8.69609 16.1398
1640 1 16.2329 9.0716 17.892
2135 3 15.9957 10.7208 16.1673
2639 1 17.9222 10.5555 17.686
2137 2 -0.214457 14.2948 18.0839
2136 3 2.03495 12.7597 17.9959
2641 1 1.78851 14.5933 16.3026
2640 1 0.0426884 12.6699 16.2147
2140 2 7.00948 14.3875 17.8469
2139 1 3.89071 14.3136 17.9916
2138 3 5.483 12.3754 17.8689
2643 2 5.36033 14.0951 16.2412
2642 3 3.51148 12.5478 16.0064
3142 3 7.14476 12.5649 16.0677
2141 2 9.00587 14.4532 16.1168
2645 2 8.94473 12.6443 17.6906
2644 2 10.9266 14.3066 17.7409
3143 1 10.8035 12.3349 16.0051
2647 3 12.4916 14.1459 16.2527
2646 1 12.4276 12.3185 18.0289
3145 2 14.3064 14.3006 17.7719
3144 3 14.1387 12.2881 16.0479
517 1 17.8764 14.4372 17.8359
1148 2 17.8011 12.307 15.997
3148 1 16.0247 14.0796 16.1733
3147 2 16.1682 12.4849 17.675
2648 1 1.4883 18.0255 16.2191
3150 2 1.91321 16.3342 18.153
3149 1 -0.107121 16.2383 16.3749
3636 2 -0.203231 17.9358 18.0712
1641 2 3.68163 17.6497 18.0347
2143 1 7.10643 17.892 17.7654
3640 2 5.39376 17.7457 16.0292
3639 1 6.95761 15.8905 16.1333
3638 2 5.4008 16.1982 17.9534
3637 1 3.77815 16.0792 16.3044
74 3 8.98387 17.6632 15.82
519 2 10.7053 17.9555 17.7981
3642 1 8.78793 16.1149 17.671
3641 1 10.8061 16.155 15.8132
75 3 12.3618 16.1051 17.6762
76 2 12.582 17.9574 15.9315
1645 3 14.322 17.8121 17.8118
3643 2 14.4625 16.0389 15.9929
77 1 16.1397 15.966 17.8994
2144 3 17.8193 16.1057 15.8327
2650 1 17.7353 17.6764 17.9552
3645 1 16.0337 17.8298 16.177
520 1 -0.142422 -0.037998 21.7083
78 2 0.00148338 1.83028 19.7842
2145 2 1.64418 1.62 21.4647
3151 1 1.66424 -0.107526 19.7527
521 1 3.42453 0.0338837 21.3234
80 1 3.50112 1.76225 19.7838
79 2 7.11555 1.67659 19.6142
2147 3 5.31144 1.78643 21.5285
2146 3 7.0964 -0.133439 21.3824
2651 3 5.33041 -0.0368466 19.3854
81 2 10.707 1.96757 19.8672
1648 1 10.829 -0.0676393 21.5082
2652 3 8.83435 1.7919 21.5207
3152 3 8.97367 0.172401 19.5669
522 3 14.4778 1.64976 19.494
1649 3 14.1661 0.0452703 21.2476
2653 2 12.4533 1.69655 21.7655
3646 1 12.2529 0.32998 19.6516
82 3 17.6167 0.0710675 21.5427
2654 1 17.8679 1.78722 19.6167
3153 3 16.096 1.95285 21.3401
3647 2 15.9221 -0.121067 19.7517
523 1 -0.0679316 5.15365 19.8227
84 2 1.91168 7.15644 19.7747
83 1 -0.122664 7.09867 21.5593
1650 2 -0.128927 3.58865 21.511
3155 2 1.71651 5.41588 21.2822
3154 3 1.68102 3.37272 19.8331
524 1 3.79603 4.86217 19.7543
525 2 7.00588 5.21585 19.6306
526 2 3.19126 7.13924 21.4735
1153 3 7.16577 7.2362 21.2425
1152 3 5.36195 7.4055 19.5587
2655 2 3.58994 3.54222 21.6783
3156 2 7.03642 3.56969 21.4197
3649 1 5.25216 3.46112 19.7505
3648 3 5.51784 5.4515 21.6045
86 2 10.502 7.19326 21.2766
85 3 8.76581 3.75627 19.5144
1155 1 10.7649 5.14733 19.5564
1154 2 8.99634 6.85282 19.5239
2656 1 10.739 3.48493 21.7193
3650 3 8.90726 5.32931 21.2535
527 2 12.4704 7.1976 19.5113
88 1 12.49 5.46983 21.613
87 3 12.3058 3.29434 19.7737
1156 2 14.1727 5.08905 19.845
2148 2 14.3838 6.98665 21.5079
2657 1 14.2592 3.3642 21.5985
528 1 18.0054 3.70585 21.3942
89 2 15.9769 4.98406 21.2668
1157 1 16.0028 7.14975 19.8511
3158 1 17.8699 5.33598 19.8108
3157 3 17.9309 7.13233 21.5688
3651 3 15.9849 3.52906 19.4377
529 3 1.46666 9.0177 21.2479
530 3 1.94726 10.7791 19.5852
1158 3 -0.0927989 9.00607 19.6079
3652 3 -0.174235 10.7871 21.2799
531 1 5.49593 8.91007 21.4563
532 2 5.57521 10.5996 19.4557
533 1 7.40591 10.6169 21.4471
1159 3 3.62915 8.89798 19.4358
1651 3 7.661 9.03942 19.6729
3653 3 3.66086 10.5714 21.3265
90 2 8.99555 11.1258 19.5938
1161 1 8.88686 8.95971 21.7331
1160 2 10.6743 10.6269 21.132
1652 3 10.7752 8.72656 19.7495
534 1 12.7284 10.376 19.8937
1162 3 12.5513 8.55333 21.3758
1654 1 14.2173 10.606 21.3897
1653 3 14.4613 8.88524 19.758
1656 2 16.1282 10.9391 19.5378
1655 3 16.2011 9.0105 21.413
3159 2 17.8383 10.9555 21.4677
3654 3 17.9234 8.94202 19.5966
1660 2 0.0940269 14.3637 21.651
1659 2 1.88283 14.4193 19.7002
1658 1 1.65436 12.727 21.6174
1657 1 0.23081 12.4742 19.5708
1163 2 5.47735 14.3136 19.7176
1661 3 3.59316 14.3578 21.6826
2151 3 7.29273 12.6932 19.5617
2150 3 5.63538 12.672 21.3223
2149 3 3.95051 12.5959 19.9348
3160 3 7.42792 14.5071 21.0822
1662 2 9.01092 14.7178 19.5297
2153 1 9.15618 12.4818 21.512
2152 2 10.854 12.6347 19.5523
2658 1 10.743 14.2913 21.273
2155 1 14.3222 12.5126 19.3502
2154 3 12.4415 14.2764 19.5635
2660 2 14.3931 14.0999 21.4181
2659 2 12.6767 12.2143 21.0953
535 1 17.7123 12.5725 19.5313
1164 1 17.5457 14.1589 21.3322
2156 2 15.9511 14.2422 19.4406
2661 2 15.8099 12.366 21.4789
1165 1 -0.0580542 17.9207 21.6772
2157 1 1.8042 17.9938 19.9504
2662 3 0.0963697 16.0527 19.7432
3161 3 1.62183 16.1371 21.6415
1664 2 7.21635 17.8902 21.5865
1663 3 3.68341 18.0054 21.4764
2664 2 3.67044 16.1579 19.9918
2663 3 7.25297 16.2367 19.4945
3163 3 5.32854 16.0386 21.4438
3162 2 5.42613 17.9419 19.8553
536 3 10.6515 17.9481 21.3322
2665 1 10.5888 16.1875 19.3676
3164 2 8.95595 17.9872 19.5508
3655 3 8.9421 16.2478 21.3585
2666 3 12.4229 18.0043 19.5413
3166 3 14.3416 15.8878 19.6187
3165 1 14.2726 17.8428 21.2402
3656 1 12.2879 15.9641 21.0963
92 3 15.9093 15.9992 21.571
91 1 17.9587 17.9696 21.5658
1166 1 17.9234 16.1026 19.8676
3167 2 16.0672 17.9819 19.7178
93 1 1.82607 1.83259 25.0784
1665 3 1.76646 -0.0798588 23.2709
2667 1 -0.15871 -0.0396836 25.2354
3168 2 0.000150295 1.64372 23.4156
2158 2 5.60661 -0.137403 23.3735
2670 1 3.59994 -0.0889007 25.2622
3170 1 6.95681 1.93189 23.2565
3169 3 3.65209 1.5182 23.449
3659 2 7.03884 0.0360886 25.3576
3658 1 5.12814 1.7874 25.1692
537 3 9.00799 1.76987 25.2419
2671 1 8.70035 -0.174521 23.3249
3171 2 10.7149 0.0197615 24.9912
3660 1 10.698 1.80546 23.4714
2673 1 12.4101 -0.150015 23.3687
3663 3 14.3974 1.71489 23.2621
3662 3 14.0953 -0.165921 25.2097
3661 1 12.3169 1.6112 25.0945
539 3 16.0127 1.85344 25.1757
1167 2 17.7766 -0.0890168 24.9364
1668 1 17.8627 1.98981 23.1441
2160 1 16.0128 0.130466 23.2369
99 3 1.75053 5.58867 24.9264
98 1 1.86404 7.13179 23.1077
97 1 -0.126872 7.20432 24.7042
96 1 -0.0222023 5.42753 23.1071
3173 1 1.55167 3.59225 23.0839
3172 2 0.402187 3.69362 25.1024
540 3 3.87063 7.2948 24.9211
541 3 5.44837 7.39596 23.0283
542 1 7.11182 5.4299 23.1502
543 2 5.20111 5.25471 24.794
101 1 6.91876 7.22529 24.9623
100 3 3.39073 5.37666 23.1708
2675 1 7.32783 3.79646 25.0097
3175 2 3.33001 3.38695 24.8332
3665 1 5.33007 3.50502 23.1976
546 2 8.66758 7.17569 23.2664
547 2 9.1258 5.55832 25.3294
102 1 10.5794 5.40659 23.0751
1170 3 10.7243 7.42964 24.8308
3177 3 10.5095 3.4402 25.0852
3666 3 8.8585 3.54995 23.0621
548 2 14.3148 5.45395 23.4014
549 1 12.3508 5.40809 25.111
105 3 14.2231 3.57119 25.1369
1670 1 12.536 7.28869 23.3478
3179 1 12.4334 3.54292 23.4409
3667 2 14.2402 7.0355 25.2697
1172 2 16.201 5.35741 25.2909
1672 1 17.8945 3.52482 24.8278
1671 2 16.0948 7.06648 23.4097
2678 1 17.8979 6.98023 24.9972
2677 3 17.9293 5.2932 23.2672
3668 3 16.0978 3.58242 23.1455
550 2 -0.049404 9.11229 23.2177
106 3 1.72215 10.6427 23.1804
1175 3 1.67403 8.93602 24.7409
3669 2 -0.205057 10.9524 24.8925
108 2 5.4851 10.7303 23.0683
1180 3 7.26322 10.7336 25.003
1178 2 7.22927 8.9307 23.2689
1177 3 3.65574 8.87581 23.1167
1176 3 5.44327 9.07114 25.3163
3670 3 3.72346 10.8768 24.9796
551 2 10.7065 10.6752 25.1381
552 3 9.20101 10.7297 23.337
1181 2 8.99226 8.80067 25.0765
1674 3 10.7564 8.90169 23.0761
1182 2 12.6752 10.6253 23.2021
1676 2 12.6259 9.10416 25.1421
1675 2 14.1509 8.68198 23.1824
2163 3 14.2739 10.691 25.0172
1183 1 16.1005 8.83752 25.0255
1677 1 16.106 10.6036 23.3921
2165 1 18.125 10.559 24.9297
3671 3 17.9478 8.82888 23.1973
555 1 -0.208203 14.3758 24.662
1184 1 1.87151 14.4045 23.3189
1678 3 1.64511 12.3934 24.7849
2166 2 -0.066715 12.3209 23.0511
113 2 7.1429 14.3412 25.0141
1185 2 5.46114 12.5638 24.8196
2170 3 5.59678 14.3385 23.18
2169 1 3.7376 12.1661 23.0874
2168 1 3.52984 14.1873 24.7021
2167 2 7.33815 12.7392 23.1886
1680 1 10.9193 13.9601 24.8071
2171 2 10.7839 12.4247 22.9891
2682 3 9.0813 14.2725 23.2364
2681 1 9.00374 12.5419 25.0638
114 2 14.4593 14.1852 24.8919
1681 1 12.3798 12.1776 24.9079
2684 3 14.2635 12.3707 23.4053
2683 3 12.6395 14.2631 23.1148
557 2 17.8008 12.6136 23.1503
2173 2 16.0815 14.1713 23.2228
2685 2 16.1073 12.227 25.0288
3183 3 17.526 14.0517 25.086
1684 2 2.10372 16.1942 24.9169
1683 3 1.92857 17.9035 23.2265
2688 1 -0.028579 16.1304 23.3021
2687 2 0.126181 17.7308 24.9155
2175 1 7.19574 17.8885 25.2328
2174 2 5.53135 17.8575 23.2598
2689 2 3.54445 18.0552 24.8626
3187 2 5.25759 16.3208 25.048
3186 2 7.40237 15.9137 23.3016
3185 1 3.54869 16.3305 23.1763
1687 3 8.96994 17.9541 23.1678
1686 1 8.95636 16.1433 25.2819
2177 2 10.8384 17.7785 25.0538
3675 2 10.6995 16.0441 23.1214
2178 2 14.3237 17.8176 24.849
2690 3 12.4953 17.8233 23.1079
3188 1 12.1648 15.9824 24.8823
3676 2 14.2274 15.9685 23.3358
1187 1 18.019 15.8254 23.2238
1186 2 17.8507 17.9027 24.8122
1689 1 15.9715 15.961 24.7742
3189 3 15.87 17.7054 23.1107
1188 3 0.0162347 0.167486 29.0026
2180 1 1.87551 1.76592 28.8149
2668 3 1.49298 0.304969 26.984
3657 3 -0.141232 1.77628 26.7868
559 3 7.08905 -0.0970059 28.8042
94 3 7.19807 1.88408 27.0155
1189 2 3.6404 0.148055 28.7946
1666 3 5.19851 -0.192986 26.947
2181 1 5.41935 1.95015 28.6129
2669 1 3.66266 1.74934 26.9351
560 3 10.5096 0.148496 28.8389
95 1 9.10191 -0.000867692 26.8743
2182 1 8.90936 1.76648 28.7649
2672 1 10.7629 1.76195 26.9315
538 2 14.2166 1.89288 26.9612
1667 1 12.4088 -0.0684967 27.0634
2184 2 12.3734 1.52163 28.7189
2183 3 14.3225 0.130809 28.7051
2159 3 17.6431 1.74138 26.7162
3193 1 16.0149 1.65537 28.5551
3679 3 17.8491 -0.126856 28.6253
3664 1 15.8816 0.106321 26.7593
1168 2 2.04762 3.36709 26.9714
1669 3 1.87223 7.16037 26.6252
2186 1 0.0726746 7.05689 28.5406
2185 1 0.157272 3.86031 28.6432
2674 2 -0.0405036 5.40058 26.6168
3194 2 1.7994 5.68928 28.6679
544 3 3.53796 5.31713 26.9758
563 3 7.09369 7.13836 29.036
1691 2 7.34724 3.82738 28.5762
1690 1 3.59199 3.67528 28.8176
2676 2 7.11546 5.54112 26.7579
3196 3 3.67269 7.23554 28.5478
3195 1 5.3954 5.30581 28.6624
3176 3 5.33952 3.76489 26.6293
3174 3 5.17131 6.86796 26.8601
545 1 10.5562 5.46428 26.942
1171 1 8.97881 3.86367 26.8706
1169 3 8.79376 7.247 27.0641
2694 3 10.8001 3.50965 28.6087
3197 2 9.04556 5.34756 28.7473
3681 3 10.719 7.16516 28.6813
104 3 12.3344 3.69319 26.6973
103 3 14.2624 5.2715 26.8035
2695 1 14.0626 3.3904 28.6304
3178 3 12.409 7.24262 26.924
3684 2 14.3954 7.25743 28.4547
3683 3 12.5302 5.35622 28.5241
622 3 17.8609 3.32875 28.5785
1004 1 18.049 6.80087 28.2986
1174 3 16.1709 7.14517 26.7047
1173 1 17.8378 5.18015 26.8369
3180 3 15.8982 3.52774 26.9764
3685 3 15.9912 5.25826 28.583
1673 2 -0.0404154 9.12156 26.4568
2161 3 1.77605 10.8558 26.6284