ITEM: TIMESTEP
5000
ITEM: NUMBER OF ATOMS
4000
ITEM: BOX BOUNDS pp pp pp
9.6613418467061507e-02 3.5637446581533140e+01
9.6613418467061507e-02 3.5637446581533140e+01
9.6613418467061507e-02 3.5637446581533140e+01
ITEM: ATOMS id type x y z
1 1 0.0636572 2.01451 1.71996
1563 3 0.21581 0.0967811 0.0882121
2064 1 1.9265 2.07442 -0.152609
3561 2 1.71093 0.196062 1.77015
564 3 3.66556 1.84199 1.73366
565 2 7.27249 2.12401 1.84685
1565 3 7.20225 0.345427 -0.00581565
2065 2 3.57521 0.221877 0.186228
3061 2 5.43343 1.99889 -0.017604
3562 2 5.61565 0.271594 1.72123
566 2 10.895 1.90172 1.75866
1070 2 10.6763 0.154674 0.153746
3063 1 9.15078 0.0752659 1.91859
3062 3 9.07489 1.90545 0.0899098
567 3 14.2265 1.81427 2.07505
2566 3 14.3912 0.0595574 0.201622
3064 2 12.6402 1.9188 0.0707221
3563 2 12.6695 0.0996422 1.88977
2 2 17.767 0.117016 0.32791
3 2 16.1347 0.0887929 2.03209
3066 1 17.9319 1.84944 1.8949
3065 3 15.9149 1.83219 0.143092
4 2 1.87321 5.35817 0.0547441
5 2 1.78962 3.64987 1.82982
6 1 1.99147 7.25875 1.78123
1071 1 0.300975 5.39148 1.7974
3067 3 0.0439293 3.72362 -0.0490133
3565 1 0.0621969 7.05866 0.177728
7 1 5.59128 5.52402 -0.0882844
8 2 3.54236 7.24742 -0.000164735
1072 1 7.273 5.4142 1.91903
1075 1 5.47011 7.23298 1.79867
1074 1 3.59704 5.37802 1.7511
1567 1 7.10562 7.20108 0.0923538
2570 2 7.43137 3.83907 0.0458591
2569 1 3.66096 3.55368 -0.0240205
3569 2 5.42804 3.82614 1.85169
9 3 8.94293 5.46567 0.220955
10 1 9.24021 3.67927 1.7029
1077 2 10.7048 7.27806 -0.0318024
1076 2 10.8542 5.5351 1.79811
1568 1 9.06549 7.28825 1.88959
3068 1 10.8143 3.69833 0.0961065
11 3 12.507 5.49824 0.030059
12 1 14.2767 3.65119 0.107204
570 3 12.5671 3.63712 1.85033
1571 1 14.4208 7.20385 0.21882
1570 3 14.2336 5.58138 1.96449
1569 2 12.5549 7.35188 1.87582
572 3 16.2573 3.56861 1.81219
1081 1 16.2603 7.27968 1.80382
1079 2 18.0493 5.63246 1.86403
1078 3 16.0834 5.46962 -0.0486022
1573 3 17.9261 3.74281 -0.02234
2070 2 17.9624 7.26584 0.0705645
575 1 2.06804 10.7762 2.09649
1082 2 1.87678 9.0315 0.126091
1574 1 0.0144044 8.88204 2.06744
3070 1 0.15899 10.5564 -0.0167868
576 1 3.71693 10.93 0.132366
1085 2 5.35243 9.09653 -0.0255421
1083 2 5.47675 10.8977 1.74674
1577 2 7.26968 10.8343 -0.0631566
1576 1 7.18109 9.12172 1.80168
1575 2 3.72586 9.17168 1.80943
14 3 10.9244 10.7274 0.00469891
1087 1 9.02726 10.7748 1.94212
1086 1 9.00693 9.00784 0.0565114
2071 3 10.7961 9.08698 1.8549
580 2 12.6132 10.8413 1.83234
1088 2 14.2725 10.7834 -0.0317552
2073 3 12.5248 8.92801 0.0840554
2074 3 14.3102 9.05082 1.83873
15 3 18.038 9.05327 1.84757
1581 1 16.1351 10.7535 1.78767
2076 2 18.0232 10.6934 0.12774
2075 2 16.0592 8.93842 0.205201
2079 3 1.78296 12.3606 0.0482326
2078 2 2.04497 14.2996 1.95719
2077 1 0.284211 12.2759 1.74898
2572 2 0.16554 14.396 0.0790431
2082 3 5.58029 14.3216 1.8991
2081 2 3.80923 12.5117 2.04181
2080 2 5.51981 12.5142 -0.0907922
2576 1 7.32684 14.2904 -0.0100082
2575 1 7.23709 12.3232 1.93688
3071 2 3.67336 14.3677 0.0341128
1583 2 8.87725 14.1805 1.92848
2084 1 10.6857 14.197 0.250008
2579 3 10.8558 12.5471 1.91572
3073 1 9.05301 12.5907 0.0852512
2085 2 12.6166 14.6014 1.98711
2580 2 14.2058 12.721 1.90022
3074 1 12.567 12.673 0.0555127
3574 3 14.3978 14.3446 0.232857
581 2 18.1314 12.5548 1.93318
1089 2 17.8272 14.1704 0.0680322
2583 3 16.1444 14.3371 1.76217
3075 3 15.9757 12.4673 0.137429
16 2 0.0414585 17.7051 -0.0131797
2086 1 1.87113 17.7113 1.94195
2584 3 0.105414 16.0457 1.8723
3076 3 1.90131 16.0726 0.211885
17 1 5.40887 16.0235 0.129863
1090 3 3.6841 17.7388 0.0968134
2585 1 7.3045 17.7807 0.215767
3079 3 5.56046 17.7065 1.76703
3078 3 7.22353 15.9469 2.04148
3077 3 3.86537 16.0287 1.91316
18 1 9.0409 16.1521 0.120479
1585 1 10.5237 17.7963 0.134354
3080 3 10.6461 16.1018 2.03123
3578 2 8.93183 17.6885 1.94775
19 2 12.4262 16.1894 0.0321118
2088 1 14.2916 17.7358 0.140068
3081 1 14.4347 16.0089 2.07932
3581 3 12.5023 17.6874 1.78128
20 1 16.0846 16.1322 0.168422
1586 2 17.6827 16.0466 1.84798
3083 2 16.1013 18.0358 1.77301
3082 3 18.0427 17.7544 0.159866
584 2 1.74716 1.76393 7.15452
1564 3 0.0254998 0.0381572 3.56659
2588 3 1.96839 -0.11926 5.2645
2563 1 1.84604 1.9642 3.36063
3084 2 0.114429 0.0739612 7.05778
3583 2 0.189695 1.82225 5.39574
22 1 5.37387 1.82229 7.23441
1069 3 3.43162 0.14717 3.44859
1566 2 7.22915 0.249165 3.69616
2089 3 5.33561 0.166761 5.43913
2590 2 3.63518 0.263435 7.1213
2564 1 5.34991 1.87481 3.36872
3085 1 7.26699 0.0588922 6.98906
3585 3 3.58674 1.93584 5.33442
3584 3 7.19029 1.81789 5.36038
586 3 9.04724 2.01898 7.24832
2066 2 10.754 0.00373213 3.63219
2593 2 8.9876 0.102805 5.28047
2565 3 8.88127 2.09397 3.64391
3086 2 10.6827 0.192761 7.18456
3586 3 10.6583 2.04886 5.41393
23 3 12.4575 1.93172 7.05254
24 2 14.2764 -0.028598 7.32066
25 2 14.2327 1.80875 5.47373
2568 3 14.124 -0.0842483 3.66189
2567 3 12.5205 1.72489 3.64298
3087 3 12.4345 0.0920965 5.35442
568 1 17.9626 0.119289 3.75939
588 1 16.0529 1.76066 7.12249
1587 2 17.9424 0.0591321 7.13049
3088 3 16.0623 0.110859 5.54823
3588 2 17.9466 1.75599 5.33759
3564 2 16.1782 1.90794 3.56414
27 1 1.77275 5.41416 7.31585
28 1 1.77922 6.94496 5.40581
589 3 0.0828745 5.34388 5.33274
2067 2 0.250685 3.635 3.50224
3090 1 1.90778 3.69726 5.24402
3590 2 0.0706913 7.25262 7.29245
3589 1 0.0636142 3.59661 7.09164
3567 2 0.0354678 7.09958 3.4914
3566 2 1.91885 5.45246 3.6824
29 3 3.53381 3.67 7.12459
593 1 3.62472 7.19901 7.41065
592 3 7.09887 5.51521 5.72612
591 3 7.0913 7.15815 7.37914
590 2 3.56134 5.40731 5.37049
1095 1 5.10583 5.45622 7.15727
1094 3 5.29005 7.20229 5.37692
1073 1 3.69178 7.14229 3.66579
2068 1 7.16745 7.11552 3.67485
2069 1 3.61484 3.64641 3.59165
3593 3 5.40859 3.6584 5.24439
3592 3 7.11418 3.66266 7.29944
3570 1 5.54785 5.44168 3.74693
3568 1 7.2581 3.65573 3.67294
31 1 9.14466 3.86335 5.65518
569 2 10.8445 7.23107 3.48115
594 3 10.947 5.59606 5.45946
1097 1 9.1784 5.5615 7.20241
1590 2 8.92144 7.29405 5.61084
1589 3 10.7584 7.31117 7.0814
3594 2 10.8322 3.75689 7.12721
3572 3 10.6949 3.65615 3.70824
3571 3 8.99123 5.34042 3.63283
33 1 12.6023 3.61242 5.52163
35 1 14.2648 3.67376 7.19188
571 2 12.5258 5.56002 3.65942
595 2 14.2675 7.24408 7.25988
1100 3 14.3791 5.62055 5.38423
1099 2 12.4357 5.60494 7.35501
1592 2 12.6789 7.21791 5.30865
1572 1 14.5024 7.30333 3.69607
3069 1 14.3238 3.62886 3.95771
573 3 16.2412 5.53335 3.5807
1080 3 17.8432 3.58929 3.61699
1595 1 16.2157 7.24201 5.50259
1594 2 16.0425 5.37428 7.24215
2094 2 17.7867 7.2507 7.23483
2092 2 17.7912 3.495 7.17646
2571 1 17.778 7.46487 3.74089
3092 2 17.8808 5.30537 5.46222
3595 3 15.9711 3.56347 5.43651
13 2 -0.0693728 10.7425 3.50291
597 2 0.190758 10.7701 7.27794
596 3 1.58625 10.6995 5.24999
574 3 1.94353 8.70638 3.72049
1102 2 1.79165 8.9675 7.1431
1101 1 0.110965 8.83774 5.54337
38 2 3.68486 10.8349 7.08155
578 1 3.63149 10.642 3.61595
577 1 5.50447 9.05335 3.65206
1106 2 7.32601 10.6869 7.20513
1104 2 5.4425 10.7329 5.57303
1103 3 3.55341 9.09805 5.50493
1084 2 7.16899 10.6792 3.72052
1597 3 7.16762 8.92386 5.49267
1596 1 5.35261 9.06657 7.21907
39 2 10.7623 10.6573 7.18695
599 3 9.05374 10.8082 5.3513
579 2 11.0133 10.6613 3.73147
1107 2 9.00584 8.98942 7.31818
1578 3 8.98238 8.89333 3.63837
2097 1 10.7982 8.93132 5.28754
1108 3 12.6078 10.626 5.47526
1598 1 12.6763 8.82408 7.18151
1579 2 12.6404 8.87783 3.61069
2072 1 14.5233 10.7059 3.74201
2099 2 14.1916 10.7374 7.29635
2098 3 14.2696 9.10886 5.44699
1599 1 16.0269 9.03417 7.32055
1580 1 16.1686 9.2241 3.62762
2100 1 16.2265 10.7892 5.62423
3093 3 17.8159 10.7981 7.48339
3597 1 17.9972 9.24789 5.6178
3573 1 18.0364 10.8116 3.71002
1110 1 0.209237 14.2942 7.24117
1582 2 1.71134 12.525 3.61742
2103 3 1.95116 12.4875 7.02004
2102 2 1.88655 14.299 5.39
2101 3 0.0365056 12.4602 5.4563
2573 1 0.21169 14.2719 3.54188
1112 2 7.13896 14.3978 7.01455
1600 1 5.46509 12.5619 7.21611
2104 3 5.33672 14.3633 5.3371
2083 2 3.60849 14.2351 3.79233
2601 2 7.20199 12.5084 5.49893
2600 3 3.55831 12.4292 5.3122
2599 1 3.73876 14.4287 7.14621
2577 2 7.20393 14.2341 3.72349
2574 3 5.35718 12.4726 3.6708
2604 3 9.00811 14.1942 5.53461
2603 1 10.7339 14.0693 7.50702
2602 3 10.7463 12.562 5.55488
2578 1 9.0863 12.4287 3.71369
3097 2 8.9379 12.5449 7.31071
3072 3 10.7986 14.3122 3.70472
602 3 14.3527 14.2874 7.27958
1603 1 12.6931 12.37 7.26756
2605 3 14.3521 12.4849 5.32521
2581 2 12.5435 12.7007 3.57587
3098 1 12.5073 14.2123 5.58366
3575 3 14.3275 14.1818 3.72467
1114 1 17.8787 12.397 5.44741
1584 2 17.9976 14.2843 3.78213
2582 2 16.1857 12.631 3.47568
3100 3 16.1582 14.24 5.41763
3099 3 15.9969 12.5961 7.24912
3599 2 17.8465 14.2743 7.18916
582 3 0.0849321 17.8311 3.66043
1605 3 1.98326 17.9317 5.50638
1604 1 1.84982 16.2138 7.26879
3104 1 0.114136 15.9829 5.26335
3103 3 0.0941235 17.6974 7.13406
3576 1 1.96545 16.065 3.61131
2087 1 3.7727 17.9686 3.73918
2607 2 5.53737 17.8797 5.37025
2586 2 7.08758 18.0113 3.63044
3107 2 7.1375 17.9892 7.34029
3106 3 5.48724 16.0386 7.19611
3105 1 3.86062 17.818 7.34958
3602 3 3.64022 16.0883 5.43125
3601 1 7.05835 16.1398 5.53008
3577 2 5.43352 16.0684 3.68846
1091 2 10.643 17.7865 3.82661
2107 1 9.0325 16.114 7.22362
2608 3 8.99247 17.837 5.58603
3109 3 10.7874 17.9466 7.43675
3603 2 10.7044 15.9617 5.47709
3579 2 8.88949 16.0308 3.79125
41 1 14.2369 15.9774 5.38272
2610 2 12.4575 17.9548 5.50626
2609 3 14.2228 17.8053 7.12463
2587 3 14.1413 17.7633 3.52385
3604 1 12.492 16.1059 7.19542
3580 2 12.5402 16.0939 3.9275
583 2 16.1533 15.9795 3.69482
1606 3 17.8489 17.814 7.47194
2109 2 16.0999 15.9707 7.16247
3112 1 16.1449 17.8926 5.48845
3110 2 17.7367 16.0713 5.45287
3582 3 17.7304 17.8654 3.62996
21 3 0.248305 1.7858 8.84506
604 1 0.104121 -0.0205247 10.5665
2110 1 1.98909 1.87727 10.7832
2589 1 1.9474 0.0178544 8.88302
585 2 7.06383 1.94256 8.91627
1092 1 5.46097 0.289618 9.00134
1608 3 7.0716 -0.11345 10.5915
1607 3 3.73213 -0.0660642 10.7468
2111 1 5.37024 1.83151 10.8334
2591 1 3.60435 1.9019 8.76191
1116 2 10.8221 -0.0906941 10.4895
2612 1 8.88836 1.81562 10.5646
2592 2 10.9085 1.9543 8.9085
3587 2 8.98727 0.0732778 9.02736
587 2 14.4228 1.78573 8.9646
1609 3 14.3547 0.0255523 10.8802
2090 1 12.5038 0.239261 8.85901
2613 2 12.5195 1.86291 10.8695
26 2 16.1832 -0.0455448 8.91981
2594 1 17.8783 1.81754 9.01384
3116 3 16.1844 1.69993 10.7046
3115 2 17.916 -0.195134 10.7924
1093 1 1.83923 7.19289 8.97581
2091 3 1.78864 3.70843 8.92664
2615 2 0.0277844 3.4384 10.6101
3118 1 -0.0148207 7.09978 10.7492
3117 3 1.94773 5.25329 10.7976
3089 3 0.0308028 5.45783 9.12461
30 2 5.34315 3.67336 9.0567
45 2 7.2097 7.23794 10.7576
1096 3 3.56063 5.31296 9.11918
2112 1 7.21477 3.85377 10.7094
2616 1 3.52565 3.60867 10.8133
3091 1 7.10818 5.31726 8.93419
3608 3 3.61777 7.32442 10.8468
3607 3 5.35644 5.49151 10.8487
3591 1 5.19065 7.29383 8.98139
46 2 10.7402 7.22262 10.8929
1098 2 10.6903 5.53584 9.0167
1591 3 8.98204 3.80797 8.738
1588 1 8.97976 7.28489 9.11208
2113 3 10.5898 3.53811 10.4987
3609 2 8.86766 5.30823 10.7515
32 1 12.5823 7.31355 9.10793
34 2 12.679 3.50046 9.01073
36 3 14.2094 5.54361 9.03389
609 3 14.3658 7.24569 10.8704
3119 3 14.4238 3.55145 10.5261
3611 3 12.5233 5.47494 10.8704
1120 3 17.8464 3.667 10.7215
1615 2 17.7502 7.19923 10.8861
1593 2 17.8103 5.40931 8.86796
2093 2 16.1344 7.17352 8.91999
2595 2 16.084 3.58916 8.82371
3612 3 16.0402 5.38326 10.9371
48 3 1.71583 9.02958 10.7771
2095 3 0.0818828 8.99187 9.03027
2596 3 1.79864 10.7826 9.00939
3120 2 0.0603938 10.8411 10.9845
37 1 3.6651 9.16338 9.02783
49 2 5.39138 9.00721 10.8913
612 3 7.045 10.8575 10.7961
1105 3 5.35996 10.8476 8.99553
2096 3 6.95276 8.95942 9.03802
3121 3 3.76648 10.9687 10.8389
613 3 9.04859 8.96802 10.8545
598 1 10.7187 8.88963 9.1178
3613 2 10.6617 10.7017 10.7066
3596 1 8.89457 10.5995 9.12102
50 1 14.5307 10.8139 10.9158
614 2 12.4947 9.08353 10.9154
2598 1 12.606 10.8537 8.9591
2597 3 14.329 9.04329 9.19262
51 2 17.7408 10.745 10.8295
600 2 17.8542 8.84004 9.24374
1122 2 16.1582 9.00444 10.831
1109 3 15.9682 10.6866 9.03645
616 1 0.0260624 14.294 10.6577
601 3 0.124664 12.7287 8.98288
1123 3 1.84272 12.4964 10.7036
3094 2 1.91403 14.5631 8.93417
1124 2 5.32042 12.6542 10.7106
1111 2 5.52444 14.4688 8.9177
1619 3 7.29813 14.2771 10.7504
1618 2 3.5668 14.3473 10.8709
1601 2 7.17956 12.6171 8.89582
3095 3 3.55506 12.6388 9.05091
617 1 10.9631 14.4333 10.6901
1125 1 8.95869 12.5264 10.6623
3096 2 8.96323 14.4113 8.89997
3598 2 10.8438 12.2019 9.00219
1126 1 14.3263 14.333 10.9028
1113 1 12.5469 14.146 9.13485
1620 3 12.5833 12.4527 11.0181
1602 2 14.3469 12.5273 9.10425
1621 1 16.1412 12.575 10.9187
3126 2 17.9944 14.2871 10.9952
3102 3 16.0657 14.2497 9.18701
3101 2 17.8349 12.5373 9.20181
1623 3 -0.0135141 17.8863 10.7325
2119 1 1.90875 16.1623 10.7874
2606 3 1.78201 18.0311 9.02292
3600 2 0.242986 16.16 9.09603
40 1 7.4203 16.0276 8.85496
619 3 3.72523 17.8848 11.0181
1127 3 7.22236 17.9104 10.7331
2120 3 5.40765 16.1413 10.7379
2106 3 3.67823 16.1744 9.08937
2105 2 5.52605 17.9471 9.10527
1624 3 10.7627 17.8526 10.8563
2108 3 10.853 16.0439 8.87591
2625 2 9.04512 16.2047 10.631
3108 1 8.97028 17.849 9.02824
603 3 14.4565 15.992 9.1074
1115 2 12.5404 17.8018 8.97005
2626 1 12.6692 16.1227 10.7956
3620 1 14.3163 17.8493 10.8133
2628 3 16.3229 15.8951 10.7965
2611 1 17.9232 16.039 8.97306
3127 2 17.9551 17.8346 10.8023
3111 3 16.063 17.717 8.97602
42 3 0.0605211 1.7135 12.7026
2121 3 0.341605 -0.119404 14.3883
2629 2 1.89514 1.77191 14.3805
3113 3 1.83157 -0.0152517 12.4956
43 3 3.66303 1.85392 12.5148
605 1 7.22724 1.90778 12.4942
1625 3 7.09617 0.107316 14.2096
2123 2 3.50661 0.0318469 14.2441
3128 2 5.35504 1.78938 14.3381
3605 2 5.38875 0.109416 12.3916
606 3 10.7581 1.91605 12.463
1627 1 10.7543 0.184661 14.2579
3129 2 8.85986 1.93808 14.2184
3606 1 8.98484 -0.000862946 12.3258
1117 3 14.3141 1.80545 12.5519
2632 2 14.0687 -0.144648 14.2171
3131 2 12.3286 1.92411 14.2754
3114 1 12.4788 0.0672127 12.3197
44 3 16.1048 0.0332327 12.5701
501 2 17.7919 0.066021 14.3765
2614 1 17.8634 1.87662 12.5021
3132 1 16.1208 1.86432 14.3916
607 3 1.63654 3.50929 12.6192
1119 1 1.81306 7.21965 12.4905
1118 3 -0.0764381 5.24731 12.4771
2634 3 0.0513906 7.0877 14.3139
2633 1 -0.20473 3.71751 14.3879
3624 1 1.96296 5.36774 14.1867
60 3 7.18184 7.4021 14.2932
608 1 5.35586 3.58438 12.2861
1612 1 7.11108 5.52527 12.7057
1611 2 5.58227 7.33087 12.6563
1610 2 3.79015 5.44689 12.5329
2128 2 7.0648 3.66759 14.0913
2126 1 3.68208 3.6038 14.3192
3136 2 3.67335 7.3119 14.3024
3626 1 5.4484 5.60623 14.2555
1613 2 10.6313 5.31389 12.5627
2114 2 8.89507 7.29909 12.5583
3137 1 10.6205 3.64591 14.5355
3629 2 8.79599 5.48665 14.4074
3628 2 10.5735 7.25726 14.2234
3610 1 8.89981 3.63158 12.3164
610 1 12.3759 3.61166 12.4537
1614 2 14.3841 5.44684 12.5533
2617 1 12.6168 7.31479 12.6104
3138 2 14.2126 3.52126 14.1848
3631 1 14.3979 7.07525 14.3281
3630 3 12.4593 5.52654 14.2636
47 1 17.9794 5.42396 12.5683
65 3 16.1497 5.23786 14.3914
1138 2 18.0242 3.46642 14.2589
1121 3 16.2865 3.6334 12.6311
2618 1 16.2153 7.27695 12.49
3140 2 17.8965 7.08305 14.4217
67 3 1.90936 9.06443 14.271
611 1 1.72609 10.8387 12.62
2115 2 0.172845 8.87413 12.531
2636 2 -0.0834936 10.8213 14.2815
69 2 7.03726 10.9029 14.2957
70 3 5.52841 9.0507 14.3366
1616 1 5.46392 11.0008 12.7377
2116 3 3.64707 9.176 12.4638
2619 1 7.15114 9.12393 12.501
3633 1 3.57755 10.815 14.1872
71 1 8.82985 9.09282 14.3469
2117 1 8.91521 10.7348 12.4592
2620 2 10.6323 9.2004 12.4752
3141 3 10.7709 10.6476 14.41
510 2 12.5524 8.99844 14.4494
1617 2 12.6353 10.6893 12.4966
3122 1 14.4969 8.95166 12.6529
3635 3 14.3969 10.6976 14.4035
511 3 16.1895 8.86488 14.3252
615 1 18.0048 9.07735 12.6242
1639 2 17.9614 10.8063 14.4513
2118 2 16.241 10.6813 12.7591
513 3 0.0394505 14.2947 14.3456
514 3 1.84803 12.4771 14.3324
2621 3 0.0179718 12.7275 12.5835
3123 2 1.78504 14.4343 12.4065
72 2 7.29128 14.2944 14.4123
515 2 5.35997 12.7412 14.2625
516 1 3.5337 14.3274 14.3905
3125 3 7.15422 12.5982 12.5625
3124 3 3.57025 12.6356 12.6243
3614 1 5.47184 14.2846 12.37
73 2 10.7991 14.1948 14.3715
1145 1 9.0098 12.3404 14.2984
3616 1 10.7524 12.4044 12.629
3615 1 9.07254 14.1705 12.5686
1147 2 12.4908 12.4059 14.2067
1146 3 14.2764 14.154 14.4037
2622 1 12.4682 14.2594 12.7336
3617 2 14.4181 12.5173 12.7443
1149 1 16.1924 12.5176 14.2057
1622 1 17.959 12.5155 12.6482
3146 1 17.8026 14.3361 14.3386
3618 2 16.2995 14.3986 12.5545
52 2 0.109255 16.0498 12.7374
518 3 0.0866532 17.8389 14.4342
1150 3 1.78946 16.1217 14.332
2623 3 1.80752 17.8016 12.6304
53 1 3.72955 15.9371 12.6448
618 3 7.30142 16.0803 12.3672
1151 3 3.64945 17.6552 14.331
1642 1 5.63186 16.0839 14.2426
2142 2 7.34933 17.8208 14.2999
2624 2 5.3208 18.0235 12.4949
54 3 10.8552 15.9753 12.4194
1643 2 9.17021 16.0221 14.2293
2649 1 10.7507 17.9382 14.2268
3619 2 9.07256 17.9123 12.581
55 3 12.5678 17.8178 12.7415
620 1 14.4481 16.1285 12.5978
1646 3 12.4317 15.9951 14.3618
1644 2 14.4097 17.7858 14.2299
56 3 16.064 17.9512 12.4316
1647 2 16.0488 15.9467 14.2573
2627 3 17.8797 16.2568 12.5053
3644 2 17.585 17.9896 14.3384
57 3 2.02672 0.08476 16.2464
621 3 0.0817662 1.76682 16.1118
1128 2 0.177207 0.0500131 17.9336
2122 3 1.84393 1.83994 17.9008
58 2 5.42534 0.0808149 16.0572
1132 1 7.06604 0.0912853 17.8938
1131 2 7.02502 1.9636 16.0897
1130 2 3.67695 -0.027247 17.8552
1129 3 3.55076 2.05292 16.1339
2630 1 5.19287 2.04211 17.8307
1133 2 10.6191 1.83098 16.2107
1626 1 10.5233 0.175225 17.8519
2631 1 8.84187 2.10753 17.9187
3621 1 8.79488 0.210074 16.0811
59 3 12.3214 0.110167 16.1195
1134 1 14.241 1.65537 15.9897
2124 3 14.3556 -0.0233435 17.8617
3130 1 12.2686 1.82004 17.9642
502 2 16.1315 -0.00741461 15.9793
3133 1 16.0426 1.76468 17.7475
3623 1 17.8909 0.0301694 17.9406
3622 2 17.7412 1.73163 16.1871
503 2 1.74631 3.76463 16.0153
504 1 1.74367 7.40693 16.0683
1628 2 0.077667 5.58408 16.1032
2125 1 0.0782338 3.80834 17.8057
3134 2 0.127353 7.23257 17.8838
3625 3 1.81869 5.5657 17.9061
61 1 5.3205 3.75505 16.0392
505 2 3.53414 7.25393 17.7555
1135 3 7.077 7.19511 17.7436
1631 3 5.23414 7.13159 16.0371
1630 2 3.51102 5.42553 15.9245
1629 3 7.0845 5.48537 15.9992
2127 3 3.46109 3.79599 17.8307
3135 1 7.10615 3.81131 17.99
3627 2 5.18994 5.39229 17.7303
62 1 8.78957 5.41494 17.6943
63 3 10.833 7.17016 17.8264
506 3 8.70552 3.66671 16.0737
1632 2 10.754 5.34621 16.0683
2129 3 8.89995 7.16129 15.9853
2635 2 10.5994 3.73932 17.6874
64 2 12.3637 5.34258 17.7709
1137 1 14.3213 7.00179 17.8305
1136 3 12.6051 3.5289 16.0214
2131 3 14.341 5.29428 16.1164
2130 1 12.4758 6.99685 15.995
3139 3 14.2725 3.5373 17.7968
66 3 18.0058 5.41198 16.0277
507 2 16.1634 5.23471 17.7971
1140 2 18.0042 3.68769 17.8622
1139 1 16.0968 3.48057 16.1023
1634 2 17.8152 7.14026 17.8503
1633 2 16.1772 7.07406 16.0944
508 3 1.73858 9.05598 17.9233
1141 1 1.72208 10.6992 16.1375
2132 1 -0.0249011 8.97649 16.0383
3632 1 -0.0777674 10.8229 17.8037
68 3 3.54548 10.732 17.9326
509 2 7.26052 10.8819 17.8627
1142 2 5.49213 9.29241 17.7934
1635 1 5.16141 10.8791 16.1021
2134 2 7.19785 9.02332 16.0688
2133 1 3.59088 9.08095 16.0558
1143 3 8.92918 8.98259 17.9386
1636 3 8.85927 10.8957 16.0307
2637 3 10.5825 8.96098 15.9932
3634 1 10.8472 10.6182 17.9969
1144 2 12.5369 10.7178 16.1918
1638 1 12.6733 8.82439 17.7669
1637 3 14.3329 10.6919 17.8508
2638 2 14.1703 9.03156 16.126
512 1 18.0695 8.95991 16.1025
1640 1 16.0261 8.9175 17.8997
2135 2 16.1874 10.5987 16.2003
2639 2 17.8843 10.669 17.9651
2137 1 -0.0191507 14.3022 17.9853
2136 1 1.7973 12.7692 17.8718
2641 2 1.64326 14.4584 16.0569
2640 2 0.178261 12.5655 15.9821
2140 2 7.34375 14.3504 17.9665
2139 2 3.66538 14.246 17.8272
2138 3 5.41554 12.5935 17.8365
2643 1 5.35771 14.3449 16.0326
2642 2 3.56298 12.4312 16.0532
3142 2 7.04389 12.6053 15.9866
2141 3 8.96845 14.1987 16.108
2645 3 9.14308 12.682 17.9241
2644 2 10.877 14.2625 17.865
3143 2 10.7818 12.4829 16.1465
2647 3 12.7002 14.2868 16.1839
2646 2 12.6103 12.5103 17.931
3145 1 14.4036 14.4253 17.8724
3144 2 14.3926 12.5209 16.148
517 1 17.7625 14.3185 17.6341
1148 2 17.7314 12.4076 16.1592
3148 3 16.0564 14.2271 16.0353
3147 1 16.1739 12.4986 17.7926
2648 1 1.93713 17.8292 16.3843
3150 3 1.96976 16.005 17.9782
3149 2 0.0266088 16.1024 16.0846
3636 3 -0.0357223 17.7876 17.9505
1641 3 3.75443 17.7483 17.9059
2143 1 7.22136 18.1268 17.7598
3640 1 5.50465 17.6219 16.0812
3639 1 7.25682 16.0153 16.0827
3638 2 5.66829 15.878 17.8506
3637 2 3.57978 15.9021 16.3123
74 1 9.0505 17.7794 15.8949
519 1 10.841 18.0057 17.811
3642 3 8.96047 16.1961 17.8024
3641 3 10.7837 16.116 15.9847
75 3 12.6105 16.0841 17.7658
76 1 12.8291 17.8301 16.1292
1645 1 14.4498 17.9108 17.768
3643 2 14.3076 16.0886 15.9721
77 2 16.117 15.9878 17.7015
2144 3 18.0257 16.0147 15.9392
2650 3 17.8753 17.7797 17.8397
3645 1 16.1617 17.7803 15.9242
520 1 0.197037 0.147287 21.4611
78 2 -0.0690536 1.94355 19.4921
2145 3 1.93005 1.97361 21.3955
3151 3 1.79357 0.146079 19.936
521 2 3.57544 0.0714936 21.5208
80 3 3.64106 1.84278 19.5479
79 3 7.23243 2.02231 19.7661
2147 1 5.4708 1.92236 21.4626
2146 3 7.19939 0.136343 21.5165
2651 3 5.47094 0.0748962 19.6621
81 1 10.6335 1.90546 19.4991
1648 1 10.648 0.0516358 21.3617
2652 2 9.11562 1.93709 21.4132
3152 2 8.76789 0.192135 19.6285
522 3 14.2382 1.73468 19.512
1649 3 14.3566 0.14214 21.3404
2653 3 12.4495 1.65261 21.1855
3646 2 12.5679 -0.209829 19.5034
82 3 17.8493 0.135335 21.4456
2654 3 17.9372 1.82414 19.554
3153 1 16.1361 2.10218 21.4361
3647 3 16.035 0.261333 19.5779
523 3 0.203445 5.46613 19.727
84 3 1.99609 7.1752 19.6665
83 1 0.155375 7.33845 21.6124
1650 3 0.0172688 3.71707 21.3098
3155 1 1.95192 5.40802 21.3901
3154 1 1.90605 3.59346 19.605
524 1 3.63175 5.40998 19.5281
525 3 7.11828 5.60529 19.5675
526 3 3.85525 7.17142 21.3082
1153 3 7.30945 7.22851 21.5652
1152 3 5.50808 7.32898 19.6967
2655 1 3.82554 3.73034 21.4772
3156 1 7.103 3.72277 21.4125
3649 2 5.29611 3.76256 19.5535
3648 2 5.62114 5.41375 21.3952
86 1 10.6629 7.23248 21.3773
85 1 9.11164 3.75939 19.7486
1155 1 10.7028 5.38116 19.6246
1154 3 8.80998 7.10813 19.7409
2656 3 10.9114 3.64044 21.4169
3650 2 8.86935 5.4079 21.4412
527 3 12.57 7.04638 19.3694
88 3 12.4269 5.41843 21.4332
87 3 12.6186 3.71647 19.7037
1156 1 14.6008 5.33105 19.539
2148 3 14.1569 7.16907 21.1157
2657 1 14.3891 3.57063 21.4843
528 2 17.7747 3.74445 21.3229
89 1 15.942 5.56402 21.4574
1157 3 16.1664 7.06059 19.5934
3158 2 17.8502 5.32747 19.6704
3157 2 17.9634 6.96969 21.437
3651 1 15.9805 3.45347 19.3831
529 2 1.94757 8.91326 21.3176
530 3 1.75147 10.9008 19.6618
1158 3 -0.0296922 8.97671 19.7228
3652 3 -0.0211483 10.7463 21.4756
531 2 5.39055 9.16083 21.3068
532 2 5.45391 10.7837 19.5301
533 3 7.08405 10.8965 21.4042
1159 3 3.8454 9.01101 19.6482
1651 2 7.24894 8.92141 19.6773
3653 3 3.70484 10.8738 21.3849
90 3 9.0743 10.7783 19.6704
1161 1 8.87352 9.03642 21.3344
1160 3 10.8398 10.5974 21.2992
1652 1 10.6743 8.82252 19.6873
534 1 12.6693 10.7389 19.663
1162 3 12.5136 8.85594 21.311
1654 3 14.3936 10.7356 21.3142
1653 2 14.4988 8.89758 19.505
1656 1 16.1627 10.7074 19.6492
1655 3 16.2489 8.66014 21.389
3159 3 18.0014 10.6193 21.3812
3654 3 17.9273 8.64183 19.4636
1660 3 0.211735 14.2571 21.5384
1659 2 1.92899 14.3221 19.8056
1658 2 2.10044 12.5232 21.4406
1657 3 -0.0899429 12.5879 19.631
1163 1 5.65223 14.3315 19.5912
1661 2 3.91668 14.2842 21.3132
2151 3 7.07437 12.5586 19.6267
2150 3 5.39257 12.6264 21.511
2149 1 3.61852 12.5624 19.5798
3160 2 7.33926 14.2896 21.4576
1662 3 9.0361 14.3983 19.5643
2153 3 9.09767 12.6023 21.3277
2152 1 11.002 12.5684 19.4662
2658 1 10.8274 14.4098 21.4212
2155 3 14.4167 12.6111 19.5936
2154 3 12.5678 14.3697 19.7017
2660 1 14.2569 14.3123 21.3439
2659 3 12.5887 12.5048 21.496
535 1 17.9216 12.6788 19.7317
1164 2 17.8589 14.4374 21.2878
2156 2 16.0852 14.2531 19.6309
2661 2 16.0964 12.5968 21.4139
1165 1 0.0642327 17.8959 21.4111
2157 2 1.74643 17.8348 19.4164
2662 1 0.157439 16.2079 19.783
3161 1 1.95789 16.1152 21.4746
1664 3 7.22486 18.036 21.6203
1663 3 3.76992 17.9462 21.4627
2664 1 3.59779 16.038 19.7283
2663 3 7.25421 16.1606 19.7545
3163 3 5.55446 16.1046 21.4704
3162 2 5.46695 17.9251 19.5405
536 1 10.8299 17.9207 21.3571
2665 3 10.7674 15.936 19.5344
3164 3 9.15007 17.8466 19.5843
3655 2 9.03169 16.1498 21.602
2666 3 12.4677 17.7205 19.5023
3166 1 14.2886 16.0492 19.6891
3165 1 14.2856 17.9654 21.232
3656 1 12.5028 16.0545 21.4781
92 1 16.1513 16.064 21.4557
91 3 17.8029 17.9591 21.345
1166 2 17.6472 16.0884 19.5487
3167 2 16.0976 17.7965 19.5954
93 3 1.9286 1.74254 24.8878
1665 1 1.83793 -0.0177496 23.1732
2667 2 0.213901 0.0683341 25.0703
3168 3 0.240677 2.06524 23.1223
2158 1 5.31961 0.375861 22.9394
2670 1 3.66378 0.0939258 25.0171
3170 2 7.17654 2.01823 23.2949
3169 2 3.64862 1.87451 23.1764
3659 2 6.88301 0.202662 24.9637
3658 3 5.48548 2.00324 25.1483
537 2 8.993 1.90428 25.0946
2671 2 8.84399 0.156658 23.3969
3171 2 10.814 0.0743569 25.0512
3660 2 10.5313 1.82283 23.0966
2673 1 12.5034 0.197979 23.1012
3663 3 14.3813 1.84868 23.0904
3662 1 14.3999 0.175156 24.8822
3661 2 12.514 1.70207 24.7332
539 1 16.0169 1.79417 25.0646
1167 2 17.7719 0.0991607 24.8038
1668 2 17.8005 1.83089 23.358
2160 2 15.9602 0.118363 23.0756
99 1 1.78315 5.50292 24.7614
98 2 1.98758 7.19861 23.2332
97 3 0.122919 7.32946 24.9101
96 2 -0.0363245 5.50253 22.9057
3173 2 1.94635 3.79959 23.0695
3172 3 0.327921 3.66848 25.0521
540 3 3.62707 7.21196 24.8928
541 3 5.41644 7.31351 23.2163
542 1 7.39866 5.46569 23.3492
543 1 5.5999 5.6838 24.9635
101 2 7.20108 7.32847 25.1094
100 3 3.87332 5.45573 23.0935
2675 1 7.33039 3.59701 25.0733
3175 1 3.62348 3.78465 24.9156
3665 3 5.52811 3.78513 23.0672
546 2 8.98467 7.29272 23.251
547 3 9.15879 5.41438 24.9199
102 1 10.7108 5.54299 23.1256
1170 2 10.8433 7.13535 24.7812
3177 3 10.903 3.49257 24.8866
3666 2 9.17218 3.6522 23.134
548 3 14.3075 5.46037 23.192
549 1 12.4889 5.36842 24.976
105 2 14.1152 3.63924 24.9793
1670 2 12.7583 7.31817 23.0863
3179 3 12.4556 3.65771 23.247
3667 3 14.2738 6.9372 24.9468
1172 3 16.1925 5.26333 24.9269
1672 3 17.8122 3.61585 25.1197
1671 3 16.2837 7.10111 23.2082
2678 1 17.9406 7.3172 25.0051
2677 3 17.8587 5.1821 23.258
3668 2 16.1171 3.60083 23.3571
550 3 0.219182 8.94777 23.3229
106 2 2.05919 10.7293 23.1551
1175 3 1.92464 8.89463 24.9738
3669 3 0.253447 10.7351 24.9983
108 3 5.45126 10.8999 23.2385
1180 3 7.39929 10.7459 24.9584
1178 2 7.0749 9.1794 23.2428
1177 1 3.81054 9.02366 23.1999
1176 3 5.5338 9.16013 25.014
3670 3 3.71903 10.8739 24.9608
551 2 10.8905 10.6686 24.8785
552 3 9.10382 10.7578 23.0577
1181 1 9.1146 8.92646 24.9649
1674 3 10.8864 8.91361 23.2236
1182 1 12.8907 10.733 23.0636
1676 1 12.6639 8.83332 25.0262
1675 2 14.345 9.03693 23.1008
2163 3 14.3974 10.8318 24.963
1183 2 16.0372 8.96131 24.8576
1677 3 16.2425 10.5892 22.8702
2165 2 17.6917 10.6423 24.975
3671 2 17.8347 8.91959 23.3663
555 1 0.356191 14.2967 24.9206
1184 2 2.05518 14.3322 23.1758
1678 2 1.93888 12.52 25.0526
2166 3 0.176192 12.5484 23.0278
113 3 7.4401 14.3132 24.8588
1185 3 5.47675 12.6646 25.0233
2170 1 5.55287 14.4462 23.0985
2169 3 3.81574 12.723 23.3086
2168 3 3.87584 14.4252 24.9019
2167 2 7.20738 12.6618 23.106
1680 2 10.8855 14.3587 25.0226
2171 3 10.9091 12.6071 23.0674
2682 3 9.08296 14.3388 23.1343
2681 1 9.13431 12.5687 24.9114
114 3 14.3548 14.5474 25.0052
1681 1 12.3794 12.425 24.9073
2684 2 14.3832 12.5577 23.2897
2683 1 12.5081 14.5295 23.1881
557 3 17.9169 12.599 23.165
2173 2 16.2104 14.3369 23.1545
2685 3 16.1464 12.6261 24.8447
3183 2 17.8611 14.3453 24.8635
1684 3 2.07969 16.1727 24.8427
1683 2 1.81825 17.8142 23.0084
2688 1 0.0918741 15.9672 23.132
2687 1 0.0453068 17.9549 24.7941
2175 3 7.19531 18.0023 24.8135
2174 2 5.40129 17.9867 23.2179
2689 1 3.78347 17.9776 24.9742
3187 2 5.47377 16.2731 24.984
3186 1 7.46144 16.1346 23.2909
3185 2 3.719 16.1443 23.0698
1687 2 8.94898 17.9484 23.2632
1686 3 8.9675 16.181 24.9577
2177 2 10.8559 17.9813 24.8434
3675 2 10.7514 16.1676 23.4086
2178 3 14.3877 17.9503 25.006
2690 3 12.5638 17.8333 23.1585
3188 3 12.672 16.1871 24.9801
3676 3 14.2756 16.1445 23.1249
1187 1 18.0788 16.196 23.2391
1186 2 17.837 17.9854 24.8532
1689 3 16.174 16.1248 24.7915
3189 1 16.0884 17.9786 23.1226
1188 3 0.147062 0.270211 28.6508
2180 2 1.95268 1.8738 28.6635
2668 1 2.02426 0.179705 26.7127
3657 3 0.257856 1.8477 26.7377
559 2 7.26608 0.17724 28.6834
94 2 7.14921 2.05318 26.7674
1189 2 3.59708 -0.0169872 28.3911
1666 2 5.28505 0.190871 26.8309
2181 1 5.50117 1.92292 28.3925
2669 1 3.56517 1.87669 26.6833
560 2 10.8935 0.0862304 28.5927
95 2 9.00302 -0.0685131 26.7459
2182 2 9.04009 1.86032 28.5218
2672 3 10.7257 1.73043 26.7251
538 2 14.19 1.92207 26.7545
1667 3 12.6205 0.142093 26.7948
2184 2 12.6214 1.80483 28.5466
2183 2 14.4217 0.0615041 28.4998
2159 3 17.8451 1.82522 26.9535
3193 2 16.1498 1.60306 28.6318
3679 2 18.1174 0.0437611 28.6973
3664 1 16.1046 0.0699098 26.8231
1168 3 1.97711 3.65556 26.9096
1669 1 1.88642 7.16718 26.7688
2186 3 0.0135174 6.99528 28.4797
2185 1 0.0631083 3.68757 28.6232
2674 3 0.059661 5.46639 26.6151
3194 2 1.82454 5.19852 28.4746
544 3 3.57821 5.43811 26.7782
563 1 7.38452 7.13095 28.5232
1691 1 7.31599 3.71331 28.4356
1690 2 3.65349 3.61951 28.506
2676 1 7.18882 5.61763 26.8351
3196 2 3.69215 7.12823 28.688
3195 2 5.33823 5.41032 28.4632
3176 3 5.39259 3.71179 26.7984
3174 3 5.38998 7.36153 26.7879
545 3 10.991 5.41268 26.7037
1171 1 9.01743 3.63027 26.797
1169 1 9.26317 7.10554 26.579
2694 3 10.7838 3.52643 28.4898
3197 1 9.11197 5.57766 28.3569
3681 1 10.9559 7.15158 28.5079
104 3 12.3784 3.52873 26.6949
103 1 14.3828 5.44389 26.6631
2695 1 14.2805 3.67097 28.5115
3178 2 12.6237 7.03768 26.825
3684 1 14.3436 6.94932 28.4089
3683 1 12.5534 5.28933 28.5086
622 2 17.9259 3.73461 28.6263
1004 1 17.8299 7.15816 28.5532
1174 2 16.133 7.16192 26.7465
1173 1 17.8059 5.4561 26.619
3180 3 16.0664 3.55396 26.7012
3685 3 16.2278 5.48056 28.5146
1673 3 0.174233 8.93374 26.8237
2161 2 2.00563 10.874 26.7687
2696 3 0.148542 10.5541 28.5635
3687 3 1.77756 8.87848 28.603