ITEM: TIMESTEP
5000
ITEM: NUMBER OF ATOMS
4000
ITEM: BOX BOUNDS pp pp pp
1.4650217755210093e-01 3.5884427822448295e+01
1.4650217755210093e-01 3.5884427822448295e+01
1.4650217755210093e-01 3.5884427822448295e+01
ITEM: ATOMS id type x y z
3577 1 9.05005 0.231362 5.63492
3566 2 1.78333 3.83667 1.97194
1126 2 16.4215 16.2566 14.13
1 1 3.5305 1.86956 1.92357
2065 3 7.23205 1.8833 1.97023
829 2 18.1937 10.748 18.3111
3065 3 9.19246 1.94449 3.77388
3567 1 9.20368 3.7316 2.21781
588 1 -0.0357404 -0.289677 7.65351
2 1 11.1149 1.84895 1.90291
606 1 0.144738 10.8561 10.6245
3703 2 10.7918 17.9149 7.42961
2907 2 18.2298 18.079 10.8938
2066 2 14.3754 1.78024 1.88828
1625 2 16.3511 14.6067 16.3568
569 2 3.33853 3.93141 0.177622
1568 2 1.66692 7.56457 1.99756
1720 3 5.4334 17.963 12.5385
1069 1 1.92834 5.49071 3.73163
290 1 18.0759 9.37873 12.92
692 3 10.7491 17.9952 18.0048
1576 2 5.76991 0.35321 5.67731
1566 1 5.45586 3.57834 2.08415
2067 2 3.46402 5.58986 1.91566
3569 3 5.5288 7.26424 2.02941
3579 1 16.4103 0.221782 5.6759
4 3 7.3137 5.74378 2.24213
1569 3 9.19123 7.32428 2.04652
2068 2 10.7426 5.44442 2.28673
1071 1 8.98753 5.63604 3.97021
13 3 0.431168 1.68604 5.65734
1567 2 12.7377 3.74987 2.04286
3071 2 12.6755 5.49287 3.82329
3570 3 12.7402 7.2393 2.20387
572 1 14.4551 3.28272 3.72608
3568 1 16.311 3.50461 1.81412
5 3 14.4337 5.41123 1.86691
1570 1 16.1473 7.03891 1.91551
1597 1 16.5814 -0.326889 9.0697
3571 2 1.90856 10.6679 1.77005
3073 3 1.92098 9.30846 3.84915
625 1 14.3882 14.4735 14.4963
2580 2 3.77194 10.742 3.57105
6 2 3.8492 8.94426 2.05082
1571 2 5.55023 10.8914 1.76001
2070 2 7.25879 8.83967 2.3028
3075 3 9.19749 9.04604 3.91281
7 3 11.1203 9.02973 1.89022
1572 2 12.6946 10.6626 1.75269
2578 2 14.4788 7.10262 3.8696
1077 1 12.8112 8.96716 3.82836
2071 1 14.6245 9.00018 1.92904
3625 1 12.5711 14.4321 16.455
598 3 0.0589673 3.4359 10.8466
3722 3 9.05958 18.0165 12.7634
794 3 18.2813 10.8115 11.0261
1079 2 2.07334 12.2793 3.60347
2126 1 14.5526 16.3218 16.034
584 2 3.82805 14.4939 3.38968
2589 1 7.56069 0.199714 7.44423
2072 2 3.7132 12.5555 1.68541
3079 1 5.43258 12.6368 3.4717
3574 1 5.86739 14.4119 1.8079
9 2 7.51281 12.541 1.95718
3572 2 9.02852 10.3739 1.97954
1574 2 9.19591 14.1969 1.77439
1081 2 9.07595 12.5319 3.48004
3565 3 12.5518 0.0241065 2.0781
1722 3 16.1776 18.0143 9.06889
2073 3 10.9298 12.4603 1.78277
3081 3 12.4916 12.6213 3.51713
586 1 10.8731 14.3943 3.57869
2582 3 10.8008 10.7154 3.55298
660 2 10.7524 17.8081 10.9032
3573 1 16.2797 10.6554 2.01415
10 1 14.4915 12.7499 1.84312
1575 3 16.1625 14.4628 2.04071
1083 3 15.9797 12.5567 3.76753
3595 2 1.93044 0.0203948 12.7008
58 1 0.0608332 12.6619 16.5627
1573 2 2.18873 14.2688 1.83962
3083 3 1.86465 16.2502 3.38472
11 1 3.93424 16.284 1.73661
2824 1 18.0127 7.10249 3.97743
1085 2 5.51542 16.3272 3.63912
2596 3 5.35862 0.246937 9.25941
901 3 17.8975 17.9433 7.33729
595 3 3.77185 -0.0432617 10.9402
2075 2 7.34759 16.3286 1.7928
3085 3 9.17754 15.936 3.84304
12 3 10.6544 16.0597 1.87396
658 1 3.73916 17.9975 10.7605
2017 2 17.7097 5.19327 5.74302
3575 2 12.4086 14.3884 2.01531
1087 1 12.6376 16.185 3.94972
2088 2 0.0901453 12.4374 5.4316
3587 1 0.00719057 10.6557 7.38111
2614 1 3.61284 0.013909 14.58
2076 2 14.1922 16.08 2.02625
3087 2 16.1327 16.2596 3.72494
62 2 10.7551 16.2077 16.4341
2860 2 17.9244 14.3484 10.9692
308 3 17.9066 12.7859 16.586
3063 1 1.99881 1.87973 3.88349
53 1 0.0233084 5.41969 16.4523
2721 3 5.58646 17.9054 9.12029
297 2 18.1611 16.2101 12.5103
1721 3 12.7126 17.8386 12.6029
2077 2 3.70933 1.93947 5.55405
1065 1 5.52044 2.08869 3.90114
3580 2 5.6459 3.75316 5.30894
2570 3 3.78639 3.54374 3.54307
2566 1 7.25042 0.111306 3.84278
14 2 7.1958 1.98944 5.65867
2079 1 10.9831 2.068 5.62566
1067 2 12.6056 1.81899 3.69048
3582 2 12.8882 3.64709 5.48668
590 1 10.7489 3.67901 7.51067
15 1 12.8274 1.96258 7.36869
3067 2 16.3149 1.8804 3.68245
2740 2 10.7825 18.0081 14.4962
16 3 14.4336 1.62277 5.65617
1579 3 1.77467 3.82778 5.56177
3583 2 1.61384 7.36733 5.36966
570 1 7.44354 3.73563 3.54692
17 3 3.48454 5.50638 5.83505
3069 2 5.59254 5.71791 3.92562
3584 2 3.44754 7.21981 7.2809
2576 2 7.22953 7.44305 4.06343
1581 3 9.01773 3.71345 5.70913
2082 1 7.47198 5.58971 5.76943
3585 3 9.23443 7.26328 5.69476
3581 1 7.4876 3.98524 7.60722
18 2 9.27388 5.58989 7.46973
576 1 10.9381 7.17552 4.20268
2572 1 10.8753 3.86314 3.9883
19 2 11.0103 5.3767 5.68432
1586 1 10.9589 7.25802 7.42435
2632 3 3.77294 3.76814 18.1487
1582 2 16.0253 3.38122 5.36362
2083 2 14.4402 5.51362 5.52618
1073 3 16.1134 5.43185 3.7138
2085 2 3.84491 8.82986 5.4543
592 1 3.81104 10.831 7.28795
3090 3 1.83189 8.97052 7.30658
574 1 3.65752 7.24536 3.7608
1584 3 5.5582 7.14184 5.59395
1075 3 5.48637 8.98908 3.69752
580 3 7.25811 10.8372 3.88447
22 1 7.43434 9.03502 5.52357
1588 2 9.18109 10.7864 5.49013
1092 1 8.80223 9.17133 7.23526
1585 3 12.8157 7.08681 5.70437
2086 3 10.9729 9.11959 5.40414
3589 2 12.5475 11.0437 5.29367
2087 1 12.7168 9.27178 7.16704
2043 1 17.9497 12.6909 12.7316
61 1 3.65815 16.1961 16.028
582 2 14.3504 10.6914 3.63236
3586 2 16.3036 7.1657 5.60881
23 1 14.5445 8.961 5.33376
3077 3 16.285 8.98852 3.91921
3091 3 16.0147 9.15691 7.31489
1590 2 15.9032 11.0635 5.56334
2125 1 7.05223 16.238 16.29
1587 3 2.11665 10.6261 5.63162
1592 3 3.45992 14.434 7.16843
3591 3 1.8398 14.4086 5.34904
24 1 1.77647 12.6002 6.94195
25 3 3.94551 12.4718 5.40079
3588 3 5.7172 10.8028 5.50943
1589 1 7.18463 11.1083 7.16523
2089 3 7.05588 12.9737 5.50891
1591 1 5.13726 14.4607 5.44679
1093 3 5.36627 12.5788 7.27559
2594 1 7.26028 14.3768 7.49204
2090 1 8.72833 12.608 7.40449
26 2 10.7539 12.311 5.56841
2586 2 7.22967 14.4686 3.67691
2593 3 10.9002 10.788 7.3765
2588 1 14.527 14.5771 3.65818
1593 1 12.5779 14.3126 5.36617
2095 1 0.0283604 2.00192 9.05352
2074 2 0.274081 16.2601 1.81459
2091 1 14.4008 12.7476 5.58533
3594 3 16.1499 14.4298 5.67926
3702 2 9.24763 17.8517 5.66269
2621 3 0.116027 11.0626 14.72
1094 2 1.92362 16.1318 7.14472
1563 1 2.16743 0.0322217 2.07062
1293 2 17.84 12.6858 9.14119
2092 1 3.69356 16.4238 5.39545
29 1 7.36671 16.0655 5.47823
2093 2 5.32987 16.2366 7.22019
2061 1 17.8207 16.4214 16.1542
2739 1 3.6796 17.8903 14.1701
3592 2 9.20351 14.316 5.43541
3593 1 10.893 14.0485 7.15837
3093 1 9.22269 15.9716 7.39422
2094 1 10.9939 16.1439 5.60148
2751 2 0.266458 18.1942 17.9959
3615 2 12.3926 0.356223 16.2738
1738 1 2.06656 17.9509 16.0198
31 3 14.2802 16.3514 5.67628
1089 3 1.90849 1.98004 7.62606
2599 2 2.00877 3.80381 9.26823
3094 1 1.75231 1.84 10.9471
3095 2 3.61133 2.11223 9.41381
3740 3 12.5233 17.855 16.1984
766 3 17.8747 10.8337 3.7642
2078 3 5.55385 2.4142 7.26306
2600 3 3.61925 3.83844 11.2786
3597 3 9.34615 0.113996 12.6795
3088 2 9.0154 1.96141 7.5267
33 3 7.13717 1.83171 9.21954
3096 2 9.03195 1.832 10.8668
600 3 7.3 3.82132 10.9898
756 2 17.9951 3.64908 3.66152
690 1 3.73456 18.2604 17.9551
1097 1 10.9335 1.9238 9.11551
1600 3 12.5921 3.78586 9.21015
2098 1 14.4189 1.82253 9.21785
1090 1 16.0759 2.05619 7.39175
2602 2 16.3668 3.59489 9.2588
3097 1 16.2957 1.81172 11.0586
2590 1 3.68018 3.76697 7.58042
2081 3 1.51556 5.5091 7.34866
36 3 3.64192 5.67254 8.99497
3089 3 5.52269 5.40572 7.51929
3599 2 5.53122 3.74006 9.13907
602 2 5.28992 7.4864 9.06399
599 2 8.93506 3.5568 9.21921
1100 2 7.26316 5.62457 9.14783
1603 1 9.08132 7.35083 9.25604
1091 3 12.8362 5.56114 7.38836
2101 1 10.9634 5.69409 9.21775
2605 1 12.759 7.12018 9.56182
2592 2 14.5066 7.3921 7.60802
2084 2 16.2194 5.35278 7.45596
1583 1 14.3955 3.82416 7.45941
3101 2 14.4939 5.46761 9.16651
1102 3 16.4915 5.63525 11.0095
3602 1 1.73878 7.09586 9.27772
1103 3 3.45513 9.21592 8.95185
3102 2 1.80489 9.11598 10.7434
605 1 1.85415 10.902 8.90074
21 2 5.5591 9.10331 7.30565
2104 3 7.24389 8.98869 9.21906
607 3 7.23975 10.9354 10.762
1606 3 5.43224 10.7466 8.98525
1104 1 5.38025 9.00841 10.9232
591 2 7.28819 7.50621 7.4205
2608 3 9.02204 10.9514 9.16232
3103 1 8.93326 8.92549 10.8916
3104 1 10.6899 9.27049 9.27379
3608 3 12.7202 10.7906 9.27569
42 3 14.6763 8.98522 9.43616
3605 1 16.3028 7.19522 9.3924
608 1 16.2974 10.741 9.27538
1124 1 1.90924 16.0291 14.4965
2107 2 3.72465 12.6205 8.88316
1609 1 1.80131 14.491 8.89021
1623 2 2.02684 14.4012 16.4099
610 3 3.58408 14.4862 10.8771
3107 3 7.04571 12.6317 9.19222
2611 3 5.38617 14.6045 9.22604
45 1 10.7772 12.6065 9.31697
3611 3 9.14421 14.2287 9.32536
2609 3 10.944 10.8278 10.9453
3092 1 12.59 12.774 7.40374
611 1 12.4364 14.2933 9.40993
3108 1 12.7739 12.6184 11.0011
612 2 10.6885 14.5713 11.0946
3590 3 14.4104 10.9656 7.39064
594 2 14.4565 14.2906 7.46016
1109 3 14.5781 12.5343 9.06004
27 3 16.2305 12.4305 7.43215
1110 2 16.1569 12.3853 10.8743
2613 2 14.5206 14.3481 10.9238
1612 3 16.2603 14.5234 9.09877
3066 2 12.5713 1.76385 0.190055
3133 1 12.6675 5.62793 17.9489
3110 3 3.401 16.2448 9.04694
3623 3 15.9338 10.8497 16.4008
48 2 7.27808 16.1824 9.184
629 3 10.8807 17.8903 3.77959
2693 3 14.3855 17.9012 3.91202
253 2 17.9316 5.49609 1.97882
30 1 12.656 15.9424 7.28852
1112 1 10.8399 16.0202 9.10331
2113 3 14.3851 16.1156 9.17189
1113 2 12.5538 16.1715 11.0014
2623 1 14.6298 10.8756 14.3718
1095 2 16.088 16.2138 7.41296
1598 1 1.78075 3.83338 12.8326
1114 3 1.85158 2.02429 14.4539
1128 1 5.59795 1.84 18.1193
1096 2 5.60582 2.04354 11.1445
2096 1 3.64406 1.8185 12.7076
616 2 3.51701 3.85483 14.3501
34 1 7.2603 1.79195 12.5016
2597 1 7.14043 0.188785 11.0135
2097 3 11.0883 1.95412 12.7428
1115 3 9.06726 1.78485 14.2688
614 1 7.1911 -0.0209045 14.3418
1098 1 12.8525 2.04125 11.0114
3114 2 12.7092 2.2216 14.4744
1701 1 5.58822 17.9103 5.68328
3131 3 5.65303 5.40559 17.9282
35 2 14.6523 1.81661 12.5487
1601 2 16.1378 3.77331 12.7322
2618 3 14.5388 3.61091 14.3677
1116 2 16.264 1.95157 14.3706
1099 2 1.82031 5.44724 11.1279
3603 1 2.07308 7.40759 12.6285
3115 2 2.00101 5.90341 14.3992
3099 3 5.47229 5.54367 10.7397
3600 2 5.58641 3.88119 13.01
37 1 3.72664 5.56464 12.9244
1602 1 5.46453 7.22435 12.7452
1117 2 5.54543 5.51628 14.6138
2601 2 11.0205 3.93504 10.877
2100 1 7.4434 5.67827 12.7455
1101 1 9.06783 5.4296 10.947
1599 3 9.14134 3.68193 12.6243
3116 2 8.94927 5.58879 14.5783
617 2 10.7269 3.66905 14.6055
3100 2 12.8717 5.57843 11.179
3601 3 12.6192 3.64249 12.6053
38 1 10.8163 5.57444 12.7774
2102 1 14.6243 5.5487 13.021
1622 1 12.7333 10.8194 16.0263
601 1 14.5407 3.73207 10.8118
3117 1 16.3724 5.52544 14.5478
60 1 14.4046 12.7142 16.4065
2123 1 10.5405 12.6374 16.316
2607 1 3.61931 10.968 10.7957
1605 3 1.82351 10.8814 12.7433
1119 3 2.03478 8.95671 14.5996
603 3 3.61457 7.4214 10.7802
2604 3 7.06747 7.21722 10.8534
2103 3 3.60898 9.09023 12.6027
3607 2 5.2698 11.0624 12.7169
2619 2 3.89323 7.36506 14.5293
3118 3 5.35027 9.18458 14.4723
604 1 10.9372 7.28737 11.1542
3604 2 8.93569 7.43853 12.3804
41 3 7.0067 9.05051 12.6733
619 2 7.33737 7.32222 14.4336
2622 3 7.19691 10.8453 14.449
1105 2 12.7416 9.02813 10.9402
1604 1 12.6548 7.14496 12.8979
2105 3 10.9019 9.13042 12.4856
2620 1 10.705 7.3984 14.5078
2606 3 14.4229 7.30592 11.1569
3105 1 16.2603 9.18288 11.1327
3606 3 16.2528 7.36304 12.9117
43 1 14.4964 8.98438 12.8631
1107 1 1.58945 12.6996 10.9043
3120 3 2.05194 12.3093 14.6357
3610 3 1.80003 14.3608 12.6754
624 2 7.25061 14.3596 14.6139
3106 1 5.35411 12.5314 10.9783
2612 1 6.93778 14.3193 10.99
44 2 3.53638 12.7636 12.5897
2108 3 7.16661 12.4429 12.5762
3121 1 9.19156 12.5522 14.5823
1607 3 9.13175 10.8961 12.626
1108 1 8.78835 12.7833 10.9724
46 3 10.8961 12.8241 12.83
3609 1 12.6786 11.2454 12.8103
622 2 10.8664 11.0567 14.3118
2109 3 14.6777 12.8238 12.6863
1123 1 12.4935 12.895 14.5275
609 2 14.3411 10.8748 11.2497
1608 3 16.2311 11.0215 12.6512
3122 2 16.2852 12.736 14.8909
2829 2 17.9406 10.9434 0.163336
3109 2 1.54736 16.3751 10.7344
2111 1 3.68903 15.9802 12.6527
1690 2 16.0343 17.829 2.03554
3614 1 5.45279 0.313695 16.3859
3123 2 5.45491 16.3086 14.4067
1610 1 5.57375 14.3348 12.7563
1111 2 5.32922 16.1612 11.0161
49 3 7.35289 16.0598 12.627
258 2 17.8938 12.7897 2.0325
1125 3 8.79957 16.2615 14.5623
2625 3 10.791 14.4376 14.6327
3612 3 8.89775 14.3313 12.9207
3111 1 8.9153 16.2579 10.6833
1611 1 12.5852 14.2798 12.5356
2112 1 10.7953 16.1518 12.8484
3124 3 12.6077 16.0384 14.4272
50 1 14.323 15.9907 12.7362
3112 3 16.1919 16.0382 11.0477
3613 3 16.4525 14.5556 12.7011
3578 1 10.881 0.374237 7.49797
3721 3 9.11662 18.026 8.97214
51 1 3.82331 1.96615 16.1894
3616 1 1.90512 3.62079 16.3424
278 2 17.6333 16.2642 5.53134
811 3 17.9508 14.512 14.5194
2876 2 17.92 18.0163 3.77398
3113 3 5.3922 1.95803 14.4709
2617 1 7.25119 3.61799 14.5353
1616 1 5.53449 3.6177 16.3108
3086 1 12.5919 16.208 0.247846
2115 3 7.62982 1.88513 16.4112
1122 2 5.41361 12.5313 14.4835
52 3 10.6285 1.9477 16.2756
1617 2 12.3969 3.62526 16.3796
578 1 0.167142 10.9481 3.8312
1703 1 12.5465 18.1397 5.59342
3622 2 9.04546 10.7775 16.2399
2624 2 3.56141 14.4121 14.3466
2116 3 14.4909 1.89839 16.1729
2640 1 14.5221 7.36657 17.5935
3739 2 5.49526 17.9653 16.1174
2011 3 18.0438 16.1286 1.9676
1624 1 8.88491 14.4948 16.222
2117 2 3.71318 5.64309 16.1537
3619 1 5.74968 7.29754 16.1836
2628 2 7.22206 0.0701744 18.0319
2025 3 17.8278 12.682 5.40268
1138 1 5.6901 9.15339 18.23
3617 3 9.07142 3.98484 16.4511
54 2 7.31171 5.61223 16.2447
1613 3 1.91015 0.422868 16.2727
615 2 14.2284 0.1234 14.5946
577 3 14.531 7.23852 0.0596722
2118 1 10.9365 5.53498 16.4266
1118 2 12.3866 5.16808 14.403
620 3 14.5032 7.18537 14.6781
2122 2 3.75893 12.7997 16.3953
1620 3 16.3034 7.40162 16.1916
3618 1 16.3605 3.55608 16.0407
55 3 14.3571 5.07942 16.0371
1614 2 9.15771 -0.0463611 16.1674
59 1 7.17127 12.5906 16.3965
56 2 3.84939 9.09577 16.3068
1618 2 1.95966 7.10824 16.1329
3621 3 1.90602 10.7767 16.4282
621 1 4.00112 11.1108 14.7504
1621 2 5.61885 10.7092 16.3114
2691 3 7.24748 17.9324 3.70144
1120 1 9.0084 9.30537 14.4075
2120 1 7.40195 9.09046 15.9514
1619 1 9.11443 7.32375 16.3138
2121 2 14.4422 8.99184 16.0753
3620 1 12.4238 7.32779 15.962
57 2 10.7612 9.13145 16.1398
3119 3 12.6855 9.26017 14.4133
1121 1 16.1652 9.00665 14.5117
3624 1 5.35385 14.5008 15.9271
596 2 12.7766 0.202392 9.03706
1577 1 3.5661 0.0914548 7.33737
2001 2 17.9606 1.6666 1.85716
2638 1 7.16783 7.26771 18.0711
2615 2 11.139 0.271744 14.3782
3704 1 16.0781 17.9783 5.65055
2577 3 10.9454 7.40551 0.227504
3689 2 5.63421 18.1743 1.86292
3837 3 18.0792 10.8401 7.35632
1134 2 8.92269 5.54255 18.2004
1719 3 1.78766 18.2184 9.00688
781 3 18.1813 14.5914 7.22951
659 3 12.565 17.7657 9.05309
512 1 4.17291 7.30846 17.8123
1136 3 16.1239 5.50982 17.7871
2575 3 3.70785 7.26042 -0.0765204
520 2 14.1145 10.9027 18.0153
2630 3 14.2974 0.215314 17.9658
1088 3 16.2166 16.3285 0.0880226
3149 3 15.9492 16.4578 17.906
2511 3 18.1395 7.6818 17.6498
1066 2 9.08919 1.89058 0.387675
3129 1 16.3018 1.92346 17.9741
3145 2 1.95555 16.3824 17.9392
3074 2 5.30376 9.06812 0.184897
2569 2 0.0772963 3.75777 0.191643
3082 3 16.0861 12.6728 0.136695
1144 2 8.89814 12.6752 18.2501
2644 1 10.8838 10.9284 17.9199
1080 2 5.4666 12.5326 -0.0347647
1086 1 9.03205 16.2918 0.169995
3068 3 1.61173 5.624 0.185367
2571 1 7.16293 4.04195 0.191276
2755 3 14.4181 18.1876 18.0238
2650 3 14.4418 14.6778 18.0134
575 1 7.09217 7.56219 0.255631
1140 2 12.6877 9.00601 17.7577
1070 2 5.38706 5.42862 0.454666
1148 3 5.31999 16.2663 18.1477
1072 3 12.5303 5.64458 0.251932
2626 1 0.129026 0.275088 18.2007
565 3 7.13985 0.116158 0.411447
1628 3 1.97353 3.87504 19.9094
1127 2 1.86036 2.08231 21.6601
2166 3 0.183118 8.92792 30.4583
2127 2 3.72685 1.85863 20.0503
3629 3 5.67192 3.68516 19.8365
64 2 7.42847 1.80734 19.6871
2128 3 10.9761 2.06211 19.852
2353 2 17.748 8.96213 30.6062
1129 2 8.85808 1.86525 21.8346
65 1 14.552 1.94924 19.5793
355 1 17.8834 12.8868 30.4077
535 1 14.5758 0.311541 28.836
3128 2 12.6501 1.92958 21.4123
68 1 0.0315851 9.11174 19.9394
1131 3 16.2724 2.12454 21.6593
1630 1 16.467 3.67978 19.724
2635 2 14.4866 3.70835 21.465
518 2 7.19121 11.0724 18.1005
3187 1 15.9863 16.1331 32.2977
1640 1 10.8441 0.00272247 24.9783
1084 3 2.10837 16.4201 35.7103
3631 2 1.84387 7.46983 19.6664
66 3 3.80289 5.44324 19.8471
1631 3 5.71599 7.1436 19.872
2637 1 3.70799 7.19066 21.5931
1133 1 5.48972 5.51267 21.6763
1629 2 9.07118 3.50416 20.0872
2130 1 7.40716 5.38312 19.9276
509 1 10.9213 3.5827 21.5329
3630 2 12.7633 3.76319 19.7381
67 1 10.6587 5.59758 19.8524
1632 3 12.549 7.34154 19.7845
1135 2 12.7787 5.45044 21.4935
1638 1 1.83037 0.194978 23.4302
2131 1 14.6193 5.39948 19.632
2132 2 3.78512 9.00592 19.9459
3803 1 16.0675 17.9151 33.9735
3640 3 3.67057 -0.0168095 25.0754
2686 3 0.424828 14.4513 32.0729
3784 3 12.6363 18.1447 30.5405
69 3 7.27588 9.16482 19.9339
517 2 4.00644 10.9505 21.9115
3632 2 8.95968 7.27582 19.9255
1634 2 8.95866 10.8196 19.9976
513 2 7.23447 7.14864 21.8841
2634 2 10.7281 3.98698 18.3956
2133 1 10.8911 9.31677 19.8225
3635 3 12.5577 10.8917 19.7006
70 2 14.3547 9.11702 19.7006
3633 2 16.2289 7.32924 19.6636
1141 2 16.0795 9.08991 21.4351
2366 3 17.892 5.25978 33.9949
3639 3 5.55533 0.225409 23.4021
1633 2 2.20954 10.9167 20.1021
2642 2 3.75147 10.8033 18.0258
3634 3 5.58204 11.1312 19.8666
71 3 3.81832 12.787 19.8827
2135 1 7.45231 12.5992 19.8413
1636 2 5.55498 14.3443 20.0401
72 3 10.7988 12.6905 19.7786
3637 1 8.95 14.3017 19.9483
344 2 17.5928 1.914 26.9431
1637 1 12.7236 14.1868 19.7859
519 3 10.6968 10.9817 21.6476
1145 1 12.4502 12.6317 21.7374
1837 1 17.9871 10.754 25.0545
1635 1 16.2552 10.7111 19.8016
2136 1 14.2752 12.6777 19.65
3638 3 15.9897 14.4409 19.933
2645 3 14.3027 10.884 21.4487
1687 3 12.6273 14.484 34.1283
3636 2 2.01198 14.5243 20.0002
1147 2 2.23987 16.2934 21.656
841 1 17.9018 7.3419 25.0124
2137 1 3.81642 16.3281 19.8582
2321 3 17.9672 12.7639 19.6193
583 2 0.155673 14.4032 35.9333
74 2 6.96705 16.1054 19.8299
1149 2 8.94042 16.1522 21.7288
2134 2 0.115149 12.6421 19.8933
1659 3 9.07731 0.105924 30.4624
105 1 0.249603 12.4866 30.3504
2138 3 10.8643 16.0422 19.9301
75 3 14.3384 16.2784 19.9432
368 3 18.2345 9.05873 34.1458
2173 1 0.113651 16.388 30.2372
1641 3 16.2445 -0.0724753 23.5439
3802 3 9.23772 18.1524 34.2098
3642 1 1.91279 3.72528 23.3216
3167 3 0.0552678 12.7546 26.9313
3126 2 5.71923 2.15275 21.7742
527 3 3.72873 3.71449 25.1933
76 3 3.57854 2.13854 23.4438
77 2 5.32372 2.02202 25.3404
507 3 3.88921 3.78446 21.526
1642 3 5.45188 3.86285 23.3781
1552 2 12.6202 18.125 34.3002
2677 3 7.49539 0.25756 32.4024
2140 1 7.44544 2.05051 23.8015
1152 1 9.17759 1.98172 25.1912
1643 2 7.01829 3.68694 25.1923
3644 1 9.07955 3.85409 23.2498
359 3 17.9573 16.264 26.8795
552 1 10.769 0.139501 32.3877
2653 2 11.1686 3.83284 25.1674
78 3 10.9113 1.90955 23.386
2141 3 12.7478 1.78878 24.8565
2142 1 14.438 2.35669 23.2295
3645 2 16.1555 3.77378 23.269
3659 3 12.4946 -0.0443556 30.4526
125 2 14.2617 16.1809 34.2911
3130 1 1.75911 5.28849 21.7355
1645 2 1.88859 7.2323 23.3347
80 2 1.91151 5.35836 25.2435
3643 2 -0.146962 3.82503 24.9766
2143 1 3.62932 5.54039 23.4188
1646 2 3.47768 7.24665 25.2086
1153 3 5.47848 5.63262 25.0596
2633 2 7.42375 3.77304 21.6986
3132 2 8.99751 5.63995 21.5895
81 2 7.18249 5.38238 23.5439
2654 1 7.26082 7.12765 25.2623
2144 1 8.97693 5.2712 25.2599
1647 1 8.97286 7.12819 23.6249
1644 1 12.6621 3.77298 23.2398
2145 3 10.8439 5.48128 23.413
3152 3 12.8853 5.46494 25.0975
3134 2 16.4054 5.51324 21.4846
82 1 14.6454 5.48759 23.042
83 3 16.0744 5.57976 25.0517
3186 1 9.23946 16.2375 32.3187
3687 3 9.126 14.3573 34.3943
1137 3 1.89753 9.17014 21.8698
1154 2 2.06267 9.15398 25.1354
2669 3 0.110385 10.9032 28.498
363 3 18.083 1.81853 34.2393
3136 3 5.38814 9.00599 21.6044
3647 3 5.49258 7.31701 23.461
84 1 3.55603 9.23773 23.361
1650 2 5.52817 10.9247 23.7279
2147 2 5.44857 9.00096 25.1695
2643 2 7.05224 11.0937 21.8195
1139 2 9.13684 8.84288 21.6571
2639 1 10.8234 7.20967 21.6571
2148 3 7.23998 8.98833 23.3893
3648 2 12.7841 7.42964 23.17
85 2 10.6234 9.10727 23.3858
3138 1 12.6201 9.30427 21.6977
2149 1 14.3859 9.11089 23.2891
515 2 14.3522 7.35854 21.4471
1648 2 16.3997 7.32614 23.2589
1155 3 16.1633 9.19193 25.1303
529 3 14.217 7.50238 25.0347
2803 2 14.179 17.9356 32.3154
3140 2 1.93552 12.6607 21.6754
3650 3 1.77245 10.8254 23.5779
2150 1 1.96405 12.7483 25.3769
3141 2 5.44483 12.7472 17.9385
2151 1 3.68189 12.7338 23.4732
1143 2 5.44374 12.717 21.8404
3154 3 5.56057 12.7903 25.1656
3142 1 9.19792 12.6709 21.6793
3651 1 8.96383 10.7113 23.4908
88 1 7.18568 12.7876 23.4728
2649 3 11.0266 14.6245 21.8019
530 3 10.7944 10.9326 25.3008
89 3 9.19031 12.5701 25.0837
1651 3 12.411 10.9516 23.5016
2152 1 10.7538 12.8939 23.4753
2657 2 14.375 14.37 25.0636
3653 2 16.3193 10.8597 23.2442
90 1 14.6794 12.6933 23.4315
3144 3 16.3369 12.5891 21.5713
525 2 14.5246 14.3321 21.5535
124 2 7.44867 16.1674 34.3682
2506 3 18.156 3.57512 21.4573
502 3 3.76442 0.205065 18.0604
1653 1 1.88697 14.406 23.4631
3155 1 1.77605 16.0432 25.221
3143 2 12.5882 12.7974 17.7715
2647 2 3.70471 14.4225 21.7463
523 3 7.33046 14.3805 21.6711
3146 1 5.50365 16.1599 21.738
3654 2 5.42202 14.4917 23.4807
91 3 3.65718 16.265 23.4626
2155 1 7.27218 16.3011 23.4695
3137 3 8.85827 8.9562 18.1386
2641 1 0.0706543 10.9602 21.5458
531 3 7.25375 14.4671 25.3601
1654 3 9.14588 14.4755 23.5281
3656 2 12.9016 14.4712 23.1859
93 1 10.779 16.3223 23.6176
3148 2 12.7679 16.2661 21.4612
2157 2 14.5115 16.1799 23.495
2156 1 12.4502 16.27 25.2369
1151 2 16.0614 16.3475 21.4652
1656 3 16.1599 14.5409 23.4462
970 2 18.0832 17.9991 28.7372
2371 3 18.061 12.7985 34.2303
3150 1 1.98811 2.12505 25.1675
536 1 1.85083 3.84158 27.1302
1158 1 2.03955 1.96682 28.8443
532 2 0.257539 0.0929858 28.8094
1159 3 3.77731 1.96861 27.1271
1130 2 12.5325 1.94768 18.1022
2159 1 7.36189 1.5516 27.0127
3158 3 11.0763 1.82833 26.6091
2663 3 7.35249 3.54566 28.7149
3641 3 12.7406 0.198684 23.1776
3663 2 12.8313 3.65004 26.8183
3151 1 16.1946 1.84349 25.2371
524 3 10.5568 14.3261 18.0061
97 2 14.5675 2.08789 27.0076
539 3 16.2555 4.02002 27.0069
2664 3 14.3482 3.60048 28.927
2188 1 10.6596 16.3703 34.3917
3160 1 1.81593 5.45422 29.0081
3751 3 2.15709 18.0085 19.8478
1664 3 1.662 7.07107 26.9683
1661 1 5.28967 3.67751 26.9369
2162 3 3.72849 5.446 26.7736
537 2 3.48377 3.77645 28.7645
1163 3 5.32147 5.64123 28.539
2662 3 8.91618 3.45056 26.8909
3161 3 7.25446 5.26708 27.0863
3162 3 9.04892 5.39957 28.7148
100 3 10.7615 5.52012 26.8026
542 2 12.3167 7.24201 26.8162
1164 3 12.6686 5.44713 28.5635
2667 2 10.905 7.28549 28.7028
3084 3 5.48313 16.1238 35.7575
3646 3 14.5692 3.83064 25.1622
1165 1 14.2373 5.52513 26.9144
1667 1 16.5058 7.27327 26.9204
3163 1 16.2417 5.51885 28.7601
543 3 14.2995 7.18593 28.5518
1627 3 12.9018 0.3004 19.8451
2668 2 1.80403 10.8421 27.0691
1166 3 1.86836 8.88363 28.577
2581 2 7.38196 10.7593 35.9852
3164 3 3.62184 8.95356 26.9522
2665 1 5.60342 7.42447 26.785
3669 2 5.34426 10.7573 27.0331
2655 3 3.49889 10.9085 25.2958
2666 3 3.57579 7.23521 28.6077
3666 1 9.30335 7.42557 26.8072
103 2 7.46438 8.90657 27.0371
3153 3 9.11492 9.13843 25.278
1167 1 9.05415 9.26262 28.7141
541 3 7.33738 7.12804 28.7624
2670 1 7.25451 10.8464 28.7871
3649 1 10.9042 7.2261 24.8443
1168 2 10.8951 9.10973 26.9895
86 2 12.3495 9.25423 25.0976
3166 3 12.6199 9.13542 28.7018
1670 2 12.5552 10.8748 27.0291
546 3 10.976 10.8041 28.8394
2168 2 14.29 8.83816 26.997
1169 3 16.2056 8.96682 28.5111
2671 3 16.3213 10.7843 26.9793
540 1 0.121741 7.23588 28.6818
3672 2 1.8186 14.4573 27.0371
3655 1 3.51247 14.5609 25.0516
3652 1 7.24086 10.9769 25.4818
106 2 3.72397 12.5195 26.9992
544 3 3.87332 10.8756 28.8684
2673 1 3.62046 14.627 28.2807
1170 1 5.72329 12.7858 28.7096
1171 2 6.99875 12.4933 27.1334
545 2 9.13188 11.0948 27.1082
2171 1 10.976 12.6721 26.9772
1652 2 14.6012 10.7948 25.2414
2672 3 14.5399 10.882 28.5795
1156 3 12.7018 12.8066 25.0995
1172 2 12.5394 12.5181 28.7132
3170 3 14.4552 12.7281 26.9681
2674 1 12.7039 14.3579 27.2466
550 3 14.3629 14.3722 28.9676
3185 2 1.84417 16.4007 32.1518
2153 2 16.2923 12.6865 25.1071
3171 1 16.1351 12.8671 28.8229
3675 1 16.2074 14.3615 26.7326
2556 2 17.9989 7.19825 32.3851
92 3 5.46309 16.3465 25.2998
548 3 5.50306 14.608 26.8825
1174 3 3.70665 16.3403 26.7917
876 3 17.9151 17.8123 35.9683
1157 3 8.9485 16.391 25.3953
1673 2 9.13125 14.2755 26.8569
2179 2 -0.150877 5.66089 34.2331
2174 2 7.15056 16.3677 27.171
3173 1 10.7251 16.115 27.221
2675 3 10.6944 14.3969 28.8611
1655 2 10.8585 14.6614 25.3729
112 2 14.7016 16.0024 27.0484
2752 3 3.8607 17.9835 21.7382
3156 3 16.4597 16.3222 25.1911
2187 3 3.60697 16.1856 33.9356
1176 2 16.2677 16.4627 28.8199
1064 3 1.93555 1.84215 35.8596
533 1 5.43594 0.0845785 26.6444
3661 1 1.81752 3.57284 30.583
3417 3 17.9637 12.8473 26.9903
3175 2 1.70956 2.09594 32.3444
3677 3 8.94971 0.407933 34.3203
95 3 3.99814 1.82825 30.4427
3157 3 5.66355 1.73465 28.6727
1662 2 5.44095 3.74761 30.4975
2160 3 7.23264 1.95441 30.5838
1160 2 9.31112 1.71054 28.4367
3176 1 9.02667 1.96739 32.4241
96 2 10.7242 1.83046 30.3552
3159 3 12.5811 1.7071 28.6848
1178 1 12.2793 1.90965 32.2778
2161 2 14.4063 1.71886 30.6494
1161 1 16.2262 1.93552 28.8499
3664 3 16.2609 3.62473 30.4554
3657 2 1.96905 0.235778 26.8043
1685 2 16.2651 10.8522 34.2739
2679 1 3.48762 3.90684 32.5075
2163 1 3.66799 5.49667 30.4543
1665 2 1.90825 7.43401 30.6074
556 1 3.90186 7.0196 32.3882
3766 1 12.8843 17.896 23.6753
99 1 7.10619 5.48586 30.4292
3178 2 5.48225 5.50749 32.4934
3665 3 5.51437 7.12171 30.5848
3662 1 9.23239 3.57335 30.3821
1666 3 9.06717 7.28483 30.3588
2682 3 7.37515 7.30425 32.2326
2680 3 11.0655 3.87803 32.3695
1180 3 9.06923 5.7188 32.2806
538 2 10.8719 3.63149 28.6923
1663 1 12.6051 3.6763 30.4669
2164 2 10.9249 5.39455 30.4309
3179 1 12.6588 5.55713 32.4557
557 1 10.8425 7.07633 32.4074
101 3 14.3141 5.52421 30.6285
1668 2 16.1503 7.24248 30.4222
2683 3 14.4149 7.12547 32.3778
2186 2 14.5182 12.4043 33.9427
3668 3 2.09426 10.6634 30.246
3688 2 16.182 14.4029 34.0325
102 2 3.65456 8.91436 30.6941
3165 2 5.58192 8.64541 28.6053
2167 2 7.26055 8.91914 30.377
3670 1 8.94249 10.6412 30.5938
3181 2 9.00056 9.20939 32.1732
2685 3 10.9637 10.9356 32.5484
104 2 11.039 8.86253 30.749
3667 3 12.6146 7.03688 30.3522
1671 3 12.4155 10.7505 30.7274
560 1 14.2828 11.1313 32.208
2169 1 14.4603 8.93205 30.4964
3182 1 16.061 9.13667 32.4256
3168 1 2.13499 12.5953 28.5481
853 2 18.0463 7.47883 28.6829
1672 3 2.14648 14.3298 30.2039
1184 2 1.94144 12.5784 32.1256
1669 3 5.55654 11.0332 30.4483
2170 3 3.86442 12.5028 30.6091
3673 2 5.79286 14.498 30.5986
561 2 3.71526 14.2606 32.2257
549 2 7.10037 14.5451 28.6146
3169 1 8.97262 12.717 28.8693
107 3 7.29652 12.636 30.4946
2172 3 10.7797 12.6459 30.6465
2687 1 7.33466 14.3931 32.7184
108 2 14.3223 12.5707 30.5214
3674 1 12.5451 14.4883 30.5592
73 1 0.122419 16.0593 20.1116
122 1 10.9134 12.5566 34.1024
3671 2 16.0197 10.8857 30.6957
1675 3 16.1558 14.4559 30.6015
2688 3 14.3676 14.5138 32.2818
1186 1 16.2934 12.7318 32.1522
3685 3 12.7776 10.8129 34.0616
3127 2 9.23896 2.09907 18.1443
1173 3 2.21916 16.5204 28.9302
2636 3 0.0323668 7.31724 17.8391
3172 1 5.32112 16.2593 28.7501
3626 3 1.96234 0.0751036 19.7611
110 3 3.6812 15.9998 30.8453
1187 3 5.36833 16.2103 32.4802
2165 2 0.125119 9.15401 26.663
1175 1 9.18116 16.2422 29.0936
2175 3 7.35626 16.3139 30.5092
1674 2 8.91206 14.5798 30.6862
547 3 0.216346 14.4177 28.7851
1188 2 12.4424 16.0964 32.2694
3174 3 12.7504 16.2635 28.6393
111 1 10.9028 16.2646 30.4542
2176 1 14.544 16.4503 30.4057
2185 1 7.35107 12.4508 34.1778
121 2 3.69322 12.4703 34.0262
3064 3 5.51575 2.06156 36.093
554 3 7.36377 3.76024 32.2686
2177 3 3.61191 2.06247 34.0587
534 1 7.54867 0.0921568 28.5053
1177 1 5.57248 1.91109 32.5574
114 3 7.30447 2.02641 34.2748
1679 3 9.1147 3.73269 34.2716
3183 1 5.63567 12.713 32.2867
2178 3 10.8583 1.83908 34.3113
3680 3 12.6459 3.6344 34.1174
3184 3 12.6158 12.7053 32.4572
3177 1 16.2351 1.66928 32.5614
555 3 14.4063 3.72985 32.0394
115 1 14.3663 1.93458 34.0749
2784 1 12.808 18.0681 26.9262
1684 3 9.08006 10.7684 34.0263
1686 2 5.34479 14.3734 33.9613
1179 3 1.78697 5.71641 32.1709
1678 2 1.75891 4.02076 33.9326
116 2 3.92597 5.54586 34.4779
3679 2 5.40895 3.71619 34.2748
1681 2 5.71664 7.42001 34.101
1185 1 8.95897 12.7604 32.3321
1683 2 1.93566 10.7406 33.8173
2180 1 7.10638 5.61828 34.2077
3682 3 8.94894 7.23998 33.9881
1657 2 1.92214 0.381368 30.5753
3686 2 1.86692 14.7194 33.9442
117 2 10.9279 5.42946 34.3292
1682 1 12.7424 7.38966 34.128
2684 1 3.54936 10.5556 32.3162
3080 1 9.08197 12.4062 36.0479
1181 2 16.3762 5.49937 32.0483
1680 2 16.1957 3.78182 33.7971
2181 1 14.4047 5.41334 34.1668
559 3 7.32495 10.8557 32.2081
2819 1 17.8925 3.67554 35.7196
3681 1 1.77896 7.38931 34.2329
3180 1 1.80868 8.79366 32.3505
562 1 10.5327 14.4921 32.3661
1182 1 5.57686 9.12835 32.058
2182 3 3.79935 8.97166 33.9634
3684 2 5.55045 10.7135 33.8604
824 3 17.971 7.26862 21.3803
119 1 7.33872 9.06078 33.9986
2754 1 10.9043 17.5013 21.6586
3783 1 5.26657 18.2301 30.6222
2183 1 10.8976 8.88721 34.0723
1183 1 12.8957 8.80973 32.3196
120 3 14.5811 8.95626 34.0026
2583 3 14.5462 10.8349 36.0914
2585 2 3.84598 14.4392 35.733
3683 3 16.3818 7.3735 34.1424
1074 2 1.87242 9.01144 35.8036
871 2 17.9764 11.0368 32.1961
2561 3 17.9833 14.5107 32.1471
2938 2 17.9479 18.1629 18.0161
1535 3 16.3103 18.2301 30.5348
1639 2 9.12819 0.0550462 23.31
2629 1 10.8163 0.297267 21.6424
2648 2 7.14741 14.358 17.9989
1626 3 5.68846 0.0347647 19.6791
814 1 17.9046 0.30754 21.7006
3752 2 9.21504 17.9594 19.9772
2660 1 10.7619 0.00616964 28.7372
2651 2 0.163005 0.285481 25.0206
2627 3 3.6374 0.249432 21.7107
3627 2 9.18207 0.384803 20.0971
2521 3 17.9243 14.5388 18.142
3147 2 8.95437 16.2242 18.1325
2753 1 7.26018 17.8716 18.1033
3125 3 1.95108 2.06206 18.1297
3076 1 12.8014 9.00809 35.9659
1132 3 2.12441 5.81156 17.9617
1076 1 8.76899 9.03317 35.8514
504 3 10.8125 0.144741 18.1501
2690 2 3.85889 18.0631 35.8941
579 2 3.64817 10.7993 35.8575
3078 2 1.56854 12.7044 35.7882
2587 2 10.8424 14.3372 35.8941
510 1 14.3186 3.43809 17.8459
1150 1 12.4534 16.0464 18.1582
819 2 18.2041 3.79472 17.7788