ITEM: TIMESTEP
5000
ITEM: NUMBER OF ATOMS
4000
ITEM: BOX BOUNDS pp pp pp
-2.6667833800203766e-02 3.5654537833800987e+01
-2.6667833800203766e-02 3.5654537833800987e+01
-2.6667833800203766e-02 3.5654537833800987e+01
ITEM: ATOMS id type x y z
563 3 -0.0247778 -0.191821 0.0858294
1064 2 1.80221 1.5016 0.00518611
1563 1 2.02143 -0.279824 1.75724
2064 3 0.045015 1.69439 1.73253
1 3 3.47858 1.73021 1.72167
565 3 7.22499 -0.0325995 -0.020341
2065 1 7.04516 1.75661 1.71574
2565 2 3.7604 -0.177838 -0.015578
3064 2 5.38045 1.90461 -0.0217047
3564 1 5.45848 0.15478 1.96887
1066 3 8.85547 1.87781 -0.157001
1564 3 8.84991 0.0792454 1.73515
2 3 10.7693 1.59605 1.73935
567 1 14.1935 0.252153 0.0404473
2066 2 13.9449 2.22778 1.70545
2567 3 10.4873 -0.143518 0.0620259
3066 2 12.3671 1.87858 -0.236839
3565 2 12.5838 -0.0195888 1.71779
751 3 17.7286 0.0372861 -0.233998
1068 3 15.9754 1.90418 0.187837
1565 2 15.9021 0.123384 1.70752
2001 2 17.7723 1.89263 1.61425
3 2 -0.26481 5.2792 1.70553
573 2 -0.115005 7.01223 0.0115931
1568 1 1.82122 7.10779 1.82686
2569 1 -0.129499 3.54747 -0.00196338
3068 2 1.75623 5.28185 -0.05653
3566 3 1.4569 3.59628 1.8566
4 3 7.03508 5.50469 1.63661
569 2 3.44439 3.35706 0.0208682
575 1 6.886 7.37929 0.0520373
1070 3 5.10764 5.24439 0.194582
1566 1 5.38611 3.35126 1.7328
2067 1 3.4627 5.44527 1.88509
2575 1 3.571 7.03829 0.0668763
2571 2 7.0841 3.42626 -0.176033
3569 3 5.3182 7.07156 1.91994
1569 2 8.94844 7.1197 1.5427
3070 1 8.94064 5.28969 0.000741947
3567 3 8.94136 3.29786 1.70966
5 2 13.8886 5.48039 1.82545
571 1 10.5181 3.60941 -0.0611827
577 2 14.2652 7.31529 0.113804
1072 2 12.2168 5.30132 -0.158174
1567 2 12.1515 3.6143 1.55189
2068 3 10.5927 5.45104 1.68434
2577 3 10.7621 7.12514 -0.109301
2573 1 13.871 3.52979 -0.296669
3570 3 12.4193 7.33557 1.72332
253 3 17.7008 5.48672 1.65452
761 2 17.8049 7.18582 0.0340146
1570 2 16.1258 7.02735 1.82801
2819 3 17.5992 3.67863 -0.106539
3072 3 15.8825 5.25947 -0.0692308
3568 1 16.008 3.47424 1.8056
1074 3 1.53856 8.75765 -0.101336
2069 3 -0.106558 8.7916 1.77517
6 2 3.32778 8.92229 1.86825
2070 2 7.11688 9.05069 1.73757
3074 1 5.45039 8.98446 0.126106
1076 2 8.66461 9.14904 0.00661925
7 1 10.5543 9.08976 1.78734
2071 1 14.2112 9.21197 1.53132
3076 3 12.3348 8.73615 0.0254126
1078 1 16.1177 8.92834 -0.159105
2006 3 17.77 9.01439 2.00357
8 3 0.0941413 12.3294 1.82523
583 2 0.130531 14.1259 -0.0663056
1573 2 1.69592 14.2903 1.74338
2579 1 0.110619 10.5538 -0.116134
3078 1 1.8088 12.7455 0.0400219
3571 2 1.89155 10.7158 1.75677
9 3 7.01516 12.4554 1.8489
585 1 6.84384 14.2981 0.0589661
579 1 3.3988 10.6988 -0.145486
1080 1 5.0762 12.5706 -0.0315989
1571 3 5.16276 10.8133 1.97266
2072 2 3.57485 12.7251 1.83317
2585 1 3.41454 14.3497 0.0698427
2581 3 6.7559 11.1802 -0.00198389
3574 3 5.23301 14.2626 1.658
1574 2 8.75939 14.404 1.65722
3080 3 8.64394 12.7975 0.0120399
3572 1 8.78113 10.6976 1.58262
10 3 14.1786 12.3381 1.76091
587 1 14.2175 14.1807 0.213091
581 3 10.3944 10.9574 0.00927855
1082 3 12.2332 12.6779 0.181953
1572 3 12.212 10.9062 1.83734
2073 1 10.5757 12.595 1.7171
2587 3 10.729 14.4025 0.162048
2583 1 14.1105 10.8043 0.0399121
3575 3 12.6113 14.1745 2.17209
258 1 17.8045 12.2318 1.91297
771 1 17.9223 14.2099 0.0645182
1575 2 16.1073 14.1296 1.66229
2829 3 17.6769 10.3839 0.161213
3082 3 15.9334 12.4735 0.118566
3573 2 16.1759 10.6836 1.82995
626 1 -0.337883 18.0496 -0.27604
1084 3 1.62652 16.1841 0.0474289
1688 3 1.70028 18.0051 1.68773
2074 2 -0.173063 16.1557 1.53135
11 2 3.4121 16.0866 1.66979
628 2 7.06589 17.8094 -0.21076
2075 2 6.93256 16.0691 1.68596
2690 3 3.30104 17.8461 0.0372849
3084 1 5.17407 16.3115 -0.0348057
3689 2 5.2627 17.9089 1.74473
1086 3 8.88717 16.1065 -0.0809946
1689 3 8.66968 17.7877 1.65728
12 1 10.7171 16.2318 2.01098
630 2 14.1554 18.0261 -0.031282
2076 3 14.3057 15.742 1.94987
2692 2 10.9797 17.8303 0.102152
3086 2 12.4881 16.1263 0.0428718
3690 1 12.6782 17.9742 1.93686
876 3 17.5339 17.8582 0.0264526
1088 3 15.6243 16.1789 -0.0607453
1690 3 16.0049 17.7109 1.77999
2011 1 17.6072 16.0626 1.64604
13 2 0.0720763 1.82018 5.29297
588 2 -0.233386 -0.0180119 6.76116
1089 1 1.85887 1.71075 6.95315
2564 2 0.135202 0.124101 3.27742
3063 2 1.88724 1.86809 3.54067
3576 1 1.80748 0.0659955 5.33291
14 1 7.22341 1.73235 5.53508
564 3 3.68179 -0.301154 3.68101
1065 3 5.28217 1.6117 3.76803
1577 1 3.63349 -0.13152 7.1261
1576 1 5.43796 -0.13098 5.50039
2078 1 5.45493 1.71436 7.28466
2077 1 3.56689 1.65272 5.47295
2589 3 7.2253 -0.242973 7.22588
2566 2 7.11907 0.0918785 3.72797
3065 2 8.85112 1.8903 3.60336
3088 2 9.05129 1.80969 7.37268
3577 2 9.0159 0.239669 5.30923
15 2 12.5231 1.73066 7.11517
16 3 14.2585 1.9281 5.16886
566 1 10.5071 0.0831045 3.66467
589 2 14.3936 -0.208774 7.2614
1067 1 12.3036 2.32917 3.38295
1578 2 12.5225 0.0572034 5.23603
2079 3 10.5923 1.8146 5.33705
2568 2 14.2308 -0.108501 3.39938
3578 2 10.6566 0.0694792 7.086
263 3 17.8765 1.73204 5.27728
776 3 17.7717 -0.038547 6.97524
1090 2 15.8407 1.95421 6.96772
2814 2 17.5272 0.0554757 3.46483
3067 2 15.9532 1.8311 3.28136
3579 2 16 0.289341 5.12691
568 1 -0.0243869 3.40884 3.66457
1069 3 1.81332 5.4006 3.44775
1580 2 -0.106368 3.42961 7.13555
1579 2 1.86592 3.4665 5.48454
2081 3 1.79461 5.36631 7.03808
2080 1 0.143298 5.22653 5.2737
2591 2 0.00723032 6.85408 7.08649
2574 2 -0.00698457 6.78425 3.31369
3583 1 1.83268 7.03207 5.31705
17 1 3.51051 5.41834 5.29936
570 3 7.20706 3.78461 3.4233
591 1 7.10599 7.02107 7.13908
574 3 3.6405 7.0697 3.57864
1584 2 5.41377 7.16186 5.41139
2082 1 7.10528 5.32452 5.34896
2590 2 3.77233 3.55994 7.04472
2576 1 7.28894 7.05524 3.44669
2570 3 3.67912 3.48201 3.43758
3069 3 5.28175 5.20408 3.67167
3089 3 5.21932 5.35462 7.02217
3584 3 3.50944 7.24492 7.24993
3581 1 7.32375 3.72284 7.12301
3580 2 5.25503 3.30018 5.5666
18 2 8.9882 5.54708 7.05999
1071 1 8.82492 5.4635 3.33598
1581 2 9.00207 3.4218 5.32087
3585 3 8.85229 7.05731 5.26513
19 3 10.8323 5.44608 5.39829
572 2 14.2889 3.64405 3.5464
590 1 10.6739 3.37413 7.10315
576 1 10.3595 7.23283 3.52602
1091 1 12.5428 5.40312 7.13372
1586 2 10.5974 7.24317 7.08598
1585 3 12.3821 7.3633 5.05782
1583 1 14.3178 3.65004 7.00656
2083 3 14.3028 5.43172 5.20039
2592 2 14.2046 7.2452 7.09911
2578 2 14.0135 7.30413 3.51149
2572 1 10.4892 3.63539 3.43692
3071 1 12.3896 5.46484 3.42607
3582 2 12.2858 3.59804 5.43675
756 3 17.7739 3.53655 3.636
1073 2 15.7353 5.41181 3.40269
1768 3 17.5315 3.65694 6.99976
1582 1 15.9729 3.55612 5.16694
2084 3 15.919 5.60733 7.21884
2017 1 17.7288 5.32261 5.23841
2841 2 17.6967 7.16624 7.04759
2824 1 17.6739 7.11476 3.80289
3586 1 15.8484 7.15465 5.19035
20 2 0.0948195 8.84739 5.39623
3073 3 1.66502 8.92336 3.52048
3090 3 1.67817 8.67615 7.04043
21 1 5.44935 8.92169 7.09643
22 3 7.21843 8.68685 5.23712
1075 1 5.10568 9.03397 3.59649
2085 3 3.4934 8.95766 5.29406
1092 1 9.0405 8.84702 7.23851
3075 3 8.77065 9.12263 3.40137
23 2 14.1732 8.87802 5.29677
1077 3 12.455 9.05265 3.43695
2087 1 12.4844 8.80831 7.31698
2086 3 10.5609 9.15325 5.24726
270 3 17.8934 9.0416 5.58396
3091 2 15.8808 9.00169 7.03225
3077 3 15.9238 8.9905 3.58503
24 3 1.77709 12.1868 6.92953
593 2 -0.29788 14.1744 7.07845
578 3 0.0191551 10.6673 3.60377
1079 2 1.7403 12.4984 3.55308
1587 3 1.79493 10.5241 5.18701
2088 2 -0.116329 12.3127 5.30584
2584 3 -0.198855 14.2966 3.54569
3591 1 1.76254 14.327 5.36614
3587 2 0.0766983 10.6595 7.23053
25 3 3.65887 12.4735 5.39485
592 2 3.61085 10.6856 7.0236
584 3 3.7059 14.2965 3.6238
580 3 7.03627 10.7565 3.51199
1093 1 5.4351 12.4643 7.0455
1592 3 3.399 14.3507 7.09605
1591 3 5.2929 14.3104 5.53675
1589 3 7.05967 10.7809 6.98161
2089 2 7.01007 12.4321 5.51639
2594 1 7.23454 14.1496 7.10228
2586 1 7.12737 14.385 3.70179
2580 1 3.47966 10.7841 3.40982
3079 2 5.53148 12.5877 3.81172
3588 2 5.4131 10.5633 5.32228
1081 1 8.81912 12.4638 3.53157
1588 1 8.81731 10.5854 5.3148
2090 2 8.87502 12.4821 7.05812
3592 3 8.89808 14.3235 5.32779
26 2 10.5376 12.5492 5.42597
594 2 14.2418 14.1574 7.15875
586 3 10.5922 14.1919 3.32992
582 2 13.8212 10.7021 3.62616
1593 2 12.5291 14.0094 5.40046
2091 1 14.1665 12.3915 5.29152
2593 3 10.711 10.6406 7.14388
2588 3 14.3313 14.1913 3.60002
2582 2 10.4745 10.7406 3.5787
3092 3 12.2412 12.3003 6.97492
3081 3 12.2834 12.5095 3.71597
3593 2 10.6585 14.1909 7.15081
3590 3 14.0938 10.7951 7.06731
3589 1 12.2206 10.5223 5.37469
27 3 15.9432 12.6082 7.17189
781 1 17.6673 14.3203 6.95259
766 2 17.7955 10.5786 3.66693
1083 2 15.8573 12.3218 3.61924
1590 3 15.8275 10.6186 5.23608
2025 3 17.7147 12.6271 5.11815
2834 1 17.9333 14.1415 3.51919
3837 3 17.7769 10.8242 7.06478
3594 3 15.9775 14.0379 5.16229
28 3 -0.0124143 16.0472 5.30263
651 1 0.208222 17.9443 6.80753
1094 3 1.60269 15.9845 7.20351
2689 1 -0.234741 17.8493 3.53563
3083 2 1.82079 16.0728 3.49381
3701 1 2.04806 17.8762 5.10985
29 2 7.21393 16.3537 5.39756
627 3 3.5645 17.9484 3.32047
1085 1 5.27518 16.1325 3.3861
1702 1 3.40595 17.6996 6.97875
1701 2 5.14991 17.7945 5.47157
2093 1 5.20821 16.208 7.16286
2092 3 3.56443 16.0108 5.27022
2714 3 6.99589 17.8247 7.26963
2691 3 7.0127 17.8504 3.51426
3093 1 8.88412 16.1787 6.92096
3085 3 8.8833 16.2249 3.78493
3702 1 8.97248 18.2169 5.13975
30 1 12.5472 15.9544 7.02064
31 3 14.4207 15.909 5.30869
652 3 14.2551 17.8749 7.13959
629 3 10.842 17.87 3.62203
1087 3 12.4901 16.1345 3.44064
1703 3 12.5865 17.8311 5.48536
2094 3 10.8376 15.9133 5.25025
2693 2 14.3627 17.7968 3.8538
3703 3 10.8133 17.9204 7.13373
278 1 17.8741 15.7901 5.34198
901 3 18.034 17.8462 7.36714
1095 3 15.9646 15.6818 7.15793
2876 2 17.8637 17.8071 3.61624
3087 1 16.2973 15.849 3.51648
3704 3 16.1977 17.6557 5.45207
1594 3 1.82713 -0.0911568 8.8148
2095 3 0.178777 1.60195 8.7562
33 2 7.1115 1.84974 8.72531
2596 1 5.77777 -0.295443 8.96949
3095 2 3.72549 1.66503 8.77886
3596 2 8.89827 -0.24265 8.81326
596 1 12.667 -0.00149095 8.80885
1097 3 10.7765 1.80118 8.88476
2098 1 14.2439 1.89494 8.73204
1597 3 16.269 0.0336552 8.91583
2032 2 17.9537 1.81691 8.69183
2599 1 2.07708 3.42537 8.90026
3098 1 0.19019 5.17633 8.79058
3602 1 1.59598 7.13929 8.882
36 1 3.75436 5.41324 8.86302
602 3 5.37689 7.12445 8.81042
1100 2 7.16583 5.36568 8.85495
3599 2 5.52449 3.62061 8.83273
599 2 8.92336 3.55236 8.95703
1603 2 8.95208 7.16085 9.08879
1600 2 12.5868 3.72949 8.75674
2101 1 10.3705 5.45151 9.05134
2605 2 12.1076 6.83085 8.90567
3101 2 14.2571 5.45096 8.88227
2602 3 15.9675 3.579 8.967
3348 1 17.6932 5.43512 8.91828
3605 1 16.0678 7.09255 8.91678
39 2 -0.0536608 8.89054 8.81441
1103 3 3.32144 8.84789 8.82126
2104 2 6.98505 8.81745 8.84893
42 2 14.1983 8.76904 8.89665
3104 3 10.7683 8.84633 8.89218
289 3 17.7159 8.67354 8.85752
605 3 1.87945 10.6779 8.73493
1106 2 -0.229453 12.6465 8.9701
1609 1 1.55406 14.5012 8.96911
1606 2 5.15648 10.6434 8.97511
2107 1 3.42334 12.5193 8.74742
2611 2 5.39388 13.9023 8.90786
3107 2 7.10079 12.3898 9.02388
2608 1 8.862 10.5324 8.88113
3611 3 8.93015 14.2441 8.86964
45 1 10.6371 12.494 8.85461
611 3 12.5585 14.0933 8.73603
1109 3 14.4614 12.5146 9.02889
3608 3 12.6366 10.6104 8.86303
608 1 15.8154 10.746 8.87118
1293 2 17.8575 12.4008 8.91948
1612 1 16.0547 14.1991 9.05543
1719 2 1.76567 17.7556 8.93922
2110 3 -0.0463974 16.0796 9.06624
48 3 6.88246 15.9387 8.85575
2721 1 5.26953 18.0755 9.04834
3110 3 3.45087 15.9412 8.86759
3721 2 8.88672 17.7445 8.94991
659 3 12.4637 17.7286 8.8382
1112 2 10.5437 16.1136 8.73783
2113 3 14.4508 16.0763 8.84749
1722 1 16.0894 17.9521 8.89678
2047 3 17.6936 16.0486 8.97545
32 3 0.0539471 1.85186 12.3461
613 3 0.0672388 0.0155449 14.2206
1114 2 2.03355 2.02025 14.3428
2595 2 0.0295436 0.158606 10.7423
3094 2 1.76189 1.67305 10.5279
3595 3 1.82554 0.138238 12.5144
34 2 7.27399 1.56319 12.3158
614 2 7.10119 -0.0291411 14.0773
595 1 3.66294 -0.0208162 10.7363
1096 1 5.17384 1.62969 10.4664
1595 1 5.56446 -0.12926 12.4628
2096 3 3.90724 1.97282 12.4087
2614 1 3.52096 0.0644995 14.4685
2597 1 7.06345 0.0015106 10.5881
3113 1 5.2021 1.73101 14.1895
1115 1 8.76645 1.6504 14.3595
3096 1 8.99381 1.76374 10.5705
3597 1 8.85683 -0.176741 12.4559
35 1 14.4306 1.61791 12.5358
615 2 14.0747 -0.0304288 14.3228
597 2 10.7497 0.181435 10.5469
1098 2 12.5837 1.90125 10.5324
1596 2 12.2157 -0.16238 12.5794
2097 2 10.4054 1.64387 12.5398
2615 1 10.5016 -0.108324 14.4097
2598 3 14.1976 -0.179714 10.7361
3114 3 12.3101 1.7289 14.2538
282 3 17.7115 1.56915 12.6033
801 1 17.9785 0.0192735 14.3751
1116 3 15.9767 1.69859 14.4046
2845 1 17.9557 0.110338 10.6693
3097 2 16.1606 1.74926 10.4961
3598 3 15.9922 0.0963862 12.6058
618 3 0.0938521 7.01202 14.2132
598 2 -0.0339267 3.61618 10.6579
1099 3 2.01102 5.28753 10.517
1598 3 1.89208 3.51759 12.2589
2099 1 0.0647889 5.59654 12.1832
2616 2 0.191651 3.3744 14.351
2603 2 -0.0132688 7.12765 10.6289
3115 3 1.67854 5.17474 13.8988
3603 1 1.80227 7.01903 12.2697
37 1 3.91115 5.38509 12.382
619 1 7.00733 7.23601 14.1167
616 2 3.57038 3.58183 14.2899
603 3 3.45325 6.97938 10.3948
600 1 7.02689 3.47269 10.6099
1117 2 5.23068 5.40626 14.1564
1602 2 5.30323 7.16439 12.26
2100 3 7.07096 5.39983 12.4976
2619 2 3.55915 7.0034 14.1997
2617 2 7.07824 3.28168 14.1842
2604 1 7.19605 7.3131 10.6764
2600 2 3.75075 3.66898 10.3573
3099 2 5.57144 5.30262 10.5661
3600 1 5.50819 3.55722 12.5074
1101 1 8.79815 5.4471 10.8638
1599 3 8.97485 3.74468 12.5661
3116 3 8.80696 5.50401 14.493
3604 3 8.80889 7.35567 12.5047
38 1 10.6719 5.34482 12.5799
620 3 14.4777 7.12797 14.3533
617 3 10.6642 3.58235 14.4165
604 3 10.5789 7.25123 10.7708
601 1 14.286 3.46246 10.9763
1118 3 12.564 5.39045 14.2452
1604 1 12.5476 7.13773 12.3387
2102 3 14.2279 5.30643 12.5688
2620 3 10.6804 7.23998 14.189
2618 3 14.4348 3.74186 14.4667
2606 3 14.3202 7.04979 10.7868
2601 3 10.6898 3.55861 10.7241
3100 3 12.5474 5.312 10.7752
3601 1 12.2313 3.2229 12.5607
806 1 17.669 7.31047 14.0158
786 2 17.7147 3.41649 10.7315
1102 3 15.8745 5.3731 10.7453
1601 1 16.0613 3.60261 12.5276
2036 1 17.9257 5.33248 12.5157
2866 2 17.7402 3.42424 14.2612
2853 2 17.814 7.1578 10.7439
3117 3 16.2535 5.26873 14.1095
3606 1 16.2538 7.30436 12.5478
40 1 0.0340988 8.73872 12.363
1119 3 1.68873 8.82015 14.2914
3102 1 1.74674 8.76623 10.5096
41 2 7.05188 9.19852 12.5613
1104 1 5.22226 8.73679 10.5312
2103 3 3.52658 8.77912 12.3171
3118 3 5.22794 8.75563 13.9196
1120 3 8.80862 8.99092 14.2964
3103 1 8.80439 9.21023 10.5491
43 3 14.3745 8.84811 12.4437
1105 2 12.564 8.81917 10.576
2105 2 10.7792 9.16914 12.5055
3119 1 12.6114 8.79296 14.0803
290 2 18.0117 9.06914 12.5675
1121 3 16.0484 9.01601 14.2949
3105 2 16.2234 8.90269 10.8296
623 3 0.0713322 14.1053 13.9705
606 3 -0.00152301 10.6979 10.5027
1107 1 1.65702 12.3565 10.5776
1605 3 1.65754 10.5323 12.469
2106 1 0.25683 12.2973 12.3111
2621 2 -0.0912091 10.5438 14.2814
2610 2 0.215006 14.3254 10.7724
3120 1 1.9123 12.2629 14.0967
3610 1 1.95797 14.1465 12.2767
44 2 3.51887 12.2896 12.5429
624 3 6.9807 14.271 14.4561
621 3 3.49691 10.3272 14.2715
610 3 3.40094 14.04 10.484
607 2 6.971 10.6508 10.7905
1122 1 5.27025 12.4624 13.9235
1610 1 5.16046 14.0087 12.3923
2108 3 7.17908 12.531 12.4426
2624 3 3.39964 14.3285 14.0919
2622 1 7.35227 10.7492 14.0286
2612 2 7.12496 14.0608 10.5465
2607 3 3.2847 10.6819 10.5092
3106 2 5.27049 12.4475 10.7298
3607 1 5.27566 10.7208 12.4061
1108 2 9.02354 12.4632 10.6891
1607 2 9.1205 10.6821 12.3576
3121 2 8.89901 12.4479 14.2516
3612 3 8.90116 14.2225 12.4884
46 1 10.8439 12.5508 12.34
625 3 14.3256 14.1267 14.3101
622 1 10.6366 10.6995 14.3043
612 3 10.7492 14.2465 10.5779
609 3 14.3032 10.7728 10.9015
1123 1 12.6714 12.4134 14.3385
1611 2 12.3552 14.0789 12.2783
2109 1 14.2658 12.6155 12.5146
2625 1 10.6562 14.0809 14.0566
2623 2 14.4435 10.6206 14.3045
2613 3 14.3622 14.3115 10.8267
2609 3 10.7159 10.812 10.6153
3108 3 12.5194 12.4298 10.578
3609 3 12.5252 10.7744 12.5456
811 1 17.7963 14.0895 14.5066
794 3 17.784 10.5985 10.6981
1110 3 16.0698 12.4856 10.8439
1608 1 16.1652 10.6544 12.5201
2043 2 17.8753 12.3669 12.3945
2871 1 17.6951 10.7228 14.2647
2860 2 17.7466 14.0663 10.8513
3122 2 16.1822 12.4221 14.1224
3613 2 16.0297 14.3522 12.6626
47 1 -0.238082 16.0491 12.5906
676 3 -0.0567599 17.9577 14.2071
1124 3 1.74882 16.0492 13.972
2720 2 0.031235 17.8443 10.7834
3109 1 1.74415 16.024 10.6547
3720 3 1.74268 17.8303 12.507
49 3 7.10108 15.7581 12.464
677 1 7.11999 17.6877 14.1933
658 3 3.46248 17.9388 10.9055
1111 1 5.28921 16.0313 10.7392
1720 2 5.36821 17.8688 12.3685
2111 3 3.43568 15.9711 12.3465
2739 1 3.41994 17.6848 14.0461
2722 2 6.99207 17.7505 10.6858
3123 3 5.1814 15.9808 14.0478
1125 1 9.00365 15.9217 14.3244
3111 2 8.84655 15.9755 10.5747
3722 2 8.79818 17.4647 12.5606
50 1 14.3257 15.9925 12.6835
678 3 14.0291 17.8542 14.4405
660 1 10.804 17.8 10.7996
1113 1 12.5828 15.9751 10.6051
1721 2 12.4703 17.8021 12.542
2112 3 10.5723 15.9442 12.4582
2740 1 10.6108 17.6557 14.3611
2723 3 14.2239 17.628 10.8944
3124 3 12.4828 15.714 14.2827
297 2 18.0367 16.0826 12.6627
926 1 17.9238 17.9157 14.3664
1126 2 16.2003 16.1117 14.3691
2907 2 17.8619 17.9103 10.4376
3112 1 16.2135 15.9913 10.8132
3723 1 15.9418 17.6199 12.6535
1613 3 1.73351 0.0582025 16.1022
2114 2 -0.294103 1.70997 16.2645
2626 2 -0.10068 0.00890239 17.6469
3125 3 1.57774 1.84312 17.8777
51 2 3.5105 1.71261 16.1324
502 1 3.44762 -0.0714541 17.5609
1128 2 5.34578 1.88264 17.911
2115 1 6.93884 1.70481 16.1825
2628 2 7.01594 0.140967 17.9823
3614 3 5.40769 -0.0264722 15.9912
1614 2 8.85492 0.034174 16.2273
3127 3 9.05978 1.77465 17.95
52 3 10.6326 1.91479 16.1314
504 3 10.6023 -0.300944 17.8594
1130 3 12.3367 1.93522 17.8178
2116 1 14.1226 1.87795 16.2209
2630 2 13.9387 -0.00780245 17.7543
3615 3 12.3656 -0.124881 16.1858
1615 1 16.0643 0.00293147 15.9977
2051 2 17.7451 1.78844 16.0148
2501 1 17.8496 -0.0597811 17.8762
3129 3 15.8097 1.80047 17.867
53 2 0.186068 5.16555 15.9062
506 2 -0.0791207 3.64602 17.74
1132 2 1.99449 5.25415 17.8843
1618 2 1.8395 7.21772 16.0542
2636 2 -0.0178505 6.77478 17.7421
3616 1 1.85011 3.66002 16.2028
54 1 6.99901 5.37364 16.0732
508 3 6.98479 3.49601 18.0696
512 3 3.64082 7.16294 17.7636
1616 2 5.41037 3.5625 15.9659
2117 2 3.70787 5.22247 15.9925
2638 2 7.19996 7.1829 17.7128
2632 2 3.49578 3.53084 17.8555
3131 1 5.11663 5.35589 17.728
3619 2 5.33617 7.20888 16.088
1134 2 8.9327 5.34618 18.0163
1619 3 8.86377 7.1506 15.9764
3617 3 8.65057 3.68677 16.0127
55 1 14.2296 5.57963 16.2635
510 1 14.2538 3.7752 17.5192
514 2 10.6742 7.14718 17.8143
1617 3 12.3976 3.69461 16.0649
2118 1 10.825 5.37926 15.899
2640 2 14.0668 7.25629 17.755
2634 2 10.8564 3.63619 17.8902
3133 3 12.5617 5.54771 17.6781
3620 2 12.4403 7.2643 15.8932
303 3 17.7101 5.36165 16.1728
819 2 17.5328 3.47698 17.8507
1136 2 15.9292 5.4175 17.964
1620 2 15.9542 7.25937 16.3168
2511 2 18.032 7.24421 17.843
3618 1 16.0087 3.64774 16.1296
2119 1 -0.0492176 8.91247 15.8722
3135 2 1.73555 8.85099 17.6603
56 2 3.62587 8.89534 16.0653
1138 3 5.23807 8.94476 17.7104
2120 1 6.91398 9.03304 16.0071
3137 1 8.77918 8.88592 17.8058
57 2 10.613 8.90184 16.0973
1140 1 12.2771 8.81146 17.7413
2121 1 14.2322 8.84667 16.002
2056 3 17.7654 9.03315 16.1602
3139 2 15.9684 8.99615 17.8874
58 1 -0.0575228 12.4297 15.8886
516 2 0.145076 10.5041 17.6896
1142 1 1.77561 12.4644 18.0018
1623 1 1.717 14.1611 15.8757
2646 2 0.048339 14.0817 17.8171
3621 2 1.57761 10.8751 15.8461
59 1 7.21421 12.3114 16.0799
518 1 7.00756 10.774 17.6808
522 2 3.51512 14.36 17.9446
1621 1 5.43565 10.5363 15.638
2122 3 3.46933 12.498 15.9458
2648 2 7.08212 14.2318 17.6921
2642 2 3.50563 10.7294 17.7794
3141 3 5.26816 12.3735 17.7339
3624 1 5.39556 14.2253 16.0467
1144 1 8.91101 12.5153 17.8679
1624 1 8.89862 14.0586 15.9747
3622 3 8.97869 10.6895 16.0915
60 1 14.2081 12.5291 16.1721
520 2 14.1028 10.5691 17.6899
524 3 10.6036 14.3933 17.7565
1622 3 12.3743 10.7252 15.986
2123 3 10.5556 12.4478 16.0086
2650 3 14.3675 14.3302 17.8547
2644 3 10.6933 10.5766 17.9383
3143 1 12.6459 12.4217 17.8274
3625 3 12.4932 14.2261 16.1529
308 2 17.7584 12.4618 16.1861
829 2 17.7293 10.9584 18.0644
1146 1 15.9382 12.5006 17.7989
1625 2 16.1032 14.2652 16.0327
2521 2 17.6865 14.2832 17.7637
3623 3 15.8927 10.6365 16.0265
1738 2 1.93542 17.8304 16.1631
2124 3 -0.0823267 15.9748 16.0637
2751 3 -0.0478346 18.0435 17.7379
3145 3 1.79036 15.7921 17.8347
61 3 3.55527 15.9399 15.892
690 3 3.51027 17.9009 17.8606
1148 1 5.3612 15.8335 17.7989
2125 1 6.97608 16.046 16.0059
2753 3 7.06068 17.7486 17.8727
3739 3 5.15887 17.8571 16.233
1739 1 8.95919 17.6966 16.0003
3147 3 8.81255 16.0861 17.6609
62 3 10.6733 15.8448 16.0666
692 2 10.8514 17.7794 17.9304
1150 3 12.4656 15.9006 17.8363
2126 1 14.279 15.8292 15.9871
2755 3 14.2139 17.9067 17.8154
3740 3 12.3537 17.518 15.9715
1740 1 15.8943 17.7309 15.9735
2061 1 17.8679 16.1897 16.0355
2938 2 17.8621 17.8807 17.5098
3149 1 16.0587 16.1286 17.6384
501 2 -0.105898 -0.0244199 21.4224
63 2 -0.126999 1.73781 19.4974
1127 1 1.65981 1.64703 21.4575
3626 3 1.81326 -0.0306863 19.6968
503 1 7.18291 -0.0321386 21.6031
64 2 7.06794 1.79717 19.6787
1626 1 5.27829 0.0534479 19.2375
2127 3 3.53418 1.78296 19.5119
2627 1 3.74293 -0.121304 21.6341
3126 3 5.42186 1.58002 21.4756
1129 2 8.99533 1.98081 21.5117
3627 1 8.96517 -0.0323872 19.7344
505 1 14.175 0.207611 21.3573
65 1 14.0981 1.56474 19.6905
1627 1 12.5268 -0.00885388 19.5225
2128 3 10.7317 1.79512 19.7692
2629 2 10.7866 0.048844 21.5498
3128 2 12.3242 1.77874 21.723
814 1 17.8004 -0.039523 21.2186
313 2 17.8944 1.81551 19.4288
1131 2 15.9929 1.99788 21.1349
3628 2 15.9032 -0.0505016 19.4801
511 3 -0.121276 7.19607 21.2418
1628 2 1.68631 3.54447 19.4145
2129 2 0.00445947 5.11895 19.5344
2631 2 0.142394 3.70969 21.3829
3130 2 1.70375 5.48255 21.2779
3631 2 1.85474 7.09436 19.5407
507 2 3.57545 3.75175 21.1074
513 1 7.01733 7.07498 21.3613
66 3 3.45075 5.30848 19.615
1133 2 5.3887 5.38759 21.2769
1631 2 5.3683 7.09918 19.4371
2130 3 7.16572 5.37642 19.6445
2637 1 3.72493 7.35477 21.0861
2633 2 6.99102 3.5137 21.3641
3629 1 5.18601 3.41175 19.7489
1629 2 8.69169 3.39678 19.6711
3132 3 8.61256 5.27057 21.2266
3632 1 9.03328 7.13254 19.649
509 1 10.6438 3.46192 21.3397
515 2 14.1692 7.21183 21.3794
67 3 10.6972 5.20216 19.6913
1135 1 12.4802 5.408 21.4342
1632 1 12.3832 7.14646 19.6844
2131 3 14.1076 5.42178 19.5979
2639 1 10.8754 7.25127 21.2882
2635 2 14.0175 3.55729 21.4731
3630 3 12.5474 3.52911 19.6426
824 2 17.4765 7.13548 21.4778
1630 1 16.0144 3.68088 19.6096
2316 3 17.8474 5.41912 19.5166
2506 2 17.85 3.54389 21.3401
3134 2 15.83 5.22259 21.409
3633 1 16.2749 7.04258 19.6051
68 1 -0.0875088 8.88772 19.4178
1137 3 1.74091 8.89573 21.271
69 1 7.2442 8.97255 19.6199
2132 2 3.45926 9.00226 19.3955
3136 2 5.37472 8.98906 21.4911
1139 1 8.91274 8.93853 21.7759
70 2 14.3423 8.86707 19.5243
2133 2 10.5745 8.98201 19.655
3138 1 12.5315 8.89428 21.2806
318 2 17.7678 8.97446 19.7116
1141 2 15.7925 9.01278 21.4447
521 3 -0.157094 14.1237 21.3426
1633 2 1.77385 10.6188 19.4378
2134 3 -0.248611 12.3809 19.5011
2641 2 -0.151473 10.5322 21.292
3140 1 1.48863 12.2667 21.192
3636 3 1.71804 14.2834 19.654
517 3 3.43213 10.7512 21.2887
523 2 7.20791 14.347 21.2539
71 2 3.31416 12.4466 19.5276
1143 3 5.30204 12.5891 21.2546
1636 3 5.37947 14.1146 19.4213
2135 2 7.06016 12.4911 19.5698
2647 3 3.22747 14.055 21.607
2643 2 6.9316 10.7508 21.4123
3634 3 5.44112 10.6433 19.639
1634 2 8.81182 10.6165 19.8385
3142 1 8.70409 12.552 21.4214
3637 1 8.84082 14.3489 19.7477
519 1 10.4861 10.6888 21.4691
525 2 14.0565 14.1892 21.4007
72 3 10.5501 12.5957 19.7204
1145 3 12.3765 12.4582 21.6201
1637 1 12.3687 13.9358 19.889
2136 3 14.3557 12.2804 19.573
2649 2 10.4299 14.2739 21.4285
2645 2 14.2066 10.8612 21.4572
3635 2 12.4996 10.5169 19.5626
834 2 17.7639 14.5205 21.2129
1635 2 15.9395 10.7367 19.4655
2321 1 17.8384 12.4922 19.8811
2516 2 17.4377 10.6369 21.4112
3144 1 15.9219 12.5176 21.3952
3638 3 16.0528 14.3881 19.69
689 1 0.281544 17.7864 21.6447
73 1 0.10947 15.846 19.5513
1147 3 1.69727 16.2034 21.6081
3751 2 1.98699 17.6238 19.4823
691 2 6.96714 17.6968 21.3443
74 2 7.03063 15.8987 19.5493
1501 2 5.24771 17.6099 19.5233
2137 1 3.49651 16.0161 19.7622
2752 2 3.63726 17.7763 21.447
3146 1 5.17461 15.9378 21.3436
1149 2 8.9612 16.19 21.472
3752 1 9.02822 17.6801 19.6512
693 1 14.3197 17.8667 21.5312
75 3 14.1579 15.9979 19.7624
1502 2 12.5393 17.8493 19.6872
2138 1 10.7786 15.9991 19.5924
2754 3 10.6032 18.0015 21.2686
3148 2 12.148 16.1221 21.4544
939 2 17.8351 17.6809 21.3304
323 1 17.5384 16.1837 19.6072
1151 1 16.0122 16.079 21.2173
3753 2 15.9718 17.772 19.6961
1638 2 1.65137 -0.204314 23.1562
2139 1 0.150016 1.73262 23.2526
2651 3 0.0402772 -0.22575 24.9906
3150 1 1.87131 1.6349 25.1725
526 2 7.23925 0.0375524 24.7878
77 3 5.2904 1.82013 24.8116
76 3 3.46977 1.72154 23.0963
2140 2 7.06659 1.86148 23.0909
3640 2 3.67793 -0.0367098 24.9816
3639 1 5.37553 -0.020561 23.3879
1152 3 8.95554 1.91791 25.1351
1639 2 9.12811 0.0755544 23.1735
78 2 10.3889 1.94089 23.1973
1640 2 10.67 0.03368 24.7109
2142 2 14.26 1.90333 23.1813
2141 3 12.4946 1.70684 24.7568
2652 1 14.2211 -0.0877025 24.7378
3641 2 12.6889 0.00698 23.2231
1641 2 15.972 0.108392 23.1398
2326 3 17.7887 1.85286 23.2094
2526 1 17.6775 0.115944 25.0125
3151 3 15.8477 1.80428 24.9361
528 1 -0.144163 7.20277 25.1042
80 3 1.74281 5.09038 25.0078
79 1 -0.106959 5.32798 23.1173
1645 2 1.64048 7.23767 22.9762
3643 2 -0.0190369 3.66599 24.9678
3642 1 1.75039 3.62179 22.9995
527 3 3.58446 3.65037 24.9355
81 3 7.20955 5.40614 23.1816
1153 3 5.15222 5.44527 24.8534
1646 1 3.35567 7.31633 25.2529
1643 2 7.07561 3.61786 25.0003
1642 1 5.1953 3.55805 23.2083
2143 3 3.32006 5.27631 23.1388
2654 3 6.99902 7.02085 24.9943
3647 2 5.10653 7.00793 22.9872
1647 3 8.88569 7.02988 23.0608
2144 3 8.82042 5.49972 25.1699
3644 1 8.96692 3.75475 23.3328
529 3 13.9426 7.09246 25.0634
82 2 14.0502 5.53095 23.1106
1644 1 12.2554 3.61052 23.3088
2145 3 10.6734 5.36115 23.1948
2653 1 10.6777 3.62226 25.0237
3152 2 12.4687 5.34529 25.1212
3649 2 10.5913 7.14959 25.0061
3648 1 12.4701 7.09967 23.3376
3646 2 14.3252 3.84524 25.0392
841 3 17.8061 7.08291 24.9911
329 2 17.7345 5.42695 23.3596
83 1 15.9176 5.43338 25.2694
1648 1 15.6567 7.01165 23.2969
3893 2 17.6389 3.6206 25.1071
3645 1 16.0602 3.51703 22.9029
1154 2 1.66237 8.94446 24.9674
2146 3 -0.263527 8.78937 23.0964
84 3 3.39368 9.0573 23.028
2148 2 6.78433 8.89448 23.2495
2147 2 5.22254 8.73877 25.0919
3153 1 8.77351 9.00324 24.9091
86 1 12.3746 8.90398 25.2502
85 2 10.5106 8.94021 23.2882
2149 2 14.113 8.84828 23.3242
1155 2 15.7322 8.60528 24.9643
2333 1 17.584 8.95925 23.05
87 2 0.0360211 12.2393 23.0147
1653 1 1.62897 14.1733 23.2652
1649 1 -0.36961 10.6917 24.5814
2150 3 1.7217 12.4596 25.0559
2656 1 -0.162625 14.339 25.1983
3650 1 1.43964 10.3444 23.1813
531 2 7.09662 14.3157 24.8847
88 3 7.01921 12.6 23.2898
1650 1 5.16273 10.8896 23.114
2151 2 3.52646 12.379 23.1982
2655 2 3.42009 10.7858 25.0296
3154 2 5.21089 12.4739 24.8312
3655 2 3.48116 14.4133 24.7585
3654 1 5.20202 14.3555 23.1276
3652 3 7.13938 10.7978 24.8743
89 2 9.14484 12.8045 24.8204
1654 1 8.60966 14.2328 23.0368
3651 1 8.70603 10.7804 23.2133
530 2 10.7615 10.6977 25.1486
90 1 14.1473 12.472 23.246
1156 3 12.2623 12.4996 24.9508
1655 2 10.766 14.5222 25.2639
1652 2 14.1107 10.5931 25.0338
1651 3 12.2528 10.775 23.203
2152 3 10.7424 12.579 23.1904
2657 3 13.9962 14.4686 25.2244
3656 3 12.6627 14.522 23.1574
337 1 17.799 12.5621 23.0211
1837 2 17.6906 10.6882 24.7382
1656 3 15.9754 14.2981 23.1807
2153 3 16.0803 12.6596 24.9458
2531 2 17.7678 14.2764 24.7641
3653 2 15.8655 10.8993 23.3201
1513 3 1.69613 18.0019 23.4251
2154 2 0.0869599 15.9514 23.2094
2776 1 -0.118842 17.7434 24.8608
3155 3 1.73335 15.9665 24.9741
714 2 7.16848 18.1108 24.9662
92 1 5.65482 16.1745 24.8222
91 3 3.40069 16.1519 23.2032
2155 2 7.13084 16.0796 22.9283
3765 1 3.5496 17.8899 25.3097
3764 2 5.37495 17.9499 23.1992
1157 2 8.75734 16.1549 24.933
1514 1 8.71634 17.9433 23.1818
93 1 10.5242 16.1537 23.1423
1515 1 10.7666 17.8514 24.9327
2157 1 14.2819 16.1338 22.952
2156 3 12.3945 16.3002 24.7458
2777 2 14.0399 17.8387 24.75
3766 1 12.353 17.8826 22.9247
1516 3 16.0799 17.7205 23.0194
2341 3 17.72 15.9618 23.1324
2963 1 17.8157 17.5402 24.946
3156 3 15.7591 16.1122 25.0875
94 1 0.258655 1.87942 26.7441
3657 3 2.04269 -0.0419595 26.6857
533 1 5.25425 -0.061775 26.8131
1159 3 3.77679 1.81382 26.7729
2159 3 6.95616 1.55517 26.5804
1658 1 8.91818 0.101043 26.7833
97 3 14.2101 1.64045 26.7383
2659 3 12.3479 0.222575 26.6627
3158 2 10.6133 1.89746 26.7906
344 2 17.6219 1.89797 26.7799
3660 3 15.9847 0.104872 26.6037
536 2 1.82181 3.54045 26.7415
1162 1 -0.2394 5.2783 26.6884
1664 2 1.569 6.87743 26.8963
1661 1 5.32407 3.54005 26.6069
2162 2 3.48185 5.54387 26.6433
2665 2 5.2084 7.00754 26.7479
3161 2 7.0122 5.32773 26.7942
2662 1 8.92083 3.64087 26.8339
3666 2 8.65592 7.29663 26.7017
542 1 12.25 7.06922 26.7697
100 3 10.6021 5.5597 26.8171
1165 2 14.0097 5.29607 26.9819
3663 3 12.414 3.35155 26.9557
539 2 15.7972 3.56991 26.8883
1349 3 17.7655 5.4493 26.926
1667 3 15.8189 7.30488 26.7428
2165 3 0.037266 8.96455 26.7733
103 3 6.98265 9.05942 26.6574
3164 2 3.61511 8.82932 26.7975
1168 3 10.5273 8.79235 26.7456
2168 2 14.1471 9.20481 26.8366
2352 1 17.7065 8.7966 26.8472
2668 3 1.87948 10.6083 26.7866
3167 2 -0.0837673 12.4301 26.7811
3672 2 1.93908 14.3048 26.8399
548 2 5.31484 14.2829 26.8555
106 1 3.50133 12.6289 26.6191
1171 1 7.05609 12.5614 26.7315
3669 1 5.44982 10.6547 26.7692
545 2 8.70725 10.5934 26.9327
1673 1 8.76266 14.2217 26.6927
1670 3 12.3174 10.6676 26.9615
2171 2 10.4944 12.3854 26.9127
2674 1 12.4186 14.4363 26.919
3170 3 14.1351 12.4144 26.4734
2671 1 15.9452 10.4769 26.7796
3417 3 17.5161 12.3528 26.8208
3675 1 15.8933 14.3664 26.9021
109 1 0.0140128 16.3512 26.6523
3782 3 1.71058 17.9592 26.6769
721 2 5.37074 18.0501 26.8777
1174 3 3.54731 16.0621 26.8845
2174 2 6.90226 16.2678 26.6939
1533 1 8.87343 17.7115 26.8707
112 2 14.2403 16.2684 26.9907
2784 2 12.0768 17.7666 26.6586
3173 1 10.5509 16.1654 26.6677