ITEM: TIMESTEP
5000
ITEM: NUMBER OF ATOMS
4000
ITEM: BOX BOUNDS pp pp pp
-8.4028834564488619e-02 3.5561808834564516e+01
-8.4028834564488619e-02 3.5561808834564516e+01
-8.4028834564488619e-02 3.5561808834564516e+01
ITEM: ATOMS id type x y z
3063 3 1.58173 1.53865 3.29374
3740 2 5.37008 17.521 16.0834
3615 2 5.03945 0.0740486 16.041
1719 2 1.71508 17.7651 8.63697
1 3 3.40159 1.85838 1.657
1065 3 5.245 1.84618 3.43549
2065 1 6.98837 1.59884 1.78751
3065 1 9.08558 1.67685 3.71225
573 3 -0.0477177 7.02838 0.0374762
2 1 10.8129 1.83052 1.67976
2066 1 14.3082 1.67856 1.7601
1566 1 12.4302 3.44411 1.85579
3067 3 16.0135 1.7712 3.62751
771 1 17.7253 13.865 -0.125686
2577 2 10.4739 7.02271 0.0656184
583 3 -0.0441482 13.8847 -0.0764
3564 3 1.72845 3.51322 1.828
2036 3 17.8088 5.13202 12.3943
1594 3 1.57983 0.0739638 8.51788
1069 3 1.83089 5.20564 3.6715
2567 3 3.4405 3.33939 3.46601
1564 3 5.15474 3.41731 1.52611
2067 1 3.56918 5.40619 1.76499
3566 2 8.87449 3.31171 1.68024
4 1 7.21483 5.24985 1.55943
568 3 7.1152 3.60068 3.4358
578 3 3.58744 10.4493 0.0342327
2068 1 10.5812 5.01954 1.49012
3071 3 12.5835 5.48515 3.35655
2578 2 14.2905 6.98091 3.4341
572 2 14.3922 3.44422 3.43224
5 1 14.1888 5.1217 1.77618
3568 1 16.0141 3.52549 1.6936
625 1 14.4132 14.1207 14.1173
1073 2 16.066 5.21029 3.66602
1074 1 1.63739 8.77537 0.189952
1568 2 1.88495 7.0026 1.82312
3073 2 1.61675 8.6667 3.55582
3565 3 5.16843 0.00625669 1.66589
574 1 3.47566 7.02713 3.58857
3569 2 5.40742 7.12164 1.89015
6 2 3.72466 8.88087 2.06096
1571 2 5.20199 10.6577 1.60648
2070 1 7.08719 9.19546 1.65136
1569 1 8.85537 7.24875 1.78205
7 1 10.6936 8.69651 1.51203
576 2 10.7339 6.92989 3.43743
3572 1 8.8398 10.6059 1.55674
2576 3 7.05722 7.32042 3.53605
3075 2 9.07031 9.14808 3.42047
585 2 6.87655 14.1772 0.00941884
3570 1 12.5969 7.10945 1.70083
1572 3 12.4927 10.6382 1.59317
582 1 13.9201 10.402 3.42459
1077 3 12.306 8.71505 3.40779
2071 3 14.2815 8.77349 1.39116
1570 1 15.8063 6.90407 1.57689
3573 3 15.952 10.6558 1.83404
633 2 10.5787 17.5066 3.41792
689 1 3.37242 17.6268 17.5984
3571 2 1.46988 10.4353 2.01739
1573 2 1.72521 14.0124 1.67524
511 1 3.38205 7.3305 17.6417
565 1 3.39988 0.0477587 3.37529
3837 2 17.6315 10.4893 6.82969
2072 2 3.43085 12.4295 1.77068
3574 2 5.25863 14.2746 1.7471
9 2 7.0093 12.4235 1.87988
1081 3 8.7929 12.5099 3.61655
1574 1 8.60619 14.1522 1.50138
3070 2 8.78599 5.48595 -0.0956452
2073 3 10.6357 12.4094 1.87768
3081 1 12.4313 12.5901 3.34615
2721 2 0.217057 17.5518 10.6966
2588 1 14.3363 14.0291 3.53342
10 2 14.2932 12.2063 1.77028
1575 2 16.2414 14.1331 1.71729
1083 1 16.0362 12.3961 3.3695
2581 3 7.08784 10.7594 -0.0680768
1625 2 15.9872 14.1952 16.0906
1563 1 1.67155 -0.0279052 1.77101
2001 1 17.7494 1.51348 1.58809
3083 3 1.71739 15.7031 3.33887
3124 3 12.4767 16.1964 14.3217
784 1 17.7991 3.35863 10.5984
2107 3 0.0342789 12.1203 12.3092
2124 1 -0.0115054 15.598 15.9525
11 2 3.45141 15.9433 1.7318
1085 1 5.05365 16.2458 3.18179
2114 2 0.00619645 1.85072 15.9701
570 3 10.6664 -0.0314969 3.58844
3579 1 8.56326 -0.000484494 5.1143
586 3 10.5531 14.1472 3.75739
2075 2 6.95899 15.957 1.77279
12 2 10.5258 15.816 1.78379
3085 1 8.69146 16.0202 3.52561
303 3 17.7666 5.18544 15.9568
3575 2 12.5516 14.2005 1.8341
1087 1 12.5908 16.023 3.68385
2076 2 14.2175 15.9258 1.74058
3087 1 15.9313 15.8665 3.28511
617 3 14.0639 -0.0352683 14.1136
1089 1 1.60553 1.71549 6.93039
794 2 17.6455 10.7587 10.729
1064 1 1.77416 1.80362 -0.0203592
2715 2 6.90248 17.4674 7.07454
1086 1 8.84833 15.8616 0.119079
1084 2 1.78751 15.7209 0.00747463
2077 3 3.25604 1.85076 5.24707
3577 1 5.31823 3.58329 5.32672
2589 3 3.38057 3.68122 7.14496
14 2 6.9852 1.64635 5.15436
3088 3 8.65889 1.80444 6.70149
3 1 0.0254387 5.39356 1.98516
1067 2 12.4109 1.85726 3.50509
2571 2 10.8603 3.75818 3.2365
2079 2 10.6081 1.69394 5.61569
589 3 10.7307 3.50481 7.13088
3581 1 12.3632 3.38966 5.28458
16 3 12.4267 1.8963 6.88061
1582 3 14.3587 3.54074 7.16807
15 1 14.352 2.09031 5.33867
1583 1 16.1733 3.60745 5.34892
62 2 10.7221 16.0315 15.8733
1088 2 16.0802 16.058 -0.0785444
3625 3 12.3243 14.2697 16.2327
1576 1 1.6766 3.24676 5.26619
1130 3 12.482 1.68926 17.6303
2081 1 1.73001 5.18893 7.03366
2610 3 0.0153813 14.2268 10.6837
3069 3 5.57154 5.42084 3.56696
17 3 3.5263 5.33484 5.43174
3089 2 5.1857 5.25926 7.01846
591 2 7.15264 7.20772 7.04676
1071 3 8.96532 5.5327 3.57118
1580 1 8.68032 3.50195 5.12088
2082 2 7.05586 5.2111 5.31118
3578 2 7.08182 3.40893 6.88165
19 3 8.85286 5.35281 6.86017
18 3 10.5828 5.18582 5.29713
2083 3 14.4217 5.20221 5.10502
2592 3 14.4762 6.7838 6.96408
1586 1 12.4145 7.00708 5.27868
1091 1 12.5972 5.10103 7.0555
628 2 3.23649 17.671 3.70351
2126 2 14.3583 16.1565 15.9987
3586 1 16.0507 6.97333 5.26157
3068 3 1.54383 5.31848 0.177188
3583 2 1.7603 6.90265 5.4444
3098 1 0.0656745 5.23088 8.94521
1134 3 8.8487 5.25175 17.7394
2085 3 3.38429 8.91453 5.4193
1584 1 5.13 7.27168 5.46216
1075 2 5.51256 8.91352 3.62384
3584 3 3.32449 6.96303 7.43392
3585 1 8.85054 7.27019 5.1983
21 2 7.28764 8.98092 5.21948
2582 3 10.8209 10.7169 3.4303
1585 2 10.5694 6.92356 7.00978
2086 2 10.6131 8.8504 5.25589
2593 1 10.846 10.6143 7.16436
2087 3 12.2355 8.68641 7.12031
3077 2 15.9535 8.63302 3.45512
23 3 14.2542 8.80655 5.31385
1624 2 8.89906 14.1998 15.6796
3590 1 14.063 10.5249 7.11191
1079 2 1.63671 12.3223 3.49125
1587 2 1.62548 10.4355 5.36408
2603 3 0.0793196 6.93895 10.751
3591 3 1.81465 14.0815 5.49595
25 1 1.64265 12.1529 7.12874
2580 1 3.72952 10.7647 3.91635
3079 1 5.38159 12.2562 3.66922
24 3 3.47774 12.3905 5.4421
3588 3 5.42972 10.4307 5.30549
1591 2 3.50461 13.9571 7.58229
2586 2 7.23778 14.1874 3.4688
580 3 7.24536 10.803 3.47713
1589 1 9.17013 10.6709 5.43485
2089 2 7.14388 12.3741 5.44963
26 3 11.0391 12.3325 5.4646
3589 3 12.4256 10.4319 5.26398
3092 2 12.4497 12.5465 7.27155
594 1 14.0568 14.1512 7.17366
1590 3 16.0075 10.5117 5.02207
2091 3 14.2547 12.3277 5.41627
2575 1 -0.0768781 6.91317 3.80061
3624 3 5.30994 14.046 15.8616
584 1 3.68302 14.1831 3.47499
2092 2 3.4807 15.9632 5.21569
1592 1 5.1207 14.2302 5.37408
2093 3 5.25189 15.8169 7.00704
2579 3 0.0386689 10.4554 0.152408
1128 3 5.44888 1.87435 17.5455
3592 1 8.65585 14.2152 5.38578
29 2 6.96465 15.9335 5.21279
3093 2 8.68839 16.0873 7.0611
1702 2 3.42496 17.474 6.9379
1704 3 5.17651 17.6434 5.10688
2094 2 10.7457 15.9237 5.36977
1593 2 12.6854 14.0925 5.28508
3593 1 10.5268 14.2999 6.98153
3720 2 1.6447 17.7118 12.452
3594 3 15.9589 13.9353 5.45635
30 2 14.4108 15.9158 5.39522
1095 3 15.797 16.0158 7.17389
781 3 17.7991 14.1986 7.15384
1738 3 1.57558 17.7781 15.8775
3135 1 1.56638 8.79874 17.7722
20 3 -0.00346266 8.61617 5.39989
2595 1 1.68933 3.45796 8.96338
3095 3 1.76043 1.66098 10.5741
3094 3 3.49656 1.82605 8.80351
3582 1 15.8471 0.0210294 5.21532
1136 3 15.9144 5.18769 17.6347
2078 1 5.25336 1.51927 7.02462
1096 2 5.32156 1.73631 10.437
33 2 7.25529 1.59628 8.84331
3096 3 8.86163 1.90379 10.4064
597 1 6.95679 3.56266 10.6996
3704 1 8.74361 17.7197 5.23275
1097 3 10.6496 1.39893 8.65091
1598 3 12.6559 3.45707 8.91251
2098 1 14.1188 1.51481 8.79231
1090 2 16.0047 1.69001 7.01634
1596 2 5.07815 0.0686101 12.0589
2125 1 6.97241 15.851 15.9106
806 3 17.7753 7.01267 14.2878
3602 1 1.66276 7.11742 8.87843
1099 2 1.79814 5.03458 10.6873
1623 2 1.71712 13.9712 15.9988
3596 1 5.29797 3.37241 8.68779
36 3 3.4864 5.10968 9.05312
603 3 5.35038 6.90742 8.72898
2597 1 3.64073 3.54876 10.8114
3099 1 5.3852 5.47157 10.7865
598 3 8.71295 3.79576 8.63886
1100 3 7.21689 5.35596 8.72186
1603 1 9.35133 6.90584 8.82812
2604 3 7.19714 6.88493 10.9268
1101 3 8.86562 5.04311 10.8202
2101 2 10.7802 5.27836 8.71379
2605 3 12.5428 6.96898 8.71057
3100 3 14.321 5.14502 9.01201
604 3 10.6643 6.77498 10.7785
2602 3 16.08 3.36426 8.88445
2084 2 16.1588 5.22613 7.01594
1102 3 16.1118 5.27609 10.7036
3705 2 10.386 17.6375 6.80323
2587 3 10.61 14.115 -0.0553122
3090 1 1.65534 8.80089 6.9111
1103 1 3.50743 8.78342 8.83866
2723 2 5.01214 17.6097 8.64255
22 3 5.54765 9.07469 7.15145
1104 1 5.38877 8.69751 10.7319
2104 3 7.36519 8.62063 9.00874
1092 2 8.94431 8.97368 7.02166
1588 1 7.365 10.468 7.0559
2608 3 8.87369 10.4334 9.13647
3104 3 8.68257 8.54364 10.7911
3103 1 10.3735 8.76037 8.89893
42 2 14.4884 8.61563 8.83275
3091 2 16.035 8.98783 6.94993
3605 1 16.1124 7.03985 8.82503
3105 2 15.9843 8.77086 10.5095
609 2 15.9438 10.4895 8.95256
605 2 1.78152 10.382 8.75165
1107 1 1.85321 12.4046 10.5299
1609 2 1.7232 14.0215 8.678
610 2 3.70464 14.0912 10.3837
592 2 3.54848 10.6316 7.02575
2106 2 3.4646 12.1518 9.08462
1093 3 5.47523 12.3041 7.08828
1606 3 5.30004 10.6246 8.95235
2090 2 9.07908 12.472 7.19582
3106 1 7.03553 12.3346 9.22958
2612 2 7.17028 14.0135 10.746
45 1 11.0523 12.4651 9.13506
3608 2 12.5052 10.4126 8.82765
1109 1 14.2404 12.3675 9.14498
3108 1 12.5029 12.1815 10.8212
27 2 15.8695 12.1785 7.1879
1110 1 15.8204 12.4627 10.8794
2573 2 14.2311 -0.103467 3.55907
61 1 3.40225 15.8339 15.6934
1617 3 15.9209 -0.0270588 15.9397
2123 1 10.594 12.4885 16.1535
1094 1 1.58714 15.98 7.10262
3109 1 3.21979 15.8757 8.96085
3110 1 1.93378 16.0302 10.6549
2594 2 7.05377 14.1559 6.98053
2611 1 5.54458 14.0413 8.8409
1111 1 5.36399 16.0346 10.8451
48 1 7.15433 15.806 8.90881
3121 1 8.88361 12.4664 14.2983
3611 2 8.86848 14.2458 8.93088
1112 2 10.7707 16.0156 8.84342
1581 1 12.6683 0.100091 5.12042
31 2 12.4102 15.905 6.94935
612 2 12.4024 14.2629 9.03081
2113 2 14.1307 16.1132 8.94284
1113 2 12.2573 16.1383 10.5875
2110 1 0.0548541 15.9846 9.02679
1612 2 15.8369 14.2477 8.90448
2625 1 10.8578 14.2533 14.4256
3623 2 16.0572 10.4021 16.0436
2739 2 3.71614 17.6524 14.1578
2095 3 0.00635021 1.76484 8.70178
1595 1 1.67729 3.4184 12.3836
1114 1 1.6487 1.67417 14.065
614 2 3.56609 3.47245 14.046
59 1 6.96527 12.4757 16.0609
2096 2 3.40264 1.69487 12.4324
3597 1 5.29386 3.27234 12.5434
2564 3 3.57026 -0.05154 -0.145304
3113 1 5.26527 1.6058 14.1442
1621 1 5.26377 10.7623 16.1105
34 3 6.89845 1.56351 12.2625
2097 3 10.6701 1.65614 12.2821
2122 3 3.39689 12.2592 15.9736
3692 2 12.487 17.5858 1.91156
601 1 14.2616 3.20088 10.8269
1098 2 12.4353 1.37223 10.436
3600 1 12.3984 3.32993 12.3598
616 3 10.4381 3.50503 14.3423
3097 3 16.208 1.46083 10.6703
35 1 14.3071 1.55964 12.0606
1116 3 16.1501 1.62675 14.0638
615 2 7.0308 -0.0237395 14.1367
39 1 -0.158565 8.71285 9.07164
3603 1 1.86454 6.91929 12.609
37 2 3.45345 5.16668 12.4093
2619 2 3.57532 7.19408 14.1272
602 2 3.36468 7.01606 10.7109
1117 1 5.16646 5.25255 13.9827
619 2 6.94091 6.98618 14.3553
1602 1 5.22734 6.91717 12.5407
2100 3 7.16912 5.29624 12.6111
1597 3 8.79469 3.47044 12.4979
2600 1 10.9397 3.39221 10.3997
3101 2 12.5046 5.21908 10.5947
38 3 10.6168 5.29173 12.5865
2102 3 14.1816 5.2269 12.3009
2623 1 14.1409 10.4457 14.1898
1601 3 15.9489 3.37054 12.2317
3606 1 16.3077 7.03523 12.2014
2618 2 14.2659 3.32396 14.1865
3102 2 1.66194 8.93825 10.6784
1119 3 1.71964 8.70618 14.3009
2103 1 3.66231 8.85016 12.4872
621 3 3.73906 10.6317 14.3372
3607 1 5.45667 10.6348 12.401
41 3 6.95283 8.91408 12.5816
607 3 7.22092 10.5089 10.51
3604 1 8.77071 7.02891 12.645
2105 3 10.6078 8.76135 12.5878
1120 1 8.63784 8.55636 14.1643
2606 3 14.4215 7.00158 10.6988
2609 3 10.8916 10.4171 10.6674
1604 1 12.4606 6.95228 12.4404
1105 3 12.6149 8.61632 10.6788
3609 1 12.4142 10.4266 12.5372
43 2 14.3487 8.53565 12.4127
3078 2 1.81886 12.3543 -0.112295
3587 3 0.0624267 10.2565 7.07412
2584 2 3.48635 14.0616 -0.0452223
1605 3 1.768 10.3748 12.4689
3120 1 1.57292 12.3129 14.1968
2607 3 3.62402 10.2631 10.532
44 2 3.24134 12.4049 12.3094
60 2 14.125 12.5526 15.9658
2622 3 7.06135 10.9246 14.4519
3107 1 5.11113 12.3813 10.6484
1122 3 5.15662 12.3636 14.0048
1108 2 9.02314 12.2824 10.6949
2108 1 7.1938 12.3838 12.3781
1607 1 8.92771 10.57 12.2478
46 2 10.5769 12.6047 12.5093
611 1 10.6799 14.3425 10.8402
1123 1 12.3007 12.4537 14.4525
1611 3 12.4515 14.3845 12.6424
3122 3 16.0232 12.5114 14.0977
2109 2 14.063 12.3055 12.5952
608 2 14.1647 10.427 10.7425
1608 1 16.1305 10.7854 12.4885
1124 1 1.77774 15.9229 14.2054
3610 2 1.52553 14.1438 12.6533
2624 1 3.57794 13.826 14.2894
2111 1 3.33242 15.7804 12.356
3145 1 1.53552 15.9354 17.6088
3123 2 5.18925 15.8537 14.0796
1610 2 4.99399 13.9638 12.4447
49 1 7.18657 15.9893 12.5503
624 3 6.96995 14.2006 14.0636
1125 1 8.72735 15.9539 14.4144
3111 2 8.6547 15.9595 10.7537
3612 3 8.78543 14.129 12.4725
2112 2 10.6427 16.1428 12.5918
50 3 14.1847 16.2274 12.5421
1622 3 12.3124 10.7819 16.2642
1126 2 15.9715 16.1312 14.118
581 3 10.5635 10.8809 0.0261548
8 1 -0.0811857 12.2701 1.95356
2613 2 14.1335 14.2383 10.8069
3112 1 15.8612 16.1953 10.5468
3613 2 16.1138 14.3402 12.42
2121 3 14.1691 8.93646 16.0851
1121 2 16.0174 8.79617 14.2506
51 3 3.35589 1.75961 16.0166
622 3 10.6913 10.4121 14.208
3064 1 5.27356 1.61092 -0.140356
2616 3 7.12181 3.16858 14.2474
1614 3 5.16838 3.54421 15.7572
2599 1 7.2505 -0.00711892 10.6516
1578 2 -0.0936829 3.65652 7.31858
1115 1 8.99233 1.52484 14.0625
2115 1 7.05924 1.43875 15.8991
3616 3 8.8128 3.57956 15.9554
52 3 10.7457 1.59124 15.8909
3114 2 12.359 1.74355 14.0481
2116 1 14.1298 1.48045 15.9593
3618 1 16.0663 3.39955 15.936
1690 2 8.82782 17.5512 1.68621
1688 2 1.81787 17.6977 1.69621
3115 1 1.56184 5.29864 14.2918
3614 2 1.79456 3.74216 15.8338
2117 2 3.53348 5.48054 15.7467
1618 2 1.64917 6.88366 15.934
1142 1 1.70652 12.379 17.7851
54 1 7.07896 5.2955 15.9728
2080 1 0.0505682 5.06188 5.4779
253 2 17.74 5.08889 1.68624
2627 3 3.54307 3.43706 17.7723
3116 1 8.78214 5.44015 14.3249
2620 2 10.5591 7.13069 14.2644
1616 1 12.5032 3.30306 15.7236
2118 3 10.7703 5.21568 15.9029
1118 3 12.5676 5.35324 14.0864
3620 1 12.317 7.02213 15.7064
566 2 -0.0591635 3.55569 3.35437
3622 2 8.92773 10.5807 16.2743
620 2 14.4967 6.87533 14.1696
55 3 13.9725 5.19868 15.8673
1620 3 16.0189 6.93517 16.1327
3117 1 16.0369 5.08202 14.1453
3621 3 1.58994 10.569 16.0099
56 1 3.37153 8.84086 15.8764
57 1 10.6867 8.90324 15.9827
3576 1 1.72161 -0.113963 4.96511
3118 2 5.42856 8.97459 14.4984
3619 1 5.4187 6.89521 15.8818
278 3 17.6431 15.7846 5.35203
2120 1 7.22322 9.00002 16.0531
1619 3 8.76157 7.16979 16.1458
623 2 -0.124803 14.1052 14.2458
3119 2 12.6382 8.64223 14.0904
1080 1 5.3147 12.3031 -0.0155611
590 3 14.1009 -0.0119813 6.97135
1293 1 17.477 12.3584 8.78668
1565 2 9.05342 0.0284906 1.5032
32 2 -0.0162434 1.62856 12.3825
1579 2 5.06319 0.0419613 5.02922
1721 2 5.10428 17.6619 12.4722
3598 2 8.92806 -0.0734384 8.85081
1740 3 8.57359 17.8762 16.0729
1567 1 16.0592 -0.0430751 1.68244
3072 2 15.97 5.08243 0.0861421
2501 3 17.6351 -0.0607971 17.6311
514 1 10.5287 7.16571 17.6985
1146 1 16.1321 12.2197 17.6314
3066 3 12.5199 1.6052 -0.0524243
2572 3 14.16 3.48919 -0.0667943
3086 1 12.3041 15.9143 0.120981
3127 3 8.92443 1.70414 17.4049
2648 2 7.04385 14.1252 17.6831
1140 1 12.1048 8.74268 17.7295
634 3 14.2969 17.6551 -0.0281962
524 2 10.213 14.1751 17.5626
2568 1 7.16692 3.55656 0.0903887
3137 1 8.84533 9.15771 17.8146
1138 2 5.16441 8.76097 17.4855
2574 3 3.71416 7.169 0.237782
3082 1 15.9277 12.3161 0.0220532
1132 2 2.06285 5.30647 17.6765
521 1 3.32528 14.4517 17.6857
520 3 14.2175 10.7222 17.6536
2640 3 14.0758 6.94109 17.5173
587 1 14.1097 14.0095 0.139867
3084 1 5.35117 15.8819 -0.0143656
575 2 6.97248 7.2113 -0.00415434
3149 1 16.284 16.0775 17.6075
1072 2 12.2266 5.27922 -0.0388476
509 2 14.0007 3.50385 17.6362
1082 1 12.4243 12.3613 -0.115256
3129 2 15.9292 1.66486 17.5187
3131 2 5.11647 5.17658 17.6188
1070 3 5.21988 5.28049 0.0927837
3141 2 5.04352 12.5637 17.7641
1127 1 2.00267 1.83279 21.3319
2778 2 7.27058 17.7365 24.996
3133 3 12.2764 5.29368 17.6662
2633 1 10.7123 0.0994493 21.2423
2127 3 3.70176 1.84267 19.5906
2631 3 7.00006 3.68473 21.5132
64 3 6.9099 1.68697 19.4776
3627 1 5.39749 3.49723 19.4184
3630 2 15.8539 0.13998 19.5633
2655 3 14.1774 -0.14702 25.0468
1129 1 8.81077 1.8591 21.0923
2676 3 -0.0681453 0.0827214 32.0401
2361 2 17.5885 15.8489 30.3255
2628 1 3.79465 0.1117 21.3043
1144 2 8.74093 12.4036 17.7977
2128 2 10.6049 1.80452 19.5711
65 1 14.3329 1.78232 19.5889
503 2 0.0220129 0.295187 21.3894
327 3 17.7139 1.69766 26.6642
3792 3 12.1986 17.6956 30.4466
730 3 14.0075 17.7089 28.517
1131 1 16.0221 1.90608 21.3291
3680 3 16.0279 -0.0309478 33.8008
739 1 3.70496 17.6265 31.9027
1626 3 1.66677 3.56097 19.535
504 2 3.7901 3.28973 21.4762
66 2 3.54687 5.18543 19.751
3130 1 1.84579 5.29593 21.4991
77 1 0.0128739 1.86909 26.5785
1631 1 5.22512 6.95676 19.5352
2130 1 6.92898 5.29512 19.4726
2637 3 3.47504 6.9665 21.4865
2661 2 -0.104646 14.274 24.8759
1628 2 8.72255 3.45326 19.5909
3629 2 12.5737 3.64876 19.4817
67 2 10.5878 5.11398 19.486
2131 3 13.9816 5.35268 19.4338
2635 3 14.1617 3.51994 21.1305
1135 3 12.478 5.0303 21.1946
1554 3 12.2207 17.5638 33.9203
1630 3 15.8017 3.6599 19.3075
3633 1 16.0915 7.26886 19.5345
2326 2 17.7384 2.0011 23.3104
2556 3 17.7646 7.11712 31.9636
3631 3 1.71349 7.15839 19.5352
1633 3 1.6436 10.5806 19.5785
2132 3 3.50346 8.94248 19.4515
1137 3 1.74771 8.97336 21.3301
2643 3 7.18353 10.5476 21.4845
513 3 6.95018 7.07579 21.1654
3136 3 5.19429 8.64117 21.1779
3632 3 8.86891 6.86534 19.413
69 2 6.94818 8.78867 19.6553
2133 2 10.778 8.66549 19.6811
1139 1 8.70893 8.4357 21.2507
1632 3 12.3619 6.99644 19.2887
3138 2 12.4528 8.58922 21.3971
70 3 14.1685 8.81229 19.2194
1663 1 1.74499 0.0548277 30.0465
856 2 17.5574 7.01806 28.2262
3636 2 1.85924 14.0916 19.6013
1645 2 12.0818 0.194499 26.6038
63 1 0.13349 1.55355 19.5964
2792 2 10.7835 17.6916 28.1879
3634 1 5.35119 10.528 19.499
71 2 3.36856 12.2683 19.7062
2135 1 6.85405 12.5046 19.7369
1636 2 5.11075 14.4095 19.7353
518 2 7.08349 10.7307 17.7017
1634 1 8.77755 10.8074 19.6092
3637 2 8.76817 14.1374 19.5457
3667 2 12.4626 -0.022557 30.4436
3635 2 12.6027 10.5574 19.4269
2645 1 14.3063 10.469 21.1508
72 2 10.7676 12.6334 19.5171
519 1 10.4888 10.6669 21.1757
2649 1 10.5962 14.1407 21.2885
3147 1 8.68005 15.8354 17.7697
1635 3 16.1681 10.75 19.3707
2136 3 14.5125 12.4853 19.4563
3187 2 16.0688 16.0476 32.1731
2169 3 0.00456231 9.17157 30.2741
3676 1 1.66333 0.202174 33.8139
2139 1 0.0283088 1.66517 23.1142
1147 2 1.69462 15.8999 21.2593
522 1 0.0480411 14.3954 21.1946
816 3 17.7891 0.103255 21.1721
3628 3 8.78225 0.123867 19.5384
2137 2 3.51678 16.0523 19.4618
3146 1 5.12441 15.9658 21.3228
1641 3 5.40297 -0.0707539 26.4986
74 2 6.90792 15.9 19.781
2129 1 0.0480304 5.32749 19.6864
529 2 10.4542 0.00261566 24.7476
1637 3 12.5449 14.4521 19.5342
2138 2 10.5659 15.8532 19.4827
3148 2 12.5744 15.8766 21.3492
2753 3 3.67585 17.7265 20.9483
368 3 17.6527 8.84349 33.7182
75 2 14.4139 16.1821 19.3837
3638 3 16.1727 14.25 19.3386
1151 2 16.1111 15.961 21.3266
2638 1 6.81049 7.15654 17.8026
2164 2 0.167112 1.82062 30.1169
3150 3 1.91823 1.60312 24.8867
1188 3 12.2253 15.933 32.0662
3126 3 5.42115 1.81916 21.409
2671 1 -0.184142 10.8027 28.4786
76 2 3.63823 1.64058 23.2363
2141 1 6.92663 1.73648 23.2039
1152 3 5.27757 1.80656 24.7733
717 1 10.6574 17.6692 24.9119
3643 1 8.9152 3.54733 23.0975
79 3 10.5227 1.67706 23.0331
698 1 14.3699 17.6712 21.3919
558 1 0.0282871 10.7525 32.1137
694 2 7.032 17.7682 21.2114
2504 2 17.7632 3.78838 21.271
3128 2 12.2615 1.59675 21.2234
2366 3 17.6842 5.24095 33.9064
1677 3 5.46055 -0.016781 33.8172
2143 3 14.0004 1.7033 22.9427
3647 3 15.917 3.6219 23.179
3152 1 15.8148 1.76175 24.8699
3639 2 1.80214 3.45299 23.2353
1154 2 1.58881 5.28638 24.8865
1502 2 5.39686 17.7576 19.4481
1640 1 5.42425 3.63441 23.1878
1133 2 5.21138 5.2194 21.6109
2144 2 3.47465 5.07741 23.043
2657 3 7.0716 7.13774 24.9009
83 1 7.07283 5.41163 23.1668
3132 2 8.87532 5.25802 21.4442
2654 2 10.6119 3.42401 24.8959
1155 2 8.90681 5.35128 24.8254
508 2 10.6666 3.25847 21.2167
1644 1 12.3343 3.33749 22.9322
2147 2 10.5038 4.98736 23.134
3154 2 12.3505 4.97054 24.6908
562 1 10.6935 14.3064 32.1229
3134 2 15.7941 5.22081 21.1867
85 1 14.3802 5.39175 23.218
3805 2 15.9861 17.7589 33.817
1648 3 1.61373 7.19121 23.2465
3155 3 1.56806 9.04846 24.9294
86 3 3.51241 8.74339 23.2251
3654 2 1.59212 10.783 23.0105
1517 2 8.78659 17.6338 23.007
3650 1 5.42205 7.20958 23.3549
1157 3 5.29718 8.89665 24.7959
1650 1 8.86064 7.04224 23.2462
2151 1 7.29594 8.84634 23.2771
534 3 6.94576 10.5335 24.9302
2639 1 10.9077 6.89285 21.1001
3652 1 12.4942 6.83835 23.0364
89 3 10.6578 8.7417 22.8502
1158 3 12.3665 8.62634 24.5543
2658 2 14.0329 6.93941 24.7235
2153 2 14.3282 8.71827 22.9054
1141 2 16.017 8.97071 21.3418
515 3 14.0681 6.96338 21.0784
1652 1 15.8218 6.87834 22.9389
535 1 14.1317 10.5597 24.822
3658 2 16.3136 10.7853 23.1584
3157 2 15.7723 8.7549 24.8825
2188 3 10.467 16.019 33.8382
3140 2 1.51704 12.3114 21.3018
2647 1 3.46686 13.8369 21.5322
1687 2 12.5308 14.376 34.053
2154 2 3.47267 12.4957 23.474
517 1 3.39364 10.5447 21.5306
1143 3 5.15107 12.2374 21.527
523 2 7.24249 14.1993 21.4709
1654 3 5.4789 10.5668 23.1528
3158 1 5.46583 12.3831 25.0301
93 1 7.26904 12.3237 23.0343
3142 2 8.85692 12.4671 21.2925
3656 2 9.17049 10.8505 23.1184
2157 2 10.6694 12.5104 23.0671
1160 3 8.8587 12.6086 24.8929
537 1 10.7286 14.1238 24.7953
1145 2 12.3452 12.3753 21.1865
1656 2 12.4855 10.5106 22.7971
3144 3 16.1906 12.5517 21.3182
95 3 14.197 12.5589 22.952
1161 3 16.1537 12.3256 24.9802
1066 1 8.89403 1.79192 35.4531
865 3 17.514 3.32426 31.8335
1658 1 1.52156 14.1475 23.0969
1646 3 16.1511 0.142578 23.0433
3769 1 8.99376 17.5251 26.5924
96 2 3.36413 15.8882 22.782
3660 3 5.18437 14.1956 23.0674
1162 1 5.39963 15.9735 24.5916
505 3 7.24977 3.33732 17.7286
2662 3 7.07499 14.289 24.9748
1149 2 8.8099 15.9216 21.2754
2161 1 7.01691 16.0668 23.2443
1660 3 8.82495 14.1891 23.2371
3161 2 8.8701 15.9801 24.8951
120 2 14.0003 8.65824 33.8601
525 1 14.4545 14.3131 21.3527
3662 1 12.4791 14.204 23.1689
99 2 10.7513 15.8409 23.0278
2163 2 14.2405 15.9779 23.2027
1638 3 1.77629 0.0238444 22.9794
1662 1 16.1046 14.1729 23.1291
3162 3 16.0621 16.1145 24.9239
3181 2 8.69633 8.69512 32.1221
125 1 14.2477 15.832 33.8995
1164 2 1.70612 1.56933 28.3164
3753 2 8.6337 17.4996 19.4407
1642 2 8.62733 -0.0673472 22.9446
2140 3 3.51872 1.47746 26.5771
3642 3 5.02241 3.55679 26.7754
78 1 7.03873 1.83906 26.7499
2652 1 3.59277 3.54936 24.9197
3678 3 8.55752 -0.0770954 33.8217
2184 2 -0.0315709 12.2647 33.891
108 1 -0.0354059 12.5228 30.1827
3151 1 8.93586 1.70155 24.718
1643 2 8.88408 3.37239 26.571
1153 1 12.2841 1.66394 24.999
527 3 0.0467816 3.4586 24.8577
2142 2 10.6171 1.66315 26.779
80 2 14.2313 1.6641 26.9523
3164 1 12.3591 1.76405 28.4295
2540 1 17.7785 3.56395 28.4371
1166 3 16.0119 1.55361 28.5537
1639 1 1.70032 3.56426 26.4165
539 3 3.28072 3.50144 28.4682
3649 1 1.50429 7.19194 26.7826
3165 3 1.82408 5.46001 28.5223
528 2 7.10017 3.59022 25.0495
3153 3 5.21898 5.34733 24.8898
82 3 3.50505 5.37528 26.6234
1167 3 5.21803 5.4505 28.4936
1649 3 5.26877 7.11835 26.706
2666 3 6.97833 3.56568 28.4845
2146 1 7.0977 5.1779 26.7819
3651 2 8.65035 6.89349 26.8199
532 2 10.6401 7.02641 24.7575
3646 2 12.4184 3.50085 26.7908
84 1 10.7607 4.95447 26.5917
2148 1 14.2652 5.31725 26.693
1168 2 12.2121 5.18397 28.4356
530 3 14.1793 3.48812 24.8119
1156 2 15.9699 5.39236 24.9085
1647 3 15.9288 3.40495 26.8108
3167 2 15.9256 5.30737 28.6331
2668 3 14.1751 3.53652 28.5835
545 2 14.0433 6.8051 28.4356
2687 2 7.27143 14.12 31.8865
3186 3 8.87177 15.9908 32.1828
531 1 3.51752 7.04171 24.9864
1169 3 1.75267 8.87362 28.2424
1653 3 1.63469 10.7649 26.4913
2669 2 3.48775 7.20529 28.4691
2150 3 3.59651 8.78837 26.7066
88 1 7.12367 9.0016 26.5368
2672 2 7.15121 10.3911 28.4462
546 2 3.3315 10.7764 28.2066
3655 2 5.36369 10.6284 26.8957
3168 1 5.33958 8.82666 28.5558
3156 2 8.9896 8.69339 25.0809
1655 3 8.8843 10.6802 26.6789
1170 3 8.99353 8.81444 28.3567
1651 3 12.2544 6.84883 26.5627
2152 1 11.0612 8.75992 26.6317
3169 2 12.2096 8.85617 28.513
2670 2 10.5821 7.05163 28.5073
124 2 7.04896 16.1253 33.8089
3653 1 15.7832 6.97061 26.5316
90 2 14.0684 8.85202 26.5904
1171 2 16.0624 8.81202 28.2651
1159 2 1.5485 12.364 24.8287
3170 2 1.76589 12.3536 28.225
3659 2 1.81728 14.4044 26.6834
2659 1 3.64601 10.6609 25.0409
92 2 3.45615 12.5534 26.496
1659 2 5.33008 14.2795 26.3828
1172 1 5.32816 12.4046 28.3519
2674 2 3.60229 14.3015 28.2659
2156 2 7.04792 12.399 26.6802
3661 1 8.94908 14.2553 26.6719
2660 1 10.7265 10.538 24.8608
3159 3 12.5242 12.4643 24.7886
3657 2 12.4776 10.546 26.6056
94 2 10.6671 12.4304 26.6755
1661 1 12.6811 14.2307 26.5585
2158 3 14.1114 12.3813 26.7797
547 3 10.5734 10.513 28.322
1150 3 12.3714 15.8997 17.7669
2673 2 14.1137 10.5231 28.523
1657 3 16.0536 10.4122 26.6873
3641 3 5.58018 -0.0773572 23.238
538 3 0.0368364 0.119423 28.0681
2758 1 10.6459 17.7617 21.3618
3160 1 1.46885 16.1388 24.7236
1174 1 1.66853 16.1299 28.267
536 2 3.62998 14.2401 24.8642
2160 3 3.62236 16.0238 26.4373
1504 1 12.2958 17.5265 19.619
98 2 6.88048 15.9041 26.7048
2663 3 14.3738 14.1815 24.7479
2162 3 10.8359 15.9304 26.5188
1163 3 12.4147 15.9054 24.8921
3174 1 12.2974 15.7232 28.4763
100 1 14.1809 15.6591 26.8662
2675 2 10.56 14.075 28.445
2664 3 3.49871 -0.0407617 28.5053
3663 3 15.9509 14.1432 26.5894
119 3 7.03856 8.82867 34.0154
3175 2 1.60126 1.79274 32.1405
1538 3 1.81988 17.7206 30.1427
3163 1 5.18308 1.74023 28.6458
101 3 3.54454 1.86949 30.2514
1177 1 5.27163 1.91037 32.0932
1165 1 8.93495 1.73169 28.6449
2165 3 6.79334 1.71452 30.089
3176 1 8.65239 1.797 31.9314
3666 2 8.6971 3.65935 30.3373
526 1 3.6482 0.00198064 24.9461
102 2 10.6744 1.77075 30.3077
2166 2 14.2784 1.69293 30.3289
1666 1 12.4282 3.44723 30.2449
3766 1 5.26142 17.768 22.9449
3177 3 16.0221 1.4943 31.9161
1187 1 5.54193 15.7195 31.9421
3664 1 1.93361 3.78882 30.1932
1179 3 1.79803 5.36261 32.1668
2167 1 3.5715 5.60856 30.2235
1664 3 5.09197 3.74193 30.2618
3669 2 5.2184 7.23946 30.2625
3166 2 8.8739 5.10727 28.4698
104 1 7.05745 5.42272 30.1041
2168 1 10.5221 5.23211 30.3612
541 2 10.4741 3.29013 28.4125
105 1 14.3203 5.30619 30.3339
3670 1 12.3333 7.04851 30.2107
2630 1 7.22151 -0.143897 17.7536
3668 1 15.8811 3.24278 30.0659
1181 3 16.2453 5.33392 32.1081
1148 1 5.45065 15.9261 17.8818
1668 1 1.59524 7.23366 30.2959
3671 3 1.85039 10.5798 30.0372
106 3 3.41597 8.98019 30.2913
3180 3 1.63347 8.98161 32.1223
2684 1 3.62253 10.5847 32.0567
544 2 6.97546 7.19048 28.3341
2170 3 6.97553 8.9295 30.1105
1669 1 8.81674 7.21883 30.0803
3672 1 8.92666 10.7202 30.1183
557 2 10.6333 6.91186 31.8648
2683 3 14.1224 7.07928 32.092
107 1 10.6184 8.62095 30.2679
1183 3 12.3549 8.55333 32.0786
3686 1 1.62253 14.1208 33.8001
1684 1 8.9439 10.5913 33.8359
3182 2 15.9053 8.9899 31.9008
2171 2 13.9588 8.83296 30.1815
1670 1 15.8439 7.24237 30.2003
1184 2 1.71671 12.3368 31.7306
3644 3 8.98496 0.118208 26.4908
1673 2 1.67384 14.0342 30.028
561 1 3.52259 14.0944 32.0893
3183 1 5.35535 12.5103 31.8581
2172 2 3.37765 12.4542 29.933
1671 3 5.06112 10.6456 29.8981
109 1 7.16431 12.1778 30.1919
549 2 7.29274 14.0666 28.4194
559 2 7.03015 10.4642 32.196
3171 1 8.99615 12.6049 28.2941
2173 2 10.3802 12.5185 30.2708
1674 1 8.73291 14.1297 30.2978
1185 2 8.86686 12.2119 32.0588
1173 1 12.2478 12.4338 28.4714
2685 3 10.6202 10.4567 31.9718
1672 3 12.4389 10.571 30.2836
2187 3 3.53387 15.8259 33.8081
550 2 14.1894 14.092 28.5073
110 2 14.2023 12.3194 30.2781
3673 2 15.9408 10.5148 30.1296
3172 1 16.0701 12.2547 28.3336
577 2 14.0578 7.02451 35.4375
3185 2 1.77389 16.0108 32.0413
73 3 -0.058044 16.0833 19.317
3685 3 12.2817 10.6133 33.5773
3674 2 5.48259 14.138 30.0201
111 2 3.46903 15.5692 30.2526
3173 1 5.27685 15.8918 28.2363
1175 3 8.78288 16.0991 28.9323
2175 3 6.9641 15.9167 30.107
318 1 17.7468 8.80379 19.3832
3675 1 12.3413 14.0687 30.0815
112 3 10.6641 15.6748 30.3764
3790 2 5.2231 17.5517 30.2029
122 3 10.7021 12.4934 33.7764
1176 1 16.0515 15.9382 28.4243
1675 1 15.9966 14.0922 30.0638
2176 3 14.1106 15.9474 30.419
1665 3 8.73601 0.0300547 30.1695
2356 1 17.5429 8.72169 30.0135
3684 2 5.3979 10.6057 33.8148
871 3 17.652 10.6854 31.859
2177 2 3.50637 1.67529 33.8788
510 3 14.3671 -0.0551924 21.3094
2667 1 10.7231 -0.0861401 28.7066
2182 2 3.49299 8.73848 34.0487
1685 2 15.9238 10.8203 33.5929
114 3 7.03315 1.80446 33.8277
2185 2 6.84499 12.5399 33.6514
358 3 17.5663 12.2584 30.1751
3687 1 8.7046 14.2734 33.7265
2679 2 10.5027 3.63088 32.0025
1178 3 12.4852 1.84448 32.0756
2178 2 10.3981 1.65098 33.5268
3679 1 12.1721 3.46344 33.8348
1682 1 12.1514 6.92123 33.7247
121 2 3.82414 12.4009 33.9436
115 3 14.0892 1.78706 33.6247
555 3 14.4815 3.47139 32.1392
1680 1 15.92 3.62472 33.841
2186 3 13.9901 12.2289 33.8616
1182 1 5.11355 9.00549 32.019
2677 3 3.56418 3.40841 32.113
1686 2 5.34069 14.2555 33.9668
1676 2 1.73819 3.41564 34.0331
116 1 3.43502 5.4828 33.6638
1186 1 15.961 12.4992 31.9288
2183 1 10.1457 8.53591 33.8363
3178 3 5.32074 5.52081 31.9882
553 3 6.9787 3.84405 31.9716
3677 2 5.26048 3.59181 33.7889
2682 2 6.80784 7.04348 32.1186
2180 1 7.05075 5.33623 34.0756
1678 3 8.9308 3.56916 33.6568
1180 2 8.63976 5.509 32.0622
117 1 10.7596 5.22398 33.603
3682 1 8.72017 6.91214 33.7305
560 1 13.9301 10.3551 32.1974
3179 2 12.5371 5.21383 32.0393
3688 2 15.7868 14.0234 33.8143
3683 1 16.1165 7.04368 33.5276
2181 1 14.1996 5.26771 33.8116
2145 2 0.0667875 5.40438 26.7461
1683 2 2.11731 10.9194 33.9992
3681 1 1.85016 7.16107 33.8947
556 3 3.37166 7.37512 31.9607
2688 1 14.2043 14.3221 31.9286
3184 3 12.3256 12.5351 32.0284
1681 3 5.19954 7.23901 33.7294
2629 2 0.0549341 3.39061 21.3694
742 1 10.5293 17.694 32.0193
2805 1 14.199 17.62 32.1064
540 3 7.17231 0.0696296 28.382
2815 3 17.7161 3.55823 35.4723
551 3 3.47493 -0.040786 32.086
3755 2 16.0573 17.6266 19.7759
506 3 7.09096 0.0423374 21.3957
552 1 -0.0124363 3.74832 32.0678
2665 3 0.101879 3.69563 28.6266
2174 1 -0.0957198 15.8555 30.3792
2159 2 0.027693 16.1603 22.9787
118 2 0.0961345 9.02465 33.808
840 1 17.6634 3.57255 25.0015
2179 3 0.101432 5.21627 33.939
2681 2 0.161525 7.21428 32.0987
347 3 17.6034 15.9058 26.564
2651 2 0.118259 -0.0199632 24.8469
123 3 -0.125677 15.9176 33.8521
512 1 -0.0930409 7.22172 21.5071
3076 3 12.2292 8.84592 35.345