ITEM: TIMESTEP
5000
ITEM: NUMBER OF ATOMS
4000
ITEM: BOX BOUNDS pp pp pp
1.6120260750189175e-01 3.5572857392498406e+01
1.6120260750189175e-01 3.5572857392498406e+01
1.6120260750189175e-01 3.5572857392498406e+01
ITEM: ATOMS id type x y z
563 3 0.248404 0.0768178 0.204836
1064 3 1.84624 1.8986 0.32171
1563 2 1.89797 0.121739 1.98838
2064 2 0.0724068 1.93203 2.02724
1 3 3.71185 1.83156 2.02863
565 2 7.23962 0.129989 0.188399
2065 1 7.34019 1.81523 2.01199
2565 3 3.75122 0.236437 0.254957
3064 2 5.48789 1.98892 0.130238
3564 3 5.37916 0.14443 2.12514
2 3 10.795 1.8733 1.92548
1066 3 9.023 1.90572 0.103481
1564 3 9.01919 0.105772 1.8793
2566 3 10.8532 0.100315 0.0244131
567 2 14.3405 0.197274 0.238311
2066 2 14.3503 1.87507 1.99816
3066 2 12.4704 1.87953 0.253027
3565 1 12.4963 0.275093 1.85867
751 3 17.899 0.189268 0.216411
1068 3 16.1418 1.83612 0.255987
1565 1 16.1084 0.104417 2.07298
2001 1 17.7162 2.02044 1.96796
3 1 0.172812 5.5455 2.10378
573 3 0.297333 7.2077 0.139447
1568 1 1.91489 7.36045 1.92497
2569 2 0.139734 3.73451 0.248171
3068 3 1.95457 5.43555 0.276955
3566 1 1.9986 3.63041 1.93098
4 3 7.22609 5.39859 1.89192
569 3 3.75239 3.70739 0.191493
577 3 7.17658 7.31098 0.19971
1070 3 5.44953 5.26581 0.171659
1566 1 5.38786 3.70466 1.92941
2067 3 3.64567 5.56829 1.98471
2576 1 3.72913 7.26805 0.096559
2571 3 7.23027 3.59275 0.165602
3570 3 5.42843 7.32256 1.86144
570 2 10.9072 3.50605 0.150551
1570 3 9.05013 7.24547 1.75148
2068 3 10.7737 5.43171 1.81119
2578 2 10.8622 7.35876 0.17859
3070 3 8.88478 5.32489 0.110837
3567 2 8.94791 3.63198 1.88414
5 1 14.4398 5.552 2.0349
581 2 14.1994 7.26934 0.113086
1072 2 12.5087 5.58708 0.0778987
1567 3 12.4808 3.69994 1.83141
2573 3 14.267 3.76772 0.202086
3572 3 12.5659 7.2371 1.98099
253 1 17.6281 5.32776 1.84326
761 1 17.6826 7.39814 0.228245
1572 3 16.0827 7.35265 1.97582
2819 2 17.7791 3.63947 0.192175
3072 3 16.0708 5.54635 0.145804
3568 1 15.9951 3.71839 2.13814
1074 2 1.85883 9.04998 0.0392809
2069 1 0.15477 8.90526 1.95739
2574 2 0.102529 10.8026 0.367073
3569 1 1.83527 10.5492 1.74031
6 1 3.60534 8.89014 1.97586
575 3 3.67548 10.666 0.0948725
1569 1 5.42429 10.7634 1.92921
2070 2 7.30618 9.02877 1.95354
2579 2 7.24614 10.7192 0.0679886
3074 2 5.53408 8.96415 0.0800606
7 3 10.7995 8.96892 2.01996
578 2 10.7494 10.8195 0.28839
1076 2 8.91044 8.93083 -0.0102582
3571 2 8.98654 10.6307 1.84328
1571 1 12.6163 10.9605 1.97657
2071 1 14.5086 9.02788 2.0304
2582 3 14.3173 10.7756 0.15676
3076 2 12.5527 9.04777 0.167917
1078 2 16.0467 9.11173 0.196399
2006 2 17.775 9.0278 1.95812
2825 1 17.6879 10.8147 0.248709
3573 2 15.9547 10.8911 1.90044
8 2 0.0681649 12.6587 1.9496
583 3 0.0400488 14.3974 0.142594
1573 3 1.89706 14.2081 1.95511
3078 1 1.99889 12.5301 0.0367411
9 3 7.17849 12.5234 2.07565
585 1 7.12066 14.2862 0.155607
1080 3 5.39695 12.4696 0.050296
2072 3 3.58089 12.5279 1.96818
2585 3 3.73432 14.2892 0.144955
3574 3 5.36835 14.2279 1.98344
1574 1 9.14504 14.2949 2.01243
2073 1 10.7704 12.516 2.00515
2586 1 10.725 14.3274 0.0166086
3080 3 8.98016 12.5636 0.131347
10 2 14.1744 12.6655 1.86766
587 2 14.3325 14.3868 0.108799
1082 3 12.4594 12.5536 0.145902
3575 3 12.5681 14.1939 1.95548
258 3 17.8506 12.6598 1.89979
771 1 17.8459 14.35 0.157028
1575 3 16.1072 14.3143 1.90702
3082 2 16.0276 12.5212 0.126448
626 2 0.150844 17.8774 0.120972
1084 2 1.9374 16.0176 0.2054
1688 3 2.00283 17.9445 1.92652
2074 1 0.26578 16.1444 1.99826
11 2 3.67626 16.0906 1.87616
630 3 7.19689 17.8029 0.169577
2075 2 7.30251 15.9581 1.96432
2691 2 3.60472 17.812 0.190575
3084 3 5.51841 16.1231 0.0764924
3690 2 5.37833 17.7627 2.03245
12 2 10.6881 16.0162 1.92369
1086 1 8.95082 15.9353 0.175724
1690 2 8.96839 17.6956 1.77345
2693 1 10.8058 17.9391 0.0115253
634 3 14.3368 17.8584 0.0829505
2076 1 14.3279 16.0623 1.91472
3086 2 12.4408 16.1286 0.260689
3692 2 12.5246 17.9001 1.9175
876 1 17.86 17.887 0.142202
1088 2 16.1034 16.0438 0.196423
1692 2 16.0787 17.8454 1.89973
2011 2 17.7874 16.0554 1.76584
13 2 0.0678488 1.93388 5.54722
588 1 0.0936593 0.0911283 7.30081
1089 1 1.90323 1.92512 7.34175
2564 2 0.181296 0.0566843 3.7104
3063 1 1.84946 1.95362 3.81287
3576 2 1.84704 0.339108 5.43998
14 1 7.27288 1.93744 5.4186
564 3 3.63029 0.227875 3.69708
1065 1 5.5026 1.91533 3.65711
1577 3 3.81627 0.217788 7.23642
1576 3 5.56569 0.0820951 5.37809
2078 2 5.61484 1.90749 7.30411
2077 1 3.826 1.90425 5.44722
2589 1 7.30044 0.11671 7.25609
2567 3 7.4434 0.0854282 3.7033
566 2 10.6894 0.0447011 3.62717
2079 1 10.719 1.94669 5.39996
3065 1 9.15217 1.89186 3.63963
3088 2 8.89224 2.08186 7.29995
3578 2 10.6621 0.0367519 7.45539
3577 3 9.01351 0.0551099 5.48924
15 3 12.4963 1.92321 7.19591
16 2 14.3406 1.9282 5.43969
589 1 14.3379 0.15298 7.13376
1067 1 12.427 1.86554 3.94072
1578 2 12.4944 0.0582005 5.3959
2568 3 14.2489 0.155873 3.70606
263 3 17.6971 1.92125 5.40937
776 1 17.8075 0.275569 7.05415
1090 3 16.0946 1.90507 7.08088
2815 2 17.8693 0.121602 3.60783
3067 3 15.9781 1.90972 3.69094
3579 1 16.0373 0.0992438 5.35332
568 3 0.118716 3.69415 3.8881
1069 3 1.96538 5.40121 3.74035
1580 3 0.169921 3.69117 7.26497
1579 2 1.917 3.61305 5.40044
2081 3 1.9127 5.44382 7.22127
2080 3 0.229777 5.58703 5.57702
2591 1 0.330597 7.27029 7.29903
2575 1 0.317486 7.21356 3.73957
3583 2 2.05591 7.15181 5.44512
17 1 3.64496 5.28392 5.44512
571 2 7.24714 3.64011 3.64901
592 3 7.20711 7.21829 7.36602
576 1 3.83289 7.33528 3.63262
1585 3 5.42418 7.27522 5.56395
2082 2 7.13068 5.5509 5.4339
2590 2 3.63649 3.52828 7.19843
2580 3 7.2526 7.23035 3.6353
2570 2 3.76858 3.66047 3.68886
3069 1 5.59718 5.4559 3.71726
3089 2 5.33247 5.36072 7.2759
3586 2 3.54913 7.16396 7.28804
3581 1 7.21326 3.7901 7.20458
3580 3 5.50337 3.59008 5.5307
18 3 10.8344 5.55737 5.36595
19 2 8.93345 5.49157 7.34379
590 3 10.8142 3.7502 7.19329
579 1 10.7883 7.24805 3.627
1071 3 9.04138 5.35824 3.6893
1587 1 10.8241 7.25747 7.15335
1581 1 9.01036 3.89729 5.60905
2572 1 10.7126 3.64266 3.67117
3587 1 9.00889 7.06986 5.42547
572 2 14.3011 3.74296 3.69339
1091 1 12.7356 5.5476 7.14382
1589 1 12.5985 7.4138 5.52983
1583 2 14.3585 3.71969 7.25032
2083 2 14.4143 5.54613 5.45083
2593 2 14.2773 7.20661 7.20398
2583 2 14.3387 7.27144 3.67891
3071 3 12.5529 5.38664 3.57022
3582 3 12.534 3.65757 5.46582
757 3 17.8244 3.69974 3.87319
1073 2 16.0329 5.57584 3.67648
1768 2 17.8183 3.58766 7.14304
1582 1 15.9378 3.76012 5.42236
2084 3 16.0044 5.39735 7.30242
2017 2 17.8381 5.57088 5.58482
2841 1 17.9707 7.31498 7.18922
2826 3 17.8648 7.2251 3.72953
3589 1 16.0712 7.24279 5.51
20 3 0.209799 9.01145 5.45413
574 1 0.103047 10.7369 3.66586
1584 3 1.96058 10.9193 5.35691
3073 2 1.94054 9.09315 3.7271
3090 1 1.86163 9.04623 7.15935
3584 1 0.268138 10.7364 7.24753
21 1 5.31288 8.97201 7.35157
22 3 7.31895 8.94284 5.55327
591 1 3.49316 10.7253 7.48948
580 2 7.29662 10.7158 3.84924
1075 3 5.4794 9.07981 3.63342
1588 2 7.12339 10.669 7.26086
2085 2 3.64983 9.02155 5.55279
2577 2 3.88869 10.7034 3.76231
3585 1 5.60734 10.7288 5.5199
1092 1 9.09034 8.76063 7.15613
1586 1 9.14228 10.6806 5.6538
2086 2 10.9114 8.9459 5.42005
2592 1 10.8004 10.7885 7.22826
2581 3 10.7307 10.5526 3.73821
3075 2 9.04305 8.96531 3.62436
23 3 14.3959 9.02501 5.41792
582 3 14.2058 10.8464 3.76783
1077 2 12.6585 8.96527 3.72011
2087 2 12.6324 8.97814 7.40234
3590 3 14.4435 10.7856 7.26193
3588 1 12.4227 10.6432 5.43312
270 2 18.0602 9.14677 5.47594
764 1 17.8556 10.9053 3.69567
1590 3 16.1985 10.7943 5.42336
3091 3 16.0172 8.90835 7.29266
3077 2 16.0609 9.08814 3.82543
3835 1 17.9373 10.7312 7.35986
24 2 1.8988 12.6522 7.20218
593 1 0.136614 14.3433 7.22192
1079 3 1.88338 12.4217 3.60274
2088 3 0.136183 12.5788 5.52538
2584 2 0.257434 14.4131 3.72062
3591 3 1.8861 14.339 5.62521
25 1 3.85235 12.5334 5.49193
584 3 3.76623 14.2761 3.82194
1093 2 5.4675 12.5843 7.3674
1592 3 3.70103 14.3191 7.28905
1591 2 5.51481 14.3157 5.49299
2089 3 7.22339 12.4921 5.46893
2594 1 7.2141 14.4224 7.22127
2587 1 7.1189 14.2846 3.82591
3079 2 5.49824 12.4552 3.75432
26 2 10.9085 12.5313 5.47001
586 2 10.8439 14.3355 3.71548
1081 2 9.07866 12.5965 3.67688
2090 2 8.94957 12.558 7.26133
3593 1 10.815 14.3526 7.01705
3592 1 9.03135 14.2667 5.52596
594 2 14.3106 14.288 7.39163
1593 3 12.5877 14.4491 5.51211
2091 3 14.3097 12.5276 5.5224
2588 2 14.3061 14.362 3.64305
3092 2 12.59 12.4694 7.24843
3081 1 12.4889 12.5291 3.79195
27 3 16.231 12.6223 7.19117
781 1 18.0983 14.256 7.25033
1083 1 16.0768 12.5267 3.76554
2025 2 18.0662 12.6524 5.5245
2835 3 17.7269 14.3109 3.68522
3594 3 16.0609 14.4146 5.46948
28 1 0.152662 16.1174 5.40677
651 2 0.241656 18.0724 7.20409
1094 2 1.9333 16.1215 7.31557
2690 3 0.216317 17.9073 3.57483
3083 3 2.05413 16.0756 3.58537
3701 3 2.00612 17.8985 5.38912
29 3 7.0445 16.1519 5.42721
629 2 3.66352 17.9476 3.79349
1085 2 5.44345 16.0157 3.70407
1704 2 3.61061 17.8362 7.19411
1703 1 5.3843 17.9142 5.37983
2093 2 5.44271 16.2864 7.20447
2092 1 3.79485 16.1095 5.5478
2715 3 7.15863 18.0086 7.22671
2695 2 7.2512 17.7121 3.72527
632 2 10.895 17.82 3.55964
2094 3 10.8587 16.2446 5.41875
3093 2 8.958 16.3522 7.10436
3085 1 9.09276 16.1354 3.70582
3704 3 10.9668 17.974 7.18101
3703 1 8.9846 17.9922 5.48383
30 2 12.6309 16.1716 7.24758
31 3 14.1547 16.1422 5.29569
653 1 14.3029 17.7626 7.27408
1087 1 12.618 16.0489 3.50647
1706 2 12.5738 17.7815 5.40899
2698 3 14.4416 17.9352 3.57569
278 2 17.9402 16.0545 5.47714
901 3 17.9551 17.8479 7.1351
1095 3 16.1647 16.0523 7.19032
2878 1 17.8101 17.9119 3.67929
3087 1 16.0573 16.0494 3.70091
3707 2 16.1206 17.7508 5.42336
1594 2 1.92508 0.125343 8.95805
2095 3 0.130633 1.91397 9.02367
2595 1 0.22584 0.0842633 10.6584
3094 1 1.98609 1.81232 10.6917
33 2 7.14659 1.97018 9.03843
595 2 3.79594 0.180639 10.7203
1096 1 5.4275 2.08973 10.8031
2597 1 7.16346 0.102734 10.6866
2596 1 5.55512 0.0971155 8.91216
3095 2 3.75545 1.85479 8.87387
596 3 10.7892 0.31015 10.7849
1097 1 10.7722 2.04486 8.98804
3096 2 8.97725 2.04167 10.8422
3596 1 8.9342 0.327323 9.19635
597 3 12.4447 0.189102 9.06767
1098 2 12.732 1.99097 10.6782
2098 2 14.3729 1.94415 8.86096
2598 2 14.4067 0.181494 10.7869
1597 1 15.9558 0.201088 9.00109
2032 3 17.8676 1.77163 9.02183
2845 2 17.9059 0.212465 10.7768
3097 1 16.1187 1.91373 10.8327
598 2 0.367186 3.51311 10.842
1099 2 1.90852 5.38944 10.8016
2603 2 0.12039 7.12401 10.7718
2599 1 2.04329 3.65746 9.10868
3098 1 0.217981 5.36134 9.04107
3602 1 1.82753 7.18404 9.04803
36 1 3.77305 5.43151 9.07322
605 3 3.74631 7.06078 10.7633
604 2 5.3542 7.31032 8.8374
600 2 7.14934 3.68136 10.8795
1100 1 7.10721 5.4092 9.16357
2606 3 7.24424 7.35042 10.7938
2600 1 3.76696 3.73726 10.9196
3099 3 5.56013 5.64278 10.8721
3599 3 5.4195 3.59542 9.05522
606 3 10.7814 7.38097 10.8464
599 1 9.16528 3.77363 9.08341
1101 2 8.95816 5.41381 10.8685
1605 3 9.13884 7.10774 9.17012
2100 3 10.8607 5.44381 9.09878
2601 2 10.8475 3.68004 10.8819
601 1 14.381 3.77558 10.8644
1600 3 12.6208 3.69583 9.16458
2609 3 14.353 7.16122 10.8202
2608 3 12.569 7.12695 8.99411
3101 3 14.4004 5.52819 8.97996
3100 3 12.4847 5.55455 10.7891
786 3 17.8042 3.69495 10.7187
1102 3 16.2085 5.40437 10.7734
2853 1 17.9448 7.21113 10.7606
2602 1 16.0527 3.66764 8.97715
3348 3 17.9091 5.56785 8.86928
3608 3 16.1416 7.16665 9.09055
39 3 0.262469 8.97642 9.13004
603 3 0.125428 10.7542 10.8767
602 2 1.81923 10.6239 9.07161
3102 2 1.93709 9.02056 10.9494
607 1 7.49894 10.8271 10.7605
1104 1 5.42957 9.15717 10.8119
1103 2 3.55315 8.85828 9.13035
1603 3 5.47715 10.7982 9.05557
2104 3 7.23816 8.9495 8.98733
2604 2 3.62241 10.7552 10.6265
2607 1 10.8174 10.8879 10.6025
2605 1 9.04755 10.8003 8.93972
3104 1 9.09949 9.00546 10.8849
3103 1 10.8164 8.93266 8.95098
42 1 14.4243 8.97786 9.0024
609 3 14.3447 10.8529 10.6778
1105 3 12.6861 8.95651 10.8056
3606 2 12.5214 10.7872 8.89048
289 2 17.7779 8.96471 8.93481
792 1 17.8046 10.7574 10.6151
608 2 16.1855 10.7286 8.89521
3105 2 16.0892 9.01665 10.7404
1107 2 1.85652 12.5624 10.7239
1106 2 0.147478 12.5388 8.97645
1609 3 1.92294 14.3645 9.02472
2610 2 0.181455 14.3756 10.7977
610 1 3.67841 14.3896 10.8493
2107 1 3.54634 12.5615 9.00812
2612 2 7.31002 14.3082 10.8348
2611 3 5.49661 14.3808 9.04927
3107 1 7.40503 12.5219 8.94285
3106 3 5.53371 12.5933 10.8062
45 1 10.8924 12.6338 8.94165
611 3 10.8626 14.3479 10.8437
1108 1 9.24203 12.6513 10.7645
3611 3 8.89457 14.4373 8.94293
612 2 12.5385 14.4762 9.06563
1109 3 14.2091 12.6322 9.02702
2613 2 14.3516 14.4633 10.8658
3108 1 12.5436 12.5345 10.7869
1293 2 17.787 12.6309 8.86734
1110 3 16.0244 12.737 10.6789
1612 1 16.163 14.3238 8.97891
2860 2 17.9856 14.3696 10.7526
1719 1 1.83882 17.9209 9.09105
2110 3 0.045971 16.1339 9.16143
2721 3 0.197627 17.8508 10.799
3109 3 2.02924 16.2788 10.9014
48 1 7.16955 16.2503 9.06855
659 2 3.63088 17.9242 10.6695
1111 3 5.54118 16.2666 10.7576
2724 3 7.2993 17.9329 10.7057
2722 1 5.39004 17.9587 8.96004
3110 3 3.73159 16.1695 8.862
661 2 10.8742 17.9425 10.7141
1112 3 10.5867 16.1124 8.92164
3111 2 9.08226 16.2503 10.7598
3723 1 9.03398 17.9619 9.0468
663 2 12.6124 17.9476 8.95618
1113 2 12.6239 16.074 10.6889
2113 2 14.3624 16.0518 8.89958
2727 1 14.2831 17.7685 10.6636
1725 2 16.2651 17.9757 8.9463
2047 3 17.755 16.0364 8.92223
2908 3 17.8976 17.6766 10.7876
3112 2 16.0991 16.0947 10.6736
32 3 0.256309 1.87566 12.6054
613 1 0.143231 0.0742782 14.2182
1114 2 1.91035 1.84784 14.216
3595 2 1.89757 0.225733 12.561
34 2 7.18168 1.88072 12.6112
614 3 7.32887 0.19456 14.2556
1595 3 5.39982 0.229933 12.5009
2096 3 3.60981 1.89115 12.5849
2614 2 3.63404 0.203558 14.2865
3113 1 5.50927 1.77567 14.394
1115 3 9.08552 1.93699 14.3969
2097 3 10.7985 1.93915 12.5675
2615 3 10.5676 0.126503 14.4702
3597 1 9.05054 0.36718 12.493
35 1 14.4079 1.88902 12.7026
615 2 14.2405 0.0591347 14.2982
1596 3 12.4778 -0.0707961 12.4632
3114 3 12.4292 1.89115 14.2903
282 2 17.8571 1.91516 12.596
801 2 17.7727 0.102026 14.3125
1116 1 16.1039 1.90463 14.1855
3598 2 16.0998 0.067041 12.4764
618 3 0.244064 7.27874 14.2556
1598 1 1.95288 3.73095 12.502
2099 2 0.160121 5.40353 12.5198
2616 1 0.180651 3.72044 14.3307
3115 3 1.94067 5.38847 14.2343
3603 1 1.97864 7.19587 12.4746
37 2 3.82812 5.50628 12.5894
620 2 7.22725 7.33364 14.2953
616 1 3.53828 3.55463 14.2681
1117 3 5.39582 5.42976 14.3416
1604 1 5.34135 7.275 12.5963
2101 1 7.21064 5.39006 12.7016
2620 2 3.57482 7.29818 14.3295
2617 3 7.26156 3.62354 14.3464
3600 1 5.44268 3.55187 12.5775
38 1 10.7272 5.53141 12.5516
617 2 10.756 3.76794 14.2923
1599 1 9.00739 3.60673 12.5577
2621 2 10.8209 7.36764 14.3634
3116 1 8.93821 5.44316 14.3023
3605 1 8.93176 7.20546 12.5354
622 3 14.389 7.20041 14.2337
1118 1 12.6566 5.41592 14.1709
1607 1 12.5726 7.2154 12.4825
2102 2 14.4239 5.45049 12.4711
2618 2 14.3896 3.52418 14.4208
3601 2 12.6086 3.63863 12.545
806 3 17.8605 7.13858 14.2832
1601 3 16.1927 3.7327 12.4858
2036 2 17.998 5.43506 12.5076
2866 3 17.7578 3.7626 14.3557
3117 1 15.9574 5.33891 14.3349
3609 2 16.1382 7.16669 12.4893
40 2 0.109883 9.01169 12.5843
1119 1 1.94373 9.00782 14.2559
1602 1 1.94123 10.9032 12.5093
2619 3 0.0531401 10.7253 14.3432
41 3 7.19637 9.15227 12.6305
619 2 3.5843 10.8204 14.3463
2103 1 3.76052 9.02775 12.4269
2622 3 7.16554 10.9262 14.2966
3118 1 5.49966 9.03429 14.356
3604 1 5.37339 10.8401 12.6117
621 3 10.7969 10.7786 14.3838
1120 1 9.0476 9.04756 14.3336
1606 3 9.16126 10.8541 12.5151
2105 3 10.8252 9.04883 12.5331
43 1 14.3923 9.00801 12.4672
2623 3 14.355 10.7969 14.1781
3119 3 12.665 9.0829 14.3256
3607 1 12.6091 10.8517 12.4659
290 2 17.9278 9.08763 12.4141
1121 1 16.1376 8.96169 14.2648
1608 3 16.2208 10.6952 12.4654
2870 2 17.8877 10.6938 14.2946
623 3 0.295313 14.3512 14.2147
2106 2 0.119007 12.5193 12.5883
3120 1 1.8403 12.5651 14.3415
3610 1 1.89751 14.3159 12.5012
44 3 3.7327 12.5662 12.5155
624 2 7.38172 14.4569 14.1393
1122 1 5.37547 12.6956 14.1891
1610 2 5.47228 14.3201 12.4657
2108 3 7.19092 12.6535 12.5597
2624 2 3.68943 14.3869 14.233
46 1 10.9681 12.3911 12.5106
2625 1 10.8591 14.2961 14.4473
3121 3 9.04435 12.5218 14.3138
3612 3 9.05729 14.3011 12.4551
625 3 14.4027 14.2789 14.3085
1123 3 12.5954 12.5424 14.3459
1611 2 12.6061 14.5259 12.5262
2109 3 14.3454 12.5443 12.4667
811 2 17.7334 14.3235 14.3809
2044 3 17.6648 12.5029 12.5445
3122 2 16.0997 12.5472 14.276
3613 2 16.1341 14.3898 12.4586
47 1 0.158473 16.171 12.4829
676 3 0.0971425 17.8188 14.3022
1124 3 1.79425 16.0941 14.257
3720 3 2.10379 17.8454 12.5385
49 1 7.2934 16.1043 12.3881
678 3 7.20117 17.7569 14.32
1721 3 5.47901 17.8452 12.5377
2111 2 3.84247 16.024 12.4627
2740 3 3.68085 17.7934 14.4079
3123 1 5.52763 15.9414 14.2981
1125 3 9.0608 16.1777 14.3201
2112 1 10.7564 16.0738 12.6072
2741 2 10.848 17.8683 14.2732
3724 3 9.06503 17.9091 12.4844
50 2 14.3159 16.1874 12.4294
680 3 14.2669 17.884 14.2907
1724 2 12.5485 17.9206 12.6106
3124 1 12.6387 16.1105 14.3381
297 3 17.8185 16.1647 12.4654
926 1 17.8621 17.8313 14.2941
1126 3 16.1508 16.0712 14.3716
3726 2 16.262 17.8988 12.5965
1613 1 1.8709 -0.0799217 16.0194
2114 2 0.24343 1.75134 15.9787
2626 2 0.180086 0.0508878 17.7793
3125 1 1.8084 1.94936 17.8147
51 1 3.65868 1.96647 16.2383
502 2 3.76495 0.126448 17.8097
1128 2 5.42729 1.76388 17.8994
2115 3 7.19237 1.86274 16.212
2628 1 7.28211 0.202093 17.9613
3614 3 5.42321 0.115843 16.072
52 3 10.7555 2.04095 16.1706
503 3 10.8235 0.127976 17.8438
1614 3 9.02224 0.256538 16.1868
3127 1 9.00421 2.11663 17.8354
1130 3 12.6195 1.85818 17.842
2116 3 14.5082 1.7693 16.0714
2630 1 14.3193 0.0147331 17.7933
3615 3 12.5286 0.0553653 16.023
1615 3 16.1535 -0.0303948 16.0268
2051 1 17.6573 1.97725 16.034
2501 1 17.6478 0.327294 17.8454
3129 1 15.9194 1.89485 17.8155
53 1 0.139042 5.4027 16.0814
506 2 0.117719 3.67696 17.8274
1132 1 1.82939 5.44002 17.8094
1618 3 1.82172 7.13996 16.0052
2636 3 0.150869 7.30533 17.7133
3616 2 1.89612 3.70595 16.1
54 3 7.1285 5.49271 16.0407
508 1 7.12938 3.75681 17.7927
513 1 3.75005 7.30697 17.9326
1616 2 5.39393 3.63065 16.0384
2117 3 3.49688 5.45155 16.0605
2640 1 7.10722 7.16387 17.9601
2632 3 3.71552 3.73432 18.002
3131 1 5.44094 5.49241 17.7929
3620 3 5.40012 7.1818 16.1218
515 3 10.8336 7.33882 17.7411
1134 2 8.94559 5.4554 17.7203
1620 3 9.05007 7.21485 16.0657
2118 1 10.7947 5.34623 16.164
2633 3 10.7636 3.72695 17.8842
3617 1 8.96958 3.63607 16.0438
55 2 14.3053 5.38822 16.0041
510 2 14.2139 3.6771 17.7783
1617 1 12.6279 3.65775 15.9749
2644 2 14.1103 7.26793 17.7917
3133 2 12.5218 5.52819 17.6358
3622 1 12.5556 7.23938 15.9836
303 3 17.7951 5.42523 16.101
819 2 17.8419 3.58204 17.8049
1136 1 16.0951 5.30229 17.8723
1622 3 15.9954 7.20762 16.067
2511 3 17.8566 7.21741 17.7647
3618 2 16.0535 3.77614 16.0754
511 3 0.0862247 10.7963 17.8538
2119 1 0.110624 8.94075 16.0248
3135 1 1.94079 9.05207 17.8535
3619 2 1.7868 10.9042 16.0539
56 1 3.67048 9.1247 16.0581
516 2 7.24672 10.9078 17.6626
1138 1 5.50678 9.08489 17.9768
1619 1 5.41075 10.7516 15.9993
2120 2 7.14249 9.00853 16.0612
2638 2 3.58857 10.7747 17.7506
57 1 10.7505 9.08436 15.9888
2641 2 10.8399 10.7741 17.7816
3137 2 8.93547 9.02767 17.6701
3621 1 9.0438 10.8097 16.1305
519 1 14.3839 10.8576 17.7664
1140 3 12.416 9.08334 17.7844
1621 2 12.5801 10.7325 16.0204
2121 1 14.4112 9.03074 16.052
825 2 17.6664 10.7751 17.9784
2056 3 17.8688 8.91833 16.114
3139 1 16.0111 9.03005 17.8275
3623 2 16.0717 10.749 15.9456
58 2 0.128648 12.6056 16.1894
1142 1 1.90363 12.6567 17.7391
1623 1 1.99033 14.3679 16.016
2646 1 0.0291696 14.3608 17.9054
59 1 7.18943 12.5806 16.1793
522 3 3.78342 14.3371 17.8143
2122 2 3.62235 12.547 15.9911
2648 1 7.30862 14.4274 17.849
3141 3 5.4619 12.539 17.8783
3624 2 5.52827 14.2025 16.0898
523 2 10.7005 14.337 17.9027
1144 2 8.9327 12.6284 17.772
1624 1 9.07889 14.2857 15.9421
2123 1 10.942 12.5059 16.1839
60 1 14.2773 12.5243 16.0836
2650 2 14.3587 14.226 17.8257
3143 3 12.6374 12.4947 17.8615
3625 2 12.613 14.4063 16.202
308 1 17.8075 12.5151 16.0252
1146 1 16.1207 12.5999 17.5941
1625 3 16.1141 14.4685 16.0626
2521 2 17.7537 14.2259 17.925
1738 1 1.85593 17.9179 16.1045
2124 2 0.207423 16.1494 16.1114
2751 1 0.219568 17.7605 17.949
3145 3 2.00719 16.0482 17.866
61 2 3.78274 16.0502 16.0454
691 3 3.65742 17.77 17.7983
1148 1 5.52937 16.0613 17.7021
2125 2 7.24269 16.0316 16.1553
2755 1 7.30851 17.8662 17.7607
3740 1 5.53304 17.796 16.1236
62 2 10.788 16.1199 16.1854
693 1 10.8309 18.0349 17.8575
1740 1 9.04186 17.8393 16.039
3147 3 9.13451 16.1749 17.8371
1150 1 12.4727 16.1945 17.8814
2126 3 14.253 16.192 16.0682
2759 3 14.3206 17.9402 17.901
3742 1 12.567 17.8368 16.0858
1742 2 16.2467 17.9296 16.0212
2061 2 17.8035 16.051 16.0281
2938 3 17.8232 17.8246 17.8326
3149 1 16.2021 16.1698 17.8566
501 3 0.181452 0.079991 21.3803
63 2 0.0330224 1.74994 19.5725
1127 1 1.92961 1.88668 21.5118
3626 2 2.0043 0.0613324 19.5941
504 1 7.32442 0.0662949 21.3116
64 3 7.16195 1.97977 19.7515
1626 2 5.48444 0.0661577 19.7677
2127 3 3.52687 1.83536 19.7328
2627 2 3.60486 0.103126 21.3741
3126 1 5.33739 1.92205 21.4458
1129 1 9.03688 1.89324 21.2573
2128 2 10.9292 1.9457 19.4979
2629 1 10.8942 0.13907 21.5178
3627 1 9.03455 0.238439 19.586
505 3 14.3871 0.111846 21.4859
65 2 14.3784 1.93974 19.6795
1627 1 12.5714 0.135391 19.6628
3128 1 12.5438 1.99869 21.436
815 3 17.9538 0.240355 21.4578
313 1 17.8701 1.98865 19.7151
1131 2 16.074 1.90833 21.4663
3628 3 16.2001 0.280507 19.6315
512 3 0.169024 7.24638 21.4086
1628 3 1.80531 3.65647 19.5686
2129 2 0.112568 5.45133 19.4645
2631 2 0.106085 3.69567 21.2562
3130 2 1.7751 5.36231 21.3202
3631 1 1.78742 7.17796 19.6324
507 3 3.61873 3.68448 21.4534
517 1 7.28859 7.28432 21.2899
66 3 3.63369 5.54875 19.6518
1133 1 5.6029 5.47036 21.5559
1632 2 5.52731 7.12631 19.7936
2130 2 7.19144 5.38408 19.6741
2639 3 3.63572 7.18692 21.4164
2634 3 7.26723 3.74822 21.4776
3629 3 5.36632 3.69375 19.6771
509 3 10.787 3.78163 21.365
67 1 10.6929 5.57898 19.5109
1629 2 9.11154 3.71379 19.5253
2642 3 10.7689 7.271 21.4036
3132 1 8.95676 5.47641 21.3679
3633 3 9.12294 7.35554 19.7119
520 3 14.3073 7.13785 21.41
1135 1 12.649 5.39357 21.2923
1634 3 12.5329 7.29341 19.6282
2131 3 14.2492 5.47937 19.4832
2635 1 14.3133 3.84952 21.2078
3630 1 12.56 3.65641 19.5008
826 2 17.8456 7.33381 21.4375
1630 3 16.1116 3.6413 19.6728
2316 1 17.7981 5.50011 19.5903
2507 2 17.8073 3.73887 21.3647
3134 1 16.145 5.61701 21.3475
3635 1 16.014 7.35309 19.6695
68 2 0.126576 8.97042 19.5552
1137 3 1.86153 9.02685 21.39
1631 3 1.93432 10.8667 19.5635
2637 2 0.0997848 10.5752 21.3295
514 1 3.57713 10.765 21.4314
69 2 7.20226 9.27168 19.5851
2132 2 3.67916 8.91635 19.6368
2643 2 7.4062 10.799 21.3428
3136 1 5.44992 8.98066 21.2617
3632 3 5.48265 10.8716 19.5827
518 2 10.8362 10.8019 21.3975
1139 3 9.06679 9.14203 21.4563
1633 1 9.02681 10.7149 19.4817
2133 1 10.8131 9.06718 19.5333
70 3 14.3107 8.96795 19.477
2645 2 14.3102 10.7212 21.4588
3138 3 12.5016 8.99624 21.3794
3634 3 12.5668 10.8326 19.583
318 1 17.7288 9.06298 19.7743
1141 2 16.0723 9.04116 21.4682
1635 1 15.9465 10.7985 19.5371
2514 2 17.788 10.7324 21.5306
521 2 0.0684178 14.2526 21.2925
2134 3 0.109733 12.5286 19.5701
3140 1 1.85543 12.6454 21.3044
3636 1 1.90117 14.2539 19.6289
524 1 7.28531 14.2587 21.5377
71 3 3.63432 12.551 19.5538
1143 1 5.69116 12.565 21.471
1636 3 5.38421 14.232 19.643
2135 1 7.16511 12.5931 19.6187
2647 3 3.79026 14.1708 21.4078
72 3 10.7339 12.6029 19.561
2649 3 10.7978 14.403 21.4474
3142 1 9.19346 12.6018 21.5538
3637 2 8.86689 14.1951 19.6829
525 3 14.3083 14.3576 21.2491
1145 1 12.5405 12.6759 21.2791
1637 1 12.5484 14.4486 19.5329
2136 2 14.5365 12.5129 19.4381
835 2 17.7394 14.2953 21.4357
2321 1 17.7622 12.5594 19.6724
3144 2 16.0418 12.5996 21.456
3638 1 16.0955 14.3393 19.7145
690 1 0.194499 17.8452 21.2954
73 2 0.145149 16.1167 19.5003
1147 1 1.86014 15.9079 21.3236
3751 2 1.95089 17.7551 19.6852
695 1 7.25121 17.9179 21.4538
74 2 7.2138 15.9247 19.7262
1502 3 5.63984 17.8145 19.4919
2137 2 3.81453 16.1742 19.7841
2754 2 3.70633 17.7902 21.5713
3146 2 5.54265 16.0521 21.4499
1149 3 8.97734 16.0759 21.2794
2138 3 10.5618 16.1797 19.5752
2757 2 10.7022 17.9303 21.4868
3753 3 8.89407 17.8873 19.527
698 1 14.3781 17.7836 21.4896
75 2 14.3301 16.0639 19.4759
1504 3 12.6491 17.8718 19.6019
3148 3 12.5158 16.1486 21.3415
941 3 17.8712 17.6948 21.293
323 2 17.8738 15.9349 19.5348
1151 1 16.0237 16.1001 21.3647
3755 3 16.0963 17.8172 19.6547
1638 3 1.88442 0.0537286 23.2512
2139 3 0.252018 1.85479 23.1732
2651 2 0.309479 0.103459 25.05
3150 1 1.99608 1.99335 24.9707
526 1 7.1294 0.271728 24.8579
77 1 5.44516 2.04727 25.0257
76 2 3.55332 1.83687 23.2157
2140 3 7.32835 1.93384 23.2235
3640 3 3.67765 0.159959 24.9778
3639 1 5.5222 0.158483 23.1108
78 3 10.8738 2.02011 23.1242
1152 1 9.08555 1.8747 25.0387
1640 2 10.7998 0.0595407 24.9311
1639 2 9.00634 0.332178 23.2541
2142 1 14.31 1.94782 23.1546
2141 1 12.5117 2.01279 24.8684
2652 3 14.3835 0.342779 25.0202
3641 2 12.7233 0.156166 23.1676
1641 2 16.1629 0.155832 23.0462
2326 1 18.0301 1.99854 23.2527
2526 2 18.0041 0.218657 24.9645
3151 3 16.2139 2.0735 24.8461
528 3 0.126145 7.13108 24.9903
80 3 1.9328 5.4423 25.051
79 1 0.117302 5.51665 23.1814
1645 3 1.93412 7.18527 23.0467
3643 3 0.170825 3.71117 24.9515
3642 2 1.96657 3.77933 23.2642
527 2 3.6793 3.69377 25.0302
81 3 7.35332 5.46037 23.2593
1153 3 5.50128 5.48006 24.9312
1648 1 3.49032 7.29611 24.9894
1643 1 7.24139 3.66591 24.972
1642 2 5.38229 3.61154 23.0646
2143 1 3.75401 5.36651 23.143
2655 1 7.25575 7.36479 24.9068
3648 3 5.46262 7.36712 23.0998
1649 2 8.9816 7.3393 23.1683
2145 1 8.95515 5.58358 25.0248
2144 3 10.7181 5.53441 23.2024
2653 3 10.6801 3.80043 24.9207
3650 2 10.8979 7.27224 25.061
3644 3 9.03334 3.65317 23.225
530 2 14.3126 7.19157 25.0677
82 2 14.1457 5.46598 23.1312
1644 1 12.5522 3.62869 23.1143
3152 1 12.5741 5.41748 24.8959
3652 3 12.5123 7.0921 23.2155
3646 3 14.3339 3.82644 25.0195
841 2 17.9264 7.22599 24.9837
329 3 17.9408 5.44276 23.2311
83 3 15.9735 5.60465 24.7691
1651 1 16.1153 7.45908 23.1907
3893 2 18.0055 3.91832 25.0076
3645 3 16.16 3.70652 23.0602
1154 3 1.83291 9.02389 24.9458
1646 2 0.0948363 10.9008 24.8878
2146 2 0.0478275 8.95071 23.3557
3647 1 2.00665 10.7961 22.9952
84 3 3.63142 9.00736 23.1334
1647 3 5.50979 10.6956 23.1325
2148 3 7.17909 8.98954 23.0113
2147 1 5.41982 8.92059 24.9606
2654 3 3.73642 10.7072 24.8933
3651 2 7.20283 10.5305 24.9657
529 2 10.7886 10.7528 24.9945
85 1 10.8884 9.00414 23.2488
3153 2 9.08169 9.05775 24.8367
3649 1 9.05572 10.7326 23.3073
86 2 12.5881 8.97859 25.0558
1652 3 14.284 10.7988 24.9625
1650 1 12.4392 10.7565 23.2474
2149 1 14.2117 8.99449 23.158
1155 3 16.0985 8.97428 25.0552
1835 2 17.8243 10.7885 24.8599
2333 2 17.8837 9.04191 23.1726
3653 2 15.9708 10.7988 23.2117
87 2 0.0917721 12.5467 23.1606
1653 1 1.89025 14.1867 23.1909
2150 3 1.97707 12.511 24.8919
2656 3 0.032954 14.2668 24.8913
531 3 7.24417 14.2571 24.8681
88 2 7.31965 12.3739 23.1958
2151 1 3.83578 12.4318 23.2365
3154 1 5.39629 12.4752 24.9649
3655 2 3.7 14.1596 24.8855
3654 3 5.45879 14.3536 23.2184
89 1 9.08276 12.4385 24.9736
1655 3 10.7686 14.2685 24.9441
1654 2 8.96948 14.2871 23.1865
2152 2 10.8386 12.6063 23.1507
90 3 14.1607 12.5263 23.1537
1156 1 12.5289 12.5433 25.0943
2657 2 14.3666 14.398 24.9022
3656 1 12.552 14.2341 23.2214
337 3 17.8572 12.5512 23.1583
1656 1 16.1195 14.2174 23.3049
2153 1 16.1191 12.4991 24.828
2531 3 18.0336 14.184 24.9136
1513 1 1.84421 17.9176 23.1741
2154 2 0.0253805 16.0036 23.0237
2776 1 0.101779 17.7459 24.7905
3155 3 1.86806 16.0063 24.799
715 2 7.35123 17.9021 24.9695
92 3 5.53593 16.1224 24.925
91 3 3.64566 15.9785 23.1399
2155 3 7.27052 15.9924 23.141
3767 2 3.67593 17.8775 24.8261
3766 1 5.4138 17.722 23.1001
93 1 10.6991 16.1453 23.1392
1157 1 9.0914 16.0325 24.9084
1515 2 8.94082 17.7166 23.1151
1516 3 10.8208 17.9704 24.9489
2157 3 14.2861 15.9999 23.1438
2156 3 12.4767 16.0073 24.9869
2778 3 14.2867 17.8066 24.9321
3769 3 12.4716 17.9639 23.2385
1519 3 16.0585 17.8449 23.115
2341 2 17.8749 15.9983 23.1363
2963 2 17.9633 17.7587 24.7477
3156 1 16.2263 16.1336 24.9043
532 1 0.222174 0.0161636 28.5545
94 3 0.183086 1.82203 26.8547
1158 3 2.10518 2.0141 28.5769
3657 1 1.93721 0.0562036 26.8354
533 3 5.5186 0.257693 26.6647
534 1 7.30812 0.209252 28.4375
1159 2 3.77235 1.91487 26.7405
2159 3 7.21229 2.02707 26.7946
2658 3 3.62375 0.0681944 28.4637
3157 1 5.44071 2.06219 28.4986
1160 2 8.93819 2.04832 28.5085
1658 3 9.06685 0.171023 26.7768
2659 1 10.8133 0.140114 28.6628
3158 2 10.8348 1.94076 26.6742
535 3 14.3209 0.159576 28.5841
97 1 14.4715 2.06349 26.8381
2660 3 12.5605 0.110418 26.7309
3159 2 12.5541 1.97527 28.589
845 1 17.9864 0.227858 28.3259
344 1 18.0201 2.1317 26.6916
1161 3 16.1645 2.03578 28.5329
3660 3 16.1701 0.336864 26.6275
536 3 1.99706 3.73747 26.7604
540 2 0.27597 7.29061 28.4547
1162 1 0.160868 5.4368 26.7639
1664 2 1.8384 7.23003 26.6862
2661 3 0.260212 3.70726 28.5616
3160 3 1.88739 5.439 28.5288
537 1 3.82835 3.7758 28.5005
543 1 7.38095 7.18695 28.5798
1163 2 5.60723 5.6042 28.5516
1661 2 5.37292 3.83234 26.6698
2162 1 3.76936 5.59573 26.6905
2668 1 3.68526 7.23443 28.3796
2667 1 5.60763 7.26501 26.7042
2663 1 7.37904 3.72589 28.5435
3161 1 7.24147 5.63188 26.5616
538 1 10.8837 3.55156 28.6431
99 1 10.787 5.45486 26.6008
2669 2 10.7669 7.18279 28.3136
2662 3 9.05164 3.66392 26.7037
3162 1 8.98566 5.52567 28.4625
3668 2 9.07752 7.27009 26.6095
545 3 12.6889 7.27464 26.8404
546 2 14.3572 7.11293 28.6769
1165 1 14.3097 5.395 26.925
1164 1 12.4178 5.46415 28.4287
2664 1 14.3692 3.71546 28.5058
3663 1 12.4455 3.57271 26.8216
853 2 17.9365 7.22784 28.5077
539 2 16.1588 3.72641 26.6849
1349 3 17.8495 5.4354 26.7317
1670 2 16.1027 7.11646 26.7246
2536 1 17.8515 4.02 28.5487
3163 3 16.1936 5.57832 28.5807
1166 2 1.78766 8.99753 28.4788
2165 2 0.195985 9.08231 26.7086
2666 1 0.188042 10.8976 28.53
2665 1 1.8696 10.7854 26.6679
541 1 3.70825 10.8413 28.4949
103 1 7.21476 9.08902 26.7436
2670 3 7.20313 10.7734 28.4757
3165 3 5.43237 8.93266 28.5527
3164 2 3.674 9.01124 26.7879