ITEM: TIMESTEP
5000
ITEM: NUMBER OF ATOMS
4000
ITEM: BOX BOUNDS pp pp pp
-4.0490600882982619e-02 3.5774550600882989e+01
-4.0490600882982619e-02 3.5774550600882989e+01
-4.0490600882982619e-02 3.5774550600882989e+01
ITEM: ATOMS id type x y z
564 3 3.46985 1.81311 1.83821
2069 2 3.49408 3.6204 3.43828
1623 2 -0.136877 17.7062 10.7308
1628 1 0.185544 5.48819 15.8105
502 1 16.2014 -0.198574 15.9766
3084 2 0.0335638 0.00508672 7.16604
3569 2 5.1378 3.45156 1.80466
1639 1 17.6443 10.738 14.2263
565 1 6.87125 2.08352 1.73081
2565 2 8.95941 1.95783 3.49121
2090 1 12.6314 0.410539 8.76564
3568 2 7.17252 3.61534 3.82509
2087 2 3.72251 17.7721 3.51072
566 3 10.9014 1.66207 1.89172
2567 2 12.6175 1.54769 3.59732
3069 3 14.4391 3.52077 3.45125
567 2 14.168 1.34216 1.80992
2607 1 5.23795 17.764 5.39155
601 3 -0.180746 12.4806 9.22917
2587 1 13.9502 17.6438 3.18837
55 1 12.5199 17.8892 12.5623
3564 3 16.3151 1.8653 3.79006
5 3 1.84359 3.50895 1.77773
1074 2 3.37908 5.41039 1.58289
3619 2 8.88306 17.7329 12.6075
2649 1 10.8794 17.6352 14.3625
3570 2 5.13537 5.33169 3.6632
1075 2 5.31803 7.0051 1.73828
1073 1 3.41256 7.26976 3.46602
2068 3 6.98152 6.86565 3.39512
3113 2 1.67534 0.272339 12.5114
10 1 8.86973 3.35704 1.86323
1072 3 7.18637 4.9622 1.82651
1076 2 10.6663 5.50362 1.64307
3571 1 9.39014 5.46027 3.46379
1571 3 14.2128 6.98581 -0.0397719
3572 3 10.8048 3.62421 3.63557
570 3 12.4166 3.47907 1.6811
571 2 12.3369 5.45646 3.44
569 2 10.6619 7.10074 3.53587
1570 3 14.1837 5.27018 1.6032
572 2 15.9329 2.92595 1.61628
573 3 16.143 5.06699 3.01021
6 1 1.667 7.48114 1.76774
574 1 1.65454 9.06321 3.54144
575 2 1.62552 10.9598 1.59806
615 2 17.771 8.86478 12.7288
1575 2 3.32473 9.03046 1.80354
1084 2 7.06559 10.3254 3.43201
1083 2 5.56567 11.0114 1.87091
1071 1 -0.0974262 5.40218 1.91333
1644 3 14.3947 17.7701 14.2062
1568 3 8.98073 7.46567 1.68478
1576 3 7.04314 8.88211 1.61713
1087 1 8.72728 10.6388 1.80267
1578 2 8.85084 8.70303 3.60819
2590 3 3.4784 -0.0228423 7.20454
2071 2 10.6434 8.66563 1.48639
1569 1 12.6916 7.26555 1.84333
2074 1 14.4253 8.97934 1.48588
1081 1 16.0416 7.32285 1.81968
1580 2 16.0322 9.03243 3.53896
1581 2 16.2559 10.7178 1.70823
2081 1 3.62805 12.4557 1.7793
1582 2 1.54156 12.5119 3.52108
2083 1 3.54786 13.9792 3.57141
578 2 3.49474 10.766 3.50125
1115 3 12.3743 17.8459 9.03844
2082 2 5.31025 14.0492 1.86192
2575 1 7.21301 12.7307 1.81972
1116 2 11.0035 -0.00855974 10.8225
579 3 10.6769 10.5671 3.34434
2579 1 10.7504 12.3237 1.46295
2578 3 8.92926 12.2687 3.59144
580 1 12.5385 10.6486 1.53178
2085 1 12.471 14.4179 1.3065
2581 1 12.588 12.281 3.35098
3575 3 14.2411 14.3246 3.37378
1647 3 16.2319 15.9453 14.5915
2580 1 14.2274 12.2595 1.73129
2583 3 16.1144 14.0512 1.71114
3092 3 17.8025 5.51312 5.35755
3643 3 14.1781 16.3026 16.0439
2078 2 1.70645 14.306 1.6979
3077 1 3.61668 15.6936 2.08299
3576 1 1.59779 15.9458 3.82835
47 2 17.7053 5.54771 12.361
3577 2 5.45734 15.8757 3.57339
3078 1 7.05208 15.8854 1.70403
1565 2 7.10253 -0.0939071 0.135961
3562 3 5.49173 -0.0472986 1.90966
1583 3 8.83135 14.1631 1.84891
3080 3 10.4161 16.1324 1.72446
3579 2 8.91016 15.8363 3.61914
52 3 0.135191 15.8966 12.3762
3081 2 14.5209 16.0323 1.69663
3072 1 10.7078 13.9901 3.44474
1624 2 10.8106 17.7437 10.8066
3580 1 12.3352 15.9495 3.18759
2621 1 0.0554772 12.2504 12.3316
3109 2 10.964 17.6038 7.02372
604 2 0.0914533 0.169712 10.5507
2122 3 1.88721 1.76512 17.7959
3621 3 8.94669 0.0916926 16.0076
1646 3 12.7548 16.0972 14.111
2080 3 5.36244 12.4296 -0.106054
2563 2 1.7315 1.5779 3.48801
1101 2 -0.0704067 8.73712 5.27034
2647 1 12.6624 14.2158 15.9834
3585 1 3.29932 1.88928 5.13666
2564 1 5.12858 1.99193 3.66208
22 1 5.15974 1.90159 7.09041
3584 2 7.28104 1.91541 5.31588
3593 1 5.17629 3.39349 5.57298
29 1 3.5814 3.75371 7.47948
2084 1 10.8129 14.2065 -0.109081
2608 3 9.01644 17.8067 5.43939
31 3 9.0105 3.75356 5.26065
3592 1 7.24044 3.59561 7.36653
3587 3 8.80642 0.033077 8.83696
3586 2 10.5638 1.97161 5.3658
25 3 14.3064 1.97101 5.36823
33 3 12.5959 3.75498 5.1324
3594 3 10.6097 3.63359 7.40289
1627 2 10.6789 0.180554 14.1576
588 1 16.1314 1.93776 7.11834
74 2 9.10429 17.6454 15.9241
589 2 -0.0347673 5.38383 5.17976
3566 3 1.92563 5.30736 3.51907
3090 3 1.70492 3.65777 5.41554
28 2 1.98744 7.16962 5.19898
1151 3 3.63205 17.8218 14.6019
3583 3 0.201783 1.85285 5.35231
3062 2 8.99047 1.6516 -0.0641028
590 1 3.66633 5.4519 5.19321
592 3 6.90578 5.31344 5.33353
1094 1 5.12411 7.35051 5.435
1095 3 5.20468 5.42039 6.97162
1097 1 8.9485 5.6014 7.1211
591 3 6.93655 7.01396 7.07849
1590 2 9.00918 7.09873 5.30497
594 3 10.5897 5.34292 5.25087
1100 3 14.1328 5.65362 5.19097
1589 2 10.7684 7.11884 7.2234
595 1 14.3995 7.26054 7.25713
1595 1 15.9604 7.11165 5.11657
3595 1 16.2893 3.87429 5.24524
1594 3 16.1331 5.63285 7.16869
2141 2 9.09732 14.4129 15.961
24 1 14.2654 0.371946 7.10877
1103 2 3.58418 9.30319 5.29596
1102 1 1.71946 8.70889 6.86783
600 3 17.8839 8.9822 8.92654
577 2 5.37266 8.82336 3.51162
1104 2 5.42289 10.7068 5.22553
1596 1 5.37583 8.96683 7.27161
1106 3 7.17193 10.3657 7.05861
1597 2 6.9572 8.70012 5.37602
2097 3 10.9046 8.91885 5.35425
39 2 10.7214 10.7248 7.38138
1107 3 8.97347 8.8234 7.09458
1579 1 12.5047 9.00238 3.1551
1592 1 12.4491 7.23085 4.98707
1108 3 12.4766 10.6998 5.56301
1598 3 12.5567 9.17644 7.17254
1572 1 14.1672 7.11137 3.42256
2098 3 14.2887 8.8363 5.19207
2100 2 16.1252 10.818 5.29409
3087 2 12.5923 0.103247 5.40459
1599 3 16.065 9.05192 6.99904
2124 2 14.3252 -0.0288707 17.7651
1637 1 14.134 10.5341 17.922
596 2 1.70653 10.749 5.30835
2102 3 1.75311 14.2969 5.49268
2103 1 1.61934 12.2806 7.29782
2600 1 3.3361 12.3447 5.27084
2574 1 5.61586 12.5163 3.84759
2601 1 7.27415 12.4638 5.45576
1112 1 7.00593 14.1804 7.223
38 2 3.14787 10.5501 7.03464
1600 2 5.23342 12.1698 7.12722
2577 2 7.25035 14.1124 3.74966
599 1 8.93673 10.5978 5.16742
2604 2 8.92833 14.2086 5.2434
2603 1 11.0572 14.1919 7.021
2602 2 10.6974 12.4399 5.20873
2605 2 14.2497 12.1437 5.20828
2115 3 -0.0898574 8.82964 12.555
2582 1 16.1153 12.2352 3.53863
2072 2 14.1834 10.5331 3.40959
3100 3 15.7835 13.9124 5.14386
2099 1 14.3459 10.6693 7.06358
513 2 0.166468 14.3625 14.3449
1069 2 3.64499 0.014526 3.94121
3602 3 3.62684 15.8657 5.30292
2599 2 3.43611 14.1201 7.15646
2104 1 5.37408 14.1576 5.39492
3106 2 5.35583 16.0284 7.27345
2627 1 17.9469 16.0932 12.544
3601 3 7.11146 15.9821 5.41911
3098 3 12.4679 14.2022 4.95278
3603 3 10.6496 15.9649 5.2204
3641 1 10.8062 16.0095 16.1132
583 3 16.1078 16.1112 3.46109
41 3 14.1984 16.1764 5.02523
2109 1 15.8604 15.741 7.00924
3639 1 7.22688 16.023 16.2201
584 1 1.80162 1.68533 7.22645
2091 3 1.65954 3.46851 8.73872
3578 1 8.67716 17.7917 1.729
3139 3 14.2372 3.47634 17.8252
44 1 16.1793 0.436055 12.5975
3110 2 17.6621 15.9861 5.37597
2591 3 3.71655 1.88354 9.13901
2111 1 5.4037 1.74936 10.8628
3085 2 7.23611 0.129459 7.00008
586 1 8.80216 1.86498 6.93455
585 1 7.26499 1.7368 9.33411
1591 1 8.909 3.34222 9.05615
3 2 16.2715 0.196225 2.05426
3061 3 5.22893 1.88744 0.161251
23 1 12.4134 2.09524 7.03548
2592 2 10.4656 1.80562 8.9001
2613 1 12.4862 1.82108 10.8197
2645 1 8.78436 12.6989 18.0273
587 3 14.4329 1.91956 8.92894
3119 1 14.3532 3.73573 10.7381
3112 1 16.0405 17.7915 5.45011
27 1 1.69802 5.42764 6.96337
1093 1 1.79665 7.30669 9.04364
2586 1 7.18764 17.8963 3.9272
593 3 3.65288 7.06761 7.18667
30 3 5.26403 3.60511 8.97472
1096 1 3.65062 5.38732 8.95426
3591 1 5.33389 7.00047 8.97554
3091 2 7.03584 5.3744 8.78946
3609 2 8.92532 5.27665 10.5605
1098 2 10.74 5.4388 8.9363
45 2 7.14447 7.05315 10.8901
35 1 14.3021 3.67626 6.85608
1099 1 12.78 5.44826 7.27734
34 3 12.4931 3.57547 8.92221
36 1 14.6677 5.5746 9.14375
3611 3 12.3621 5.23622 10.7891
516 1 3.61266 14.4844 14.4607
2643 3 5.41276 14.0235 16.1284
2595 3 16.1554 3.7264 8.83715
2086 2 1.94792 17.7437 1.82692
37 2 3.63541 8.89487 8.69502
3111 2 16.0782 17.5324 8.95064
48 3 1.86102 8.97912 10.769
1105 2 5.19636 10.6332 8.98437
3121 2 3.51948 10.6792 10.6527
3608 1 3.49983 6.96162 10.6494
49 3 5.05798 8.83545 10.8363
612 2 7.00755 10.6491 10.6973
1588 2 9.24068 7.19676 9.0182
2096 1 6.91084 8.66834 9.14833
598 1 10.9727 8.96814 8.81986
613 2 8.91504 8.7726 10.6742
46 3 11.0269 7.24725 10.5712
32 2 12.6076 7.18837 8.98085
2093 1 16.1708 7.23891 8.88489
2597 1 14.3001 8.89977 9.15055
1122 1 16.0461 8.89153 10.6372
1605 3 1.77114 17.4849 5.64675
1625 1 7.07144 0.00562336 14.2748
3590 3 -0.053199 7.12914 7.30363
2596 2 1.91319 10.5036 8.95964
3095 1 3.7021 12.3461 8.81543
1601 1 7.17193 12.2631 9.08846
1111 1 5.38499 14.0556 8.70904
1124 2 5.28497 12.4078 10.5908
3596 1 8.77541 10.516 8.80588
3097 2 8.60581 12.2904 7.23255
3598 2 10.706 12.2621 8.89176
602 2 14.0859 14.3801 7.16514
2598 2 12.6477 10.8136 9.15555
1603 1 12.3717 12.5824 7.22301
1602 1 14.1496 12.4773 8.76269
1620 1 12.2006 12.3761 10.6576
50 2 14.2802 10.682 10.7287
1109 1 16.2539 10.5233 8.90477
3099 1 16.0535 12.7345 7.01218
3102 3 15.8565 14.2242 8.924
66 2 17.7762 5.3671 16.0262
3105 3 3.46191 17.7609 7.17837
2065 3 3.55166 -0.0750558 0.00478528
3094 3 1.58527 13.8857 9.15785
1604 1 1.72488 15.9574 7.27088
2130 1 12.5214 7.01245 16.1045
11 3 12.535 5.3256 -0.00637409
2106 2 3.31268 15.8735 8.65798
3115 2 17.8309 0.221112 10.9283
40 1 7.02186 15.9063 8.90856
2107 3 8.72376 16.0413 7.0901
3096 3 8.75883 13.9464 8.91101
2108 2 10.8577 15.9346 8.91492
2634 1 0.122301 7.23902 14.2577
617 2 10.7733 14.1622 10.5518
1113 1 12.5987 14.182 9.29306
3604 1 12.6657 15.9442 6.9035
2626 2 12.5961 16.1271 10.8711
2092 3 17.7776 3.7607 7.14726
603 2 14.0815 16.1423 9.12154
1609 2 14.3504 0.13327 10.9468
2641 3 1.73224 14.3206 16.1826
1615 3 17.8042 7.27179 10.5621
2110 3 1.81537 1.75725 10.6497
607 2 1.97791 3.65971 12.8389
3148 1 15.7632 14.4472 16.3503
1144 1 12.5951 10.6518 16.0089
3143 3 10.7878 12.613 16.1499
43 2 3.45755 1.62601 12.4822
2128 3 7.36425 3.55973 14.4195
3128 2 5.6099 1.79543 14.2486
2616 2 3.48096 3.85772 10.6473
608 3 5.4714 3.5894 12.4516
3144 2 14.303 12.4934 16.1501
605 1 7.28634 1.66886 12.3303
2612 2 8.97361 1.73263 10.913
1636 3 9.07661 10.8839 16.1558
606 2 10.6905 1.73425 12.4869
3142 1 7.33285 12.7065 16.1872
3137 1 10.6143 3.57667 14.3014
3116 2 16.2975 2.15215 10.5583
1117 3 14.2283 1.83035 12.3581
1121 3 16.074 3.66427 12.5339
2142 3 7.06989 17.7377 14.5361
3117 2 1.47161 5.2047 10.6413
3063 1 9.07701 0.0867836 1.79782
3624 2 1.9774 5.45662 14.3833
3637 2 3.51366 15.9849 16.4329
3607 3 5.49912 5.47869 10.9012
1610 3 3.84074 5.13655 12.4936
2112 2 7.09613 3.56193 10.6036
3610 1 8.70416 3.6197 12.4631
1612 3 7.22131 5.44955 12.6949
2113 3 10.5893 3.38078 11.0891
609 3 13.9178 7.09688 10.8361
610 1 12.4668 3.57349 12.4997
1613 3 10.5231 5.11179 12.3923
2617 3 12.3702 7.10682 12.746
1614 1 14.2318 5.25521 12.3875
3612 1 16.1596 5.67752 10.7594
3628 2 10.6659 7.21067 14.3535
1119 3 2.1433 7.16987 12.7228
2116 1 3.81901 8.83475 12.763
611 3 1.85649 10.8087 12.6139
3633 2 3.52691 10.5852 14.573
1611 2 5.50034 7.15274 12.6557
70 2 5.39341 8.96301 14.3752
2619 1 7.13415 8.97841 12.5953
1616 2 5.21808 10.7015 12.5739
2114 3 8.9092 7.30182 12.7316
2620 1 10.6484 8.89001 12.6157
2117 2 9.0758 10.4034 12.5433
60 1 7.23266 7.15751 14.377
614 2 12.498 9.07702 10.8133
3122 1 14.3906 8.9042 12.4642
2618 2 15.9738 7.18496 12.5072
2118 2 16.0604 10.6339 12.7106
511 1 16.0027 8.74612 14.4341
1123 2 1.81484 12.2444 10.9305
514 3 2.01343 12.5297 14.4796
3124 3 3.54004 12.5492 12.5911
515 3 5.32885 12.2674 14.3374
3125 2 7.02755 12.6549 12.4613
72 2 7.20628 14.3346 14.2022
1125 2 8.98375 12.4875 10.896
3613 1 10.366 10.4645 10.7303
3616 3 10.7302 12.549 12.4919
1145 3 9.03834 12.6754 14.1812
3141 3 10.7541 10.8439 14.1799
1147 3 12.4253 12.6828 14.1412
1617 1 12.4999 10.8564 12.5664
2622 3 12.6577 14.0332 12.4609
3617 1 14.7227 12.5266 12.4929
1621 3 15.893 12.4958 10.4917
3618 1 16.1442 14.2749 12.5253
1622 3 17.7639 12.4667 12.5076
3123 2 1.69596 13.92 12.5222
2119 3 1.60321 15.921 10.4573
53 3 3.69995 16.2068 12.579
1642 1 5.44682 16.1225 14.1885
1618 1 3.58096 14.2257 10.8684
1619 2 6.91128 14.1143 10.5802
3614 1 5.17287 14.2698 12.5485
2120 3 5.03249 16.1516 10.5098
618 3 6.92704 16.2013 12.2056
1643 3 8.97302 16.0105 14.1279
2625 1 8.9918 16.028 10.6209
3615 1 8.80868 14.338 12.2304
1146 3 14.4624 14.2196 14.3981
1126 2 14.5146 14.5826 10.7764
73 1 10.8364 14.5073 14.4046
54 3 10.6328 15.7895 12.5536
620 1 14.3875 16.0446 12.4883
2642 2 3.74074 12.3849 16.2669
1141 1 2.01826 10.4918 16.0983
2628 2 16.1182 16.1527 10.8818
1150 3 1.97796 16.1658 14.2523
2101 1 0.165391 12.5355 5.464
2629 2 1.81108 2.00475 14.1374
1129 2 3.6721 1.55948 16.0044
2126 3 3.63845 3.49366 14.3711
1131 3 7.38512 1.85165 16.1032
3108 3 8.93107 17.6898 9.0129
3129 3 9.09237 1.74996 14.2469
1133 3 10.7777 1.72774 16.097
506 1 8.89934 3.5839 16.2096
1090 2 3.4803 17.7405 0.128773
26 1 16.2345 0.114082 8.77465
3131 2 12.6142 1.91562 14.3625
1136 1 12.3993 3.68575 15.6425
3086 2 10.7494 0.143378 6.81466
1635 2 5.49296 10.85 16.1142
3132 2 16.2953 1.92507 14.5066
3631 1 14.2632 7.05847 14.2892
1134 3 14.1766 1.69642 16.0829
510 2 12.6782 8.99909 14.3691
2638 1 14.3871 8.68185 16.2831
503 2 1.48056 3.68487 16.0154
1630 2 3.69772 5.29228 16.0726
3136 1 3.83982 7.27286 14.4849
3083 3 16.2624 17.6788 2.01775
61 3 5.47836 3.63208 16.0874
3626 1 5.36115 5.3699 14.2263
2637 1 10.961 8.9065 16.1995
3629 3 8.87573 5.38048 14.5328
1629 1 7.13571 5.32923 16.1744
1632 1 10.7302 5.31644 16.2478
619 2 3.41628 17.8127 10.5216
3138 2 14.5135 3.79226 14.4627
3630 1 12.2081 5.07874 14.1903
2131 2 14.0967 5.38573 16.1424
65 3 16.0448 5.58277 14.3019
1139 3 16.1409 3.4987 16.3534
1633 1 15.8727 6.9836 16.3239
2135 1 15.9098 10.7316 16.2178
1149 2 16.0948 12.8268 14.5394
67 2 1.86705 9.08872 14.2476
504 3 1.90647 7.16113 16.1676
2133 3 3.75623 8.89946 16.1031
1631 3 5.47998 7.23924 16.2016
69 3 7.40368 10.9977 14.2605
3635 3 14.3282 10.7307 14.3207
71 1 9.15141 8.8784 14.5987
2129 2 8.8181 6.96448 16.2124
2134 3 7.04741 9.33065 16.1359
2640 3 0.0751022 12.5524 15.9483
2584 2 -0.0156051 15.8867 1.7176
3561 2 1.58116 0.0749883 1.69201
3640 3 5.43149 17.8143 16.2909
1118 3 0.164752 5.39868 12.6186
3114 3 12.7236 0.273614 12.7597
9 2 8.92603 5.32313 0.118911
1138 2 17.7249 3.71699 14.3861
2066 3 10.6683 -0.0295837 3.7152
1593 2 17.7324 5.36855 8.79995
621 3 -0.0390857 1.87485 15.9732
2089 1 5.50648 0.18223 5.03009
2614 2 17.7104 1.97721 12.4735
3126 3 17.8794 14.3598 10.7687
3101 3 17.7215 12.6948 8.79069
3130 2 12.4761 1.90309 17.5953
2095 3 0.068635 8.9864 8.94887
582 3 0.0252158 17.6354 3.6287
2630 2 5.19106 1.68009 17.8542
3093 3 17.8451 10.928 7.3076
51 3 17.7409 10.8445 10.6674
8 1 3.41076 7.15632 0.113498
581 1 17.7792 12.6231 1.50679
1566 2 7.28838 0.400586 3.38326
2624 3 5.43293 17.8191 12.5361
2593 1 8.62243 0.00740397 5.14939
3079 1 5.40916 17.7123 1.86619
3088 1 16.1055 0.044246 5.73654
1092 3 5.43679 -0.0525344 8.92529
3567 1 0.139112 7.1359 3.55105
3625 3 1.77105 5.33072 17.8079
3634 1 10.8808 11.0046 17.9504
1078 2 16.086 5.20137 0.0585581
2121 3 0.00857654 -0.0177482 14.3
1606 2 17.7452 17.6611 7.12001
3140 2 17.6246 7.25228 14.3835
3146 2 17.8473 14.329 14.5919
3149 3 0.24113 16.0555 16.0851
1114 2 17.7455 12.3829 5.25934
2633 1 0.107169 3.78751 14.1381
20 2 16.2008 16.1076 0.025039
2646 3 12.6914 12.6201 17.7576
3135 3 7.18197 3.4074 17.8042
7 2 5.34412 5.28861 0.109281
505 3 3.53116 7.18845 17.6753
3075 1 16.127 12.399 -0.171847
2075 3 16.1918 8.90255 0.127601
2644 3 10.6615 14.3578 17.8066
3068 1 10.6687 3.43153 0.286734
17 3 5.14344 16.1256 0.228068
2569 1 3.5005 3.519 0.0430644
1077 1 10.5498 6.95741 -0.0524067
3076 3 1.70647 15.9934 -0.0580911
12 2 14.3119 3.25193 -0.0704133
507 2 15.9606 5.44376 17.8787
3627 1 5.43163 5.27038 17.8264
2136 1 1.82021 12.6809 17.8162
3574 1 14.5767 14.2734 -0.0337289
1640 3 16.2172 8.83284 17.7523
64 1 12.4939 5.3876 17.7319
2127 3 3.35287 3.55149 17.5758
3073 3 8.74926 12.4469 0.201829
77 2 16.2494 16.3846 17.6241
3070 1 -0.0773494 10.8884 -0.0727879
3632 3 0.166112 10.8522 17.8249
80 2 3.26977 1.84058 19.6366
3154 1 1.86266 3.48898 19.602
2655 1 3.5647 3.48856 21.2865
3150 1 1.99374 16.0417 18.0684
2145 3 1.69424 1.64033 21.3921
557 2 17.6512 12.782 23.3353
553 1 17.686 9.13599 26.6129
79 3 7.28273 1.54499 19.7267
3649 2 5.36949 3.5344 19.4179
123 3 17.717 8.6834 30.3939
3694 2 0.125477 17.71 28.6981
81 3 11.1181 1.50984 19.5179
2652 1 8.8974 1.85492 21.7782
3203 2 5.49914 0.0702362 34.0607
2138 3 5.47492 12.3764 18.081
2653 2 12.4623 1.50881 21.4992
3147 2 16.0351 12.2634 17.9323
1086 3 8.75467 8.94433 35.7266
522 1 13.9724 1.63652 19.6053
3711 3 16.0222 17.8464 33.7962
2666 2 12.5175 17.6543 19.7397
524 1 3.53463 5.52982 19.6597
84 3 1.78823 7.00894 19.8678
526 2 3.81662 7.25959 21.3788
3648 2 5.29854 5.02572 21.3579
3156 3 7.04317 3.42037 21.2108
525 3 6.93756 5.31864 19.7459
1152 2 5.39224 7.26586 19.5646
2674 1 0.126089 5.32942 26.5719
1711 1 0.0789083 8.82026 33.9646
85 1 8.74306 3.54514 19.6563
1155 1 10.9078 5.27901 19.5783
2656 3 10.8126 3.58275 21.3957
1013 3 12.2768 17.7388 30.4571
87 3 12.61 3.55747 19.7729
88 1 12.6431 5.4959 21.4327
1648 3 10.6687 0.146051 21.3136
3165 1 14.1886 17.7329 21.7374
3651 1 16.1983 3.50609 19.4716
1156 1 14.2856 5.34505 19.4542
3710 2 14.2826 16.0065 34.0375
528 2 17.8814 3.43073 21.5575
529 2 1.8145 9.06061 21.2811
1159 2 3.50892 8.89087 19.6628
3653 3 3.69523 10.4179 21.3922
530 2 1.76399 11.1312 19.5534
3673 1 0.25719 15.9837 27.1318
2146 3 7.3018 0.213269 21.4165
531 1 5.43284 8.81871 21.6339
532 3 5.57704 10.6141 19.9535
1154 2 8.77022 7.05155 20.0271
1651 2 7.30509 8.83744 19.6006
1652 1 10.648 9.06858 19.8899
1161 1 9.34496 8.92322 21.792
1164 3 17.7142 14.3567 21.2833
527 2 12.4763 6.9615 19.7554
86 3 10.5895 6.76864 21.6081
1187 1 17.6987 16.016 23.299
2158 3 5.26857 0.20907 23.0407
1717 3 16.1269 15.9526 32.0784
1653 2 14.2467 9.07802 19.7341
1157 3 16.1431 7.24342 19.7314
1173 1 17.8856 5.1612 26.5419
2651 1 5.30362 -0.0744459 19.6971
2149 3 3.56114 12.6637 19.5743
645 3 14.2039 14.0944 32.0088
2151 2 7.13232 12.5846 19.842
1163 1 5.28129 14.2641 19.7108
2150 2 5.65917 12.5882 21.6976
3145 3 14.1304 14.299 18.0311
90 2 9.08633 10.6202 19.7869
533 3 7.39363 10.7149 21.7338
2153 2 9.08909 12.4272 21.4529
95 1 8.94323 0.0283647 26.8986
2152 2 10.7491 12.4111 19.5049
534 3 12.325 10.5307 19.8255
140 3 -0.0129512 14.2846 32.0305
1190 2 0.0953414 5.10527 30.1151
509 2 7.31966 10.8257 17.987
3172 3 0.109081 3.27343 25.0206
2155 3 14.0825 12.399 19.6307
1656 2 16.0969 10.7241 19.6892
2661 3 16.0306 12.7414 21.397
1659 1 1.66023 14.1056 19.6333
3161 1 1.6912 16.1844 21.4822
1716 3 12.541 15.8875 32.1997
91 2 17.7666 17.9052 21.4438
2664 1 3.58294 16.3368 19.6718
2663 1 7.19856 15.918 19.9504
62 1 8.76596 5.16623 18.0458
1662 2 9.25045 14.24 19.6846
2665 1 10.6635 16.0514 19.5942
3219 3 17.8548 17.7217 32.1601
2140 2 7.16524 14.2673 17.9225
3695 2 9.16358 17.7872 30.5844
2154 2 12.3242 14.2557 19.6082
3166 2 14.326 16.1946 19.669
3183 3 17.6309 14.4639 25.0205
1028 2 8.93009 17.7888 34.0185
2156 1 16.1945 14.4074 19.4003
2660 1 14.1895 14.3005 21.577
92 3 15.9525 15.755 21.5435
1634 1 17.7228 7.15329 17.9938
2721 2 1.74394 17.7879 33.9072
3169 2 3.53564 1.70244 23.0559
93 3 1.584 1.44986 24.8543
3173 2 1.66948 3.43728 23.1774
2174 2 5.31086 18.0209 23.1028
2147 2 5.33927 1.8382 21.1632
3665 3 5.32531 3.43238 23.1333
3658 2 5.21292 1.75731 25.0412
3170 1 7.03152 1.78653 23.3206
3175 3 3.67548 3.39875 24.8128
3666 3 8.78943 3.36942 23.2317
3678 1 0.142529 1.78973 30.196
2657 1 14.0662 3.32912 21.4121
3074 2 12.8192 12.5975 35.6978
3660 3 10.8738 1.59471 23.4582
3663 3 14.3404 1.41955 23.2223
3638 3 5.44445 16.0684 17.9446
3153 1 16.2274 1.56859 21.4534
3668 3 16.0312 3.30614 23.2179
3155 1 1.7944 5.21292 21.6416
2191 1 -0.0216572 12.4225 30.3492
99 3 1.79815 5.41838 24.8206
100 1 3.53582 5.67986 22.7612
540 2 3.38412 7.03474 24.9577
543 1 5.42922 4.86024 25.1662
541 3 5.54048 6.88662 23.5469
542 1 7.00489 4.8722 22.8823
3650 2 8.94908 5.11411 21.3003
102 3 10.4343 5.28699 23.375
1153 3 7.15892 7.42615 21.6823
3179 3 12.4222 3.48659 23.185
549 1 12.4788 5.05188 25.0713
548 1 14.2255 5.14636 22.9838
1170 2 10.5319 7.13832 25.0992
2148 2 14.2489 7.16918 21.4992
89 1 16.0616 5.33185 21.4125
1671 3 16.0191 7.0173 23.1312
98 1 1.51415 7.09553 23.0493
2079 1 1.83339 12.2218 35.5285
2570 1 7.24388 3.66023 35.7088
1177 2 3.68549 8.74731 23.2523
1178 3 7.35226 9.12951 23.4976
546 3 8.62152 6.89763 23.285
1162 1 12.3303 8.758 21.7502
1670 2 12.5114 7.13121 23.5481
1674 1 10.8094 8.71621 23.2964
1675 1 14.1859 8.89115 23.3281
1676 2 12.3056 8.95936 25.2283
1029 3 8.99693 15.9918 32.1413
1655 3 16.0404 8.94173 21.5465
1183 1 16.2534 8.74598 25.044
106 3 1.84507 10.419 23.265
1658 3 1.80151 12.6378 21.4261
1678 1 1.96287 12.3953 24.893
2169 2 3.6003 12.3436 23.161
2168 1 3.52411 14.4204 24.7169
108 3 5.3573 10.783 23.3331
1661 2 3.46899 14.4523 21.5008
1185 2 5.31422 12.7351 24.5978
2167 2 7.51664 12.5187 23.5191
3160 1 7.31464 14.3708 21.7517
2170 1 5.29975 14.2029 23.2029
1160 2 10.8832 10.7336 21.4191
552 1 9.02188 10.7193 23.402
2681 1 8.99644 12.5844 25.1147
2171 2 10.8928 12.4016 23.4148
2682 1 8.93602 14.2533 23.4302
2659 2 12.4616 12.6733 21.5047
1182 1 12.5357 10.627 23.1931
2684 2 14.3022 12.1774 23.3976
1654 3 14.1544 10.6514 21.4386
1677 1 16.1325 10.583 23.2788
2685 1 15.9704 12.474 24.9748
2173 3 15.7899 14.3209 23.454
1184 2 1.65126 14.0987 23.3746
3185 3 3.31969 16.1173 23.1888
2073 2 12.5351 8.954 35.7618
2197 2 14.4514 0.0774059 32.0308
635 2 12.3868 0.195454 34.0597
3163 2 5.20042 16.1446 21.4647
3186 3 6.98599 15.9729 23.1347
576 2 3.62271 10.6602 35.7687
3655 2 8.9434 16.1165 21.6197
1680 2 10.9166 14.1596 24.9412
3675 3 10.6473 16.1035 23.3061
2139 2 3.76668 14.2218 17.989
2658 3 10.6668 14.2453 21.5921
3656 3 12.4038 16.2202 21.4295
2683 1 12.8339 14.3055 23.1385
3676 2 14.3521 16.1309 23.3655
114 2 14.2869 14.5259 25.2821
1689 3 15.9158 16.3129 25.3229
3217 3 10.7288 16.0014 33.9549
1701 2 7.45966 17.6356 28.5917
115 3 5.56068 17.6278 26.8399
2669 1 3.33135 1.69851 26.5631
1168 3 1.93409 3.80301 26.7016
2185 1 0.0110178 3.52206 28.3182
94 3 6.87637 1.80034 26.8283
3176 1 5.441 3.62462 27.1272
3177 1 10.6085 3.52058 24.9661
537 3 8.70381 1.54476 24.9478
2675 2 6.97384 3.46091 25.0822
1171 1 8.84427 3.47896 26.6946
2182 2 8.76797 1.96804 28.4773
2672 2 10.6478 1.68447 26.5259
2177 3 10.7071 17.808 25.1577
4 2 1.67442 5.26364 35.7139
3661 1 12.8467 1.58238 25.0008
105 2 14.1592 3.25604 24.7595
2184 1 12.3599 1.69963 28.6356
2694 2 10.5205 3.62879 28.5079
104 1 12.2996 3.28923 26.9583
2695 3 14.1296 3.60187 28.5115
2703 3 5.40015 17.567 30.3181
538 2 14.2767 1.5611 26.8849
539 2 16.2508 1.55318 24.956
3180 3 15.9039 3.34858 26.6901
3194 3 1.78907 5.48051 28.5224
1669 1 1.77891 7.05291 26.6657
101 3 7.12401 7.09935 25.2438
544 3 3.65004 5.39413 26.8457
3174 2 5.46455 6.91399 27.0296
2676 2 7.12018 5.42511 26.7325
3195 1 4.95556 5.43456 28.7775
563 3 7.21545 7.11947 28.7305
547 1 8.80642 5.37185 24.9546
3197 2 8.85137 5.26596 28.5171
545 3 10.6868 5.28017 26.4369
103 1 14.3502 5.04575 26.6187
3681 1 10.5077 7.13088 28.4444
1070 1 10.6745 -0.0380418 35.6506
1172 3 15.9652 5.25441 24.8225
3685 1 16.1049 5.1861 28.6019
2689 1 3.60213 17.9038 25.1699
1175 2 1.70501 9.10245 24.8585
107 3 3.52317 8.7733 26.5554
2161 1 1.78572 10.7365 26.7241
3687 1 1.6558 9.02192 28.54
3196 1 3.56883 7.34374 28.5742
1176 2 5.40321 8.9145 24.8572
3689 1 5.45219 9.15986 28.5295
3670 2 3.5959 10.5884 25.0937
1179 1 5.26567 10.7557 26.4844
3688 3 3.36817 10.5978 28.371
1181 3 8.92774 9.08255 25.3069
1169 3 8.78444 7.16741 26.7453
2162 3 7.02374 8.84571 26.6618
625 1 8.86286 9.0804 28.5294
551 1 10.7965 10.6704 25.0751
3178 3 12.4775 7.09512 26.6925
110 2 10.6087 8.9915 26.9202
2164 3 14.4329 8.75529 26.7731
3667 1 14.1997 7.11102 24.8958
1174 3 16.2223 6.8145 26.6579
554 1 15.9707 10.6572 26.9469
628 3 16.0746 8.53193 28.6312
2679 3 1.84818 14.108 26.6555
2680 2 3.55836 12.5655 26.4901
629 3 1.93335 12.3899 28.6279
96 3 0.0263903 5.29594 22.9307
112 2 5.25173 14.3057 26.5516
113 1 7.03826 14.4908 24.8645
1679 1 6.99754 12.5783 27.0235
122 1 6.86814 10.7016 28.4748
1006 3 5.17431 12.5538 28.3803
1180 2 6.88185 11.0354 25.1676
109 1 8.66162 10.9918 26.6947
1008 3 9.03932 12.6027 28.5808
2163 3 14.4108 10.4188 25.0147
3181 1 12.7994 10.546 26.8558
3182 3 10.7598 12.5481 26.7235
1681 3 12.6936 12.4909 25.1167
1682 1 14.4078 12.619 26.8474
1011 3 16.367 12.3865 28.6488
1684 2 1.76189 16.1595 25.4017
3064 3 12.284 1.89114 35.7866
1664 2 7.27722 17.8561 21.6095
3187 2 5.15227 16.2029 24.939
1685 3 3.68237 15.9638 27.0136
3674 3 7.18821 15.9498 26.7548
630 1 7.13455 14.4855 28.4479
2654 2 17.7565 1.8388 19.4781
1702 2 14.0257 17.8013 28.485
1686 1 8.78315 15.944 25.1428
2172 2 8.81073 14.3325 26.7747
1688 3 10.594 16.0776 26.7434
3188 2 12.4514 16.0353 24.8896
556 1 12.3674 14.1991 26.5929
2195 3 12.3647 16.092 28.3242
1667 1 12.3867 -0.0815378 26.7332
3184 1 16.2338 14.1501 26.7609
116 1 14.3723 16.1487 26.9861
14 2 10.8038 10.7385 35.8198
2180 1 1.63745 1.84089 28.7316
117 1 3.45889 1.69878 30.4262
2707 2 1.58269 1.80873 32.1129
1005 2 0.0628644 14.1608 28.4981
1690 2 3.73212 3.60447 28.6363
2181 3 5.38187 1.79527 28.7829
3680 1 5.54736 3.54861 30.7581
1030 1 14.2062 17.7518 31.9667
1691 3 7.10839 3.69137 28.5766
118 1 7.38141 1.41853 30.3947
3682 3 8.69403 3.62969 30.583
119 2 10.6275 1.93238 30.3096
561 2 14.4474 1.66892 30.0673
1085 2 5.32515 8.7628 35.7669
1135 2 7.22527 7.02682 17.9672
3215 1 7.24201 16.2191 33.8135
2204 1 17.7982 10.8385 31.944
3193 1 16.1603 1.69372 28.4128
3205 1 16.1421 1.80113 32.1093
623 2 15.9573 3.55263 30.3691
120 1 2.01034 3.69119 30.4182
1001 2 3.46706 5.37966 30.5378
3207 1 1.65814 5.28691 32.3162
1692 3 5.39933 7.39151 30.3775
1191 3 6.95345 5.351 30.3329
1002 3 10.4811 5.29805 30.4628
2693 1 8.704 7.09886 30.8347
3702 1 8.70842 5.42419 32.4933
1003 1 12.5012 3.50699 30.1975
2712 3 10.6411 6.93736 32.5187
3683 3 12.4202 5.32485 28.4972
2200 1 14.0183 3.3961 32.0168
3703 1 12.3564 5.55874 32.2433
3065 3 16.1407 1.58246 35.6289
63 2 10.495 7.0735 18.1069
1693 1 14.1381 5.36398 30.4966
121 1 1.65209 7.22352 30.3068
3706 3 1.6436 8.97629 32.0328
624 2 1.65486 10.7029 30.3253
1718 1 17.8431 16.0337 34.0815
1696 3 3.39166 8.90472 30.3561
2188 3 5.18558 10.489 30.3326
2698 2 10.6624 10.742 28.4026
2189 3 7.04777 8.99112 30.5431
135 3 8.85306 8.97734 32.2658
1697 1 8.96273 10.6669 30.5369
2697 3 10.7539 8.82044 30.3748
2713 1 10.6435 10.7439 32.2027
626 3 12.3724 8.61386 28.44
2187 1 12.4245 6.97084 30.371
3209 2 14.1761 7.1591 32.2299
3684 1 14.3102 6.61217 28.5409
627 3 12.5388 10.5489 30.2504
1694 3 15.8761 7.01061 30.5497
2699 1 14.2737 8.7774 30.3728
139 3 16.1463 8.91459 32.35
3216 2 3.4177 16.0163 34.0937
2677 2 17.8428 5.44793 23.0975
2631 3 8.92831 1.59332 17.9214
3691 3 1.69578 14.097 30.3447
641 1 1.8701 12.5485 32.3415
2700 3 3.69695 12.5205 30.3546
3199 3 7.36365 12.4501 30.1069
642 2 5.15515 12.5688 32.1522
2701 1 8.86563 14.2052 30.3081
3690 1 14.488 10.5952 28.6936
136 3 14.1516 10.5181 32.3015
3200 3 11.0251 12.3326 30.1227
1009 3 12.6627 12.3418 28.4333
3201 2 14.2317 12.3645 30.2487
646 2 12.5027 12.2721 32.261
3652 3 8.37483e-05 10.8213 21.347
2190 1 16.028 10.4926 30.1765
125 2 16.0294 14.206 30.1598
558 2 12.5875 17.5981 26.655
2692 3 17.8272 1.69619 30.4795
2192 3 2.01859 16.0922 28.733
1007 2 3.54558 14.2183 28.6431
1026 2 1.83174 15.9946 32.1336
126 2 3.55974 16.0916 30.5773
97 2 0.138702 7.34321 24.9122
128 2 3.55609 17.8819 28.6787
1027 2 5.52973 16.0771 32.228
3198 1 5.55801 14.0618 30.2606
2193 1 5.25698 15.7427 28.5196
127 1 7.39707 16.1589 30.5487
124 3 11.0907 14.2257 28.5554
2194 1 9.12784 15.843 28.5719
3696 1 10.7538 15.8112 30.5166
2702 2 12.6135 14.1251 30.4146
129 3 14.1933 15.9352 30.333
1699 3 14.4037 14.1329 28.5069
1024 2 15.9423 12.2353 31.6765
3202 3 16.1253 17.8664 30.245
2720 2 15.9063 14.4269 33.8076
2704 2 16.098 15.6949 28.4172
1158 1 0.122586 9.04602 19.6076
3699 3 1.32303 3.27034 33.9502
633 3 3.38069 1.47709 33.8316
644 1 8.88473 12.2913 32.299
2708 3 5.30638 1.50635 32.0703
632 2 7.18307 1.7686 34.2675
3192 1 12.2515 0.0391581 30.2723
2709 3 8.6911 1.67884 32.248
2719 2 17.7402 13.8542 32.164
3204 2 12.373 1.59885 32.0323
634 1 10.5574 2.08554 33.985
2711 3 10.7992 3.53704 32.0771
637 3 12.466 3.54666 33.9036
1016 3 14.3422 1.79584 33.9063
2716 2 6.90256 12.1717 33.8429
133 3 15.9026 3.63651 33.7434
3693 1 0.251208 16.0034 30.2416
3708 1 7.27632 14.3341 32.1548
1018 1 3.49612 5.19235 34.3133
2717 2 10.6576 12.3652 33.7481
131 3 16.0547 -0.0423889 33.7234
1705 1 3.32686 3.23069 32.0721
2710 1 7.00272 3.4062 32.1466
132 1 5.29227 3.15073 34.1091
3208 1 5.07206 5.11142 32.2506
1019 3 6.67193 5.10703 33.8684
2207 2 8.82562 14.1955 34.0839
3701 1 6.74432 7.05407 32.1474
1020 2 8.67709 3.65195 34.0177
1706 1 8.47274 6.89236 34.286
3659 2 6.95857 0.0138573 24.6891
3707 1 3.67647 14.5362 32.0385
3213 1 12.8263 14.331 33.9849
1021 1 12.4919 6.97199 33.8383
1707 3 10.5676 5.08191 34
1708 3 14.1953 5.349 33.906
1713 2 5.33899 14.3488 34.0447
2715 2 3.49857 12.4314 33.8994
3704 3 15.7251 5.20302 32.0877
1709 2 16.0991 7.24136 34.1973
643 3 10.7499 13.973 32.1586
3700 3 3.49859 7.02739 31.966
3211 1 3.18629 10.6709 32.273
1710 2 1.5165 10.7099 33.9282
636 1 1.7666 7.11632 34.1079
134 2 5.19136 8.77012 32.3946
1022 2 5.14747 10.6967 33.7685
3212 2 7.02027 10.5535 32.2017
1712 2 3.52214 9.02177 33.9711
2199 2 5.1043 6.92332 34.1787
2201 2 6.95212 8.8195 34.1162
2202 2 10.7885 9.04963 33.9618
640 3 8.9174 10.7345 34.1132
639 3 17.7382 7.00215 32.2252
137 1 12.2744 8.81114 32.1963
2718 1 14.6558 12.5183 33.8535
2203 3 14.2048 8.89732 33.9859
2714 3 16.2546 10.5774 34.0262
1023 1 12.6198 10.7834 34.0848
2206 1 1.78659 14.391 34.0122
111 3 -0.0488828 12.6045 26.7217
622 1 17.8773 3.40096 28.3855
3158 1 17.8464 5.3435 19.6573
1088 2 14.2095 10.6394 35.6525
1715 2 7.19418 17.8745 32.0754
78 1 0.102785 1.9212 19.4768