ITEM: TIMESTEP
5000
ITEM: NUMBER OF ATOMS
4000
ITEM: BOX BOUNDS pp pp pp
-1.2235759343379726e-02 3.5746295759343425e+01
-1.2235759343379726e-02 3.5746295759343425e+01
-1.2235759343379726e-02 3.5746295759343425e+01
ITEM: ATOMS id type x y z
1 3 -0.129676 1.91106 1.80673
1563 1 0.0502468 0.000568155 0.0694533
2064 3 2.02135 1.65032 0.00104045
3561 1 1.64105 0.0731497 1.83182
564 2 3.48262 1.8052 2.05728
565 3 6.99683 1.71982 1.73535
1565 3 6.99552 0.030665 -0.0189189
2065 2 3.57002 -0.151148 0.0667349
3061 2 5.15261 1.88073 0.163641
3562 3 5.33334 0.0430224 1.94612
566 2 10.666 1.89001 1.70799
1070 2 10.9332 -0.252266 0.0776485
3063 1 8.74041 -0.116211 1.83157
3062 2 8.89871 1.89844 -0.00902607
567 1 14.3787 1.89141 1.93899
2566 2 14.2872 -0.186827 0.138141
3064 3 12.6378 1.63166 0.0782079
3563 2 12.4995 -0.210882 1.84038
2 3 17.6805 -0.147299 0.0404219
3 3 15.9163 -0.320001 1.90527
3066 2 18.0072 1.81598 1.72722
3065 3 15.9302 1.51898 0.0507398
4 1 1.46079 5.47422 0.468885
5 2 1.77071 3.48778 1.94088
6 1 1.98779 7.21225 1.96508
1071 1 -0.196332 5.17651 2.29092
3067 2 -0.00868846 3.65143 -0.0712165
3565 2 -0.0712587 7.13572 0.156182
7 2 5.21697 5.32738 -0.0465529
8 3 3.4314 7.08565 -0.0747465
1072 1 7.13541 5.43167 1.62748
1075 2 5.28389 7.06733 1.62417
1074 2 3.57242 5.30457 1.83063
1567 3 7.15785 7.31936 -0.143897
2570 3 7.18474 3.55717 -0.0141372
2569 2 3.42994 3.7001 0.0676351
3569 3 5.19365 3.56382 1.86646
9 1 8.86129 5.3966 -0.200819
10 2 8.83941 3.54509 1.74029
1077 3 10.8363 7.25369 -0.0460172
1076 2 10.6642 5.08117 1.53882
1568 2 9.01663 6.94518 1.69504
3068 2 10.6203 3.50163 -0.219469
11 3 12.5428 5.23797 0.0369771
12 2 14.3167 3.50517 -0.133865
570 1 12.4834 3.38983 1.54325
1571 2 14.3746 7.17791 0.0445807
1570 3 14.4236 5.40018 1.70863
1569 3 12.672 7.0628 1.87685
572 2 16.0125 3.50252 1.79073
1081 2 16.2517 7.00078 1.70742
1079 3 17.8872 5.18283 1.89453
1078 2 16.0735 5.11923 -0.178181
1573 2 17.8792 3.44771 -0.265323
2070 1 17.639 7.19146 -0.184694
575 2 1.85259 10.6759 1.8861
1082 3 1.87671 8.97354 0.124944
1574 1 0.0715506 9.0558 1.62812
3070 1 0.123603 10.8395 0.168663
576 3 3.77678 10.5073 0.119819
1085 1 5.41354 9.07263 0.00435738
1083 1 5.48592 10.6257 2.0513
1577 1 7.13437 10.5852 -0.0279221
1576 1 7.54611 8.88186 1.62285
1575 3 3.61879 8.74208 1.69588
14 1 10.8667 10.6511 -0.125257
1087 1 9.29833 10.814 1.80584
1086 3 9.13781 8.91098 -0.0887528
2071 2 10.8252 8.81912 1.85302
580 3 12.7439 10.9922 2.02908
1088 2 14.481 10.6991 0.24825
2073 2 12.6064 9.10709 0.219306
2074 1 14.2993 8.66703 1.69735
15 3 18.0739 8.72325 1.83726
1581 1 16.2316 10.8682 1.68482
2076 2 17.7753 10.7734 0.0545634
2075 3 16.0746 8.9597 0.056649
2079 2 2.01472 12.4992 0.128972
2078 1 1.80907 14.267 1.80413
2077 3 0.105168 12.3072 1.81904
2572 2 -0.0330816 13.9814 -0.0700873
2082 2 5.36012 14.261 1.69019
2081 3 3.9055 12.6761 1.86826
2080 1 5.49583 12.4287 0.00248326
2576 2 7.19367 14.2681 0.0283228
2575 2 7.27439 12.4807 1.59934
3071 2 3.72347 14.2198 -0.360476
1583 1 9.05792 14.1887 1.65236
2084 2 10.8897 14.1325 -0.169254
2579 3 10.9472 12.5236 1.67918
3073 2 9.01316 12.3452 -0.0225364
2085 2 12.5283 14.4105 1.82564
2580 1 14.3297 12.6726 1.63605
3074 3 12.549 12.4572 -0.143212
3574 3 14.3258 14.3858 0.262342
581 2 18.0411 12.6057 1.7804
1089 1 18.032 14.439 0.237983
2583 3 16.0851 14.2332 1.76718
3075 2 16.2625 12.6893 0.154572
16 1 -0.0500876 17.7136 0.0169483
2086 3 1.79735 17.8045 1.36473
2584 2 -0.130318 16.2067 1.75042
3076 2 1.94616 15.7914 0.303348
17 1 5.34085 16.0912 -0.11562
1090 3 3.80293 17.6325 0.0114705
2585 3 7.0295 17.7941 -0.0143893
3079 1 5.37093 17.8575 1.79411
3078 3 7.42682 16.0069 1.73509
3077 3 3.73956 15.9363 1.68468
18 1 9.07504 15.7797 -0.12081
1585 3 10.8323 17.9917 -0.209603
3080 3 10.8433 16.2808 1.76591
3578 1 8.96202 17.8645 1.98135
19 1 12.4889 16.2583 -0.0131504
2088 3 14.2283 17.9668 -0.344492
3081 3 14.2041 16.3637 1.7548
3581 1 12.5168 18.011 1.73014
20 2 16.0625 16.0418 0.146733
1586 1 17.9943 16.0179 1.97543
3083 1 16.1943 17.9027 1.67783
3082 3 17.9268 17.8264 0.0360814
584 3 1.83982 1.73353 7.5177
1564 1 -0.127091 0.085916 3.7013
2588 3 1.54285 -0.0589442 5.66281
2563 2 1.70959 1.82017 3.71137
3084 1 -0.272538 0.108197 7.05029
3583 3 0.178485 1.85949 5.49914
22 3 5.12341 1.57736 7.19487
1069 3 3.55672 -0.0141116 3.63247
1566 3 7.09236 0.0826872 3.51016
2089 2 5.32958 -0.0861904 5.56676
2590 1 3.50874 -0.113502 7.25056
2564 2 5.2959 1.88929 3.68023
3085 3 6.95829 -0.0673791 7.14929
3585 1 3.35739 1.66447 5.41969
3584 2 7.18585 1.80912 5.34962
586 1 8.7578 1.74721 7.14048
2066 3 10.6437 -0.0154012 3.6366
2593 3 8.68497 -0.38065 5.5695
2565 2 8.93119 1.99579 3.55329
3086 1 10.5306 -0.219719 7.25404
3586 2 10.3964 1.51224 5.37764
23 3 12.5401 1.71405 7.02105
24 2 14.1316 0.107052 7.12021
25 2 14.4884 1.69969 5.08523
2568 3 14.2206 0.152231 3.37336
2567 1 12.3055 1.88885 3.60059
3087 3 12.4927 0.0801284 5.02629
568 1 17.9419 -0.0178355 3.20758
588 3 15.887 1.62062 7.10702
1587 2 17.6398 0.0432516 7.06237
3088 1 15.9311 -0.082471 5.40328
3588 3 17.7917 1.44952 5.38101
3564 3 16.2787 1.75123 3.55676
27 3 2.01171 5.62407 6.92176
28 3 1.73306 7.12948 5.19632
589 1 0.14478 5.47387 5.14607
2067 2 0.128855 3.5509 3.74171
3090 2 1.92555 3.559 5.61113
3590 2 -0.0363628 6.96098 7.09542
3589 1 0.0879304 3.57091 7.36191
3567 2 0.11245 7.24736 3.45876
3566 2 2.00523 5.41817 3.6832
29 3 3.72261 3.48102 7.19104
593 3 3.50771 7.10646 6.93586
592 2 6.9671 5.28044 5.17228
591 2 7.31581 7.20539 7.03398
590 3 3.76489 5.53498 5.38902
1095 2 5.50052 5.69818 6.98824
1094 1 5.37306 7.36774 5.32549
1073 1 3.76998 7.24652 3.46315
2068 2 7.04963 7.11958 3.55232
2069 3 3.60241 3.5725 3.86073
3593 1 5.30373 3.35868 5.41888
3592 3 7.0987 3.5667 7.19156
3570 3 5.4804 5.26832 3.41039
3568 1 7.23028 3.38856 3.45622
31 1 8.83466 3.37645 5.35965
569 3 10.6694 7.05233 3.41226
594 2 10.7983 5.4561 5.26484
1097 3 8.80416 5.17577 6.99938
1590 3 8.84144 7.0335 5.11511
1589 2 10.5742 7.18309 6.92744
3594 1 10.7782 3.51852 7.05191
3572 2 10.8653 3.74299 3.56109
3571 3 8.77094 5.33837 3.36055
33 3 12.4541 3.48803 5.32463
35 2 14.051 3.4969 7.00508
571 2 12.5368 5.42093 3.60682
595 1 14.3175 7.32093 7.16766
1100 1 14.4158 5.26266 5.31434
1099 3 12.6997 5.55653 6.99468
1592 2 12.8174 7.15391 5.16272
1572 3 14.4705 7.06459 3.59341
3069 3 14.3989 3.61451 3.51393
573 1 16.1646 5.43031 3.56615
1080 1 17.969 3.26665 3.58985
1595 1 16.2075 7.11324 5.47512
1594 1 15.8356 5.28593 7.01554
2094 1 17.7343 6.86505 7.24135
2092 2 17.8165 3.34318 7.18926
2571 3 18.0251 7.09329 3.46715
3092 3 17.8251 5.24991 5.22571
3595 3 16.1534 3.45974 5.37519
13 2 -0.0747016 10.4632 3.35751
597 1 0.0181661 10.6625 6.93235
596 1 1.71853 10.8539 5.11224
574 2 1.52028 8.90224 3.83229
1102 3 1.89546 9.0486 6.99619
1101 1 -0.300928 8.57287 5.38551
38 1 3.66569 10.7987 6.78862
578 2 3.62853 10.8186 3.56658
577 3 5.38229 8.98246 3.47291
1106 3 7.02962 10.6723 6.85374
1104 1 5.63149 10.585 5.0572
1103 3 3.61111 9.00218 5.21433
1084 1 7.31892 10.9847 3.32392
1597 3 7.31218 9.00626 5.02419
1596 2 5.31593 9.09974 6.84326
39 2 10.5224 10.8211 7.24615
599 3 9.11561 10.5869 5.20786
579 3 11.1227 10.7765 3.49713
1107 2 8.96871 9.02144 6.82537
1578 1 9.24142 9.00774 3.36225
2097 1 10.8401 8.87015 5.03691
1108 2 12.6851 11.0042 5.32204
1598 3 12.3337 9.17557 7.008
1579 3 12.513 8.82435 3.48748
2072 3 14.3186 10.8137 3.44918
2099 2 14.298 10.6473 7.14236
2098 2 14.5429 8.84034 5.21215
1599 1 16.2845 8.88825 7.18992
1580 2 16.1876 9.01535 3.39921
2100 2 16.2717 10.6805 5.40191
3093 2 18.069 10.5242 7.03998
3597 2 18.1051 8.90701 5.43268
3573 1 18.1516 10.7616 3.55309
1110 1 -0.086615 14.1821 7.20128
1582 1 1.72604 12.3326 3.44767
2103 3 1.83136 12.3897 7.00981
2102 3 1.86488 14.4797 5.21491
2101 2 0.00593907 12.5257 5.39693
2573 3 0.0134044 14.2094 3.70961
1112 3 7.09914 14.266 7.13185
1600 1 5.34649 12.5626 6.76885
2104 2 5.51465 14.409 5.26617
2083 2 3.74098 14.3823 3.43889
2601 2 7.04824 12.5516 5.38773
2600 1 3.77087 12.4459 5.25285
2599 2 3.55999 14.225 7.32139
2577 1 7.15777 14.0712 3.3782
2574 2 5.68982 12.4565 3.66349
2604 2 8.88194 14.3585 5.26086
2603 1 10.914 13.992 6.88297
2602 2 10.7672 12.3431 5.17834
2578 1 9.13132 12.6845 3.65913
3097 3 8.91781 12.5461 7.09357
3072 3 10.8573 14.3411 3.41331
602 3 14.3325 14.3454 6.96408
1603 1 12.524 12.4243 7.14784
2605 1 14.6534 12.4721 5.09382
2581 1 12.8194 12.7531 3.60939
3098 1 12.5356 14.1654 5.21453
3575 2 14.2343 14.3737 3.54307
1114 1 17.8273 12.5549 5.43014
1584 3 18.1393 14.2748 3.62504
2582 2 15.9728 12.7147 3.44831
3100 1 16.0887 14.2769 5.11484
3099 3 16.1097 12.4472 7.07574
3599 3 17.7391 14.3654 7.10363
582 1 0.00987327 17.815 3.49115
1605 2 2.01288 17.8187 5.46986
1604 2 1.82855 15.8174 7.25425
3104 3 -0.0178603 16.2568 5.41288
3103 2 0.138797 17.923 7.42612
3576 1 1.83631 16.0883 3.45914
2087 3 3.51742 17.8724 3.57018
2607 2 5.2508 18.041 5.45565
2586 3 7.18214 17.9064 3.52481
3107 2 6.99428 17.9548 7.13765
3106 1 5.31595 16.0514 7.18954
3105 3 3.72732 18.0521 7.12342
3602 1 3.90673 16.1373 5.31353
3601 3 7.01713 16.2047 5.19757
3577 3 5.38496 16.038 3.42235
1091 1 10.5759 18.0496 3.44048
2107 1 9.01884 16.4235 7.46597
2608 3 8.86837 17.875 5.29251
3109 1 10.8474 17.8531 7.24496
3603 3 10.9134 16.0147 5.36727
3579 3 9.09944 15.7559 3.48146
41 2 14.4096 16.0785 5.34554
2610 2 12.5905 17.8808 5.27365
2609 1 14.1972 18.0301 7.24886
2587 2 14.4918 17.9771 3.56655
3604 1 12.6834 16.1381 6.98105
3580 2 12.6803 16.266 3.40591
583 3 16.0822 16.2484 3.77941
1606 3 17.8638 17.498 7.17332
2109 1 15.8224 16.1606 7.22722
3112 3 16.4583 17.9007 5.42637
3110 2 17.9586 15.9477 5.37585
3582 2 17.9203 17.8414 3.4942
21 1 0.164487 2.22514 9.22479
604 3 0.253343 0.138165 10.6983
2110 1 1.91449 1.79257 10.8535
2589 1 1.57732 -0.0273137 8.94884
585 1 7.00753 1.85399 9.00258
1092 2 5.25288 0.0122757 8.93403
1608 2 6.7989 0.0601147 10.6138
1607 1 3.47004 -0.229653 10.7719
2111 1 5.31188 1.94977 10.7874
2591 3 3.7465 1.98464 9.0632
1116 2 10.5032 -0.049287 10.762
2612 2 8.908 1.70229 10.7436
2592 3 10.6569 1.92092 9.13701
3587 1 8.98677 -0.124318 9.0807
587 2 14.1628 1.92547 8.86256
1609 3 14.1683 0.0193072 10.852
2090 3 12.4179 0.166437 8.64111
2613 3 12.1242 1.89837 10.7989
26 2 15.8378 0.0816205 8.94922
2594 1 17.5539 1.80789 9.20607
3116 3 15.9166 1.697 10.6993
3115 3 17.6238 -0.0850079 10.7921
1093 3 1.79253 7.26021 8.62677
2091 3 2.03637 3.85462 8.89375
2615 1 0.32499 3.42268 10.8311
3118 3 -0.205093 7.07416 10.6737
3117 2 1.64008 5.47959 10.9095
3089 2 -0.054687 5.2128 8.91387
30 2 5.2873 3.87187 8.72733
45 3 7.37052 7.29858 10.8078
1096 3 3.29992 5.66597 9.06393
2112 2 7.13466 3.64553 10.4141
2616 2 3.84079 3.68141 10.8132
3091 3 7.21017 5.38329 8.82007
3608 3 3.62404 7.21456 10.8483
3607 3 5.4555 5.45499 10.6822
3591 3 5.67631 7.12 9.11909
46 3 10.6423 7.1881 10.4078
1098 2 10.7942 5.60102 8.68736
1591 1 9.20056 3.64256 8.72479
1588 1 9.06355 7.2099 8.73525
2113 2 10.766 3.92235 10.682
3609 3 8.98285 5.32851 10.6494
32 2 12.4474 7.17053 8.73507
34 2 12.4283 3.41549 8.68543
36 2 14.151 5.64426 8.94358
609 2 14.2991 7.29358 10.6458
3119 2 14.1931 3.51655 10.6154
3611 2 12.4525 5.52939 10.6106
1120 3 17.8628 3.42392 10.7116
1615 1 17.6609 6.998 10.4971
1593 3 17.7889 5.11531 8.91463
2093 2 16.1773 7.24287 8.75841
2595 3 15.7247 3.64775 8.85503
3612 3 16.0445 5.4515 10.5521
48 3 1.83794 8.85252 10.5128
2095 2 -0.177407 8.70105 8.51867
2596 1 1.92476 10.851 8.85373
3120 3 -0.0263105 10.7201 10.8741
37 1 3.78081 8.81981 8.83842
49 3 5.41794 9.04521 10.6092
612 2 7.42881 10.751 10.6128
1105 3 5.27838 10.8891 8.70449
2096 3 7.1343 8.82956 8.85888
3121 2 3.68535 10.8471 10.6755
613 2 9.06328 8.93534 10.6159
598 2 10.7935 9.14943 8.87032
3613 3 10.8896 10.8397 10.5421
3596 1 9.11772 10.6041 9.00369
50 3 14.0956 10.5891 10.7338
614 2 12.4163 8.89621 10.3991
2598 1 12.4789 10.7305 8.98184
2597 3 14.3174 9.01892 8.89516
51 3 17.6323 10.8094 10.755
600 1 17.8515 9.12707 8.83724
1122 2 16.1872 8.82173 10.6585
1109 1 16.0981 10.861 8.91112
616 2 -0.0833123 14.2947 10.752
601 3 0.0777154 12.3391 9.13978
1123 3 1.64767 12.4033 10.9448
3094 3 1.61795 14.1238 8.80719
1124 3 5.41486 12.3543 10.8884
1111 1 5.23232 14.1484 8.76654
1619 3 7.20449 14.1767 10.6682
1618 3 3.60091 14.2283 10.6083
1601 3 7.44716 12.4155 8.75854
3095 3 3.53959 12.4765 8.80086
617 1 10.7517 14.6612 10.7321
1125 1 9.13285 12.5082 10.6648
3096 3 9.09125 14.3237 8.80343
3598 1 10.5321 12.4641 8.99369
1126 1 14.0466 14.4388 10.6911
1113 2 12.2699 14.6528 8.62568
1620 1 12.6704 12.4442 10.4631
1602 2 14.2495 12.4594 8.71439
1621 1 16.0446 12.5909 10.8488
3126 1 17.9047 14.1885 10.646
3102 1 16.1717 14.0456 9.05008
3101 3 17.78 12.4609 8.68148
1623 3 -0.0908337 18.0838 10.7582
2119 2 1.97064 15.8005 10.4123
2606 3 1.98486 17.5991 8.75159
3600 2 0.107284 15.8571 8.92226
40 3 7.09503 16.0292 8.77551
619 1 3.39416 18.0565 10.7071
1127 1 6.99277 17.8832 10.7604
2120 1 5.27134 16.0851 10.5242
2106 1 3.73925 16.184 8.93886
2105 3 5.53077 18.0282 9.01915
1624 1 10.9013 17.9947 10.6046
2108 1 10.9235 16.2655 8.88439
2625 3 8.88374 16.1463 10.4714
3108 1 8.86152 18.0237 8.84901
603 1 14.3812 16.1157 8.82564
1115 2 12.6015 17.8894 8.92441
2626 3 12.558 16.2554 10.9378
3620 3 14.1669 18.0679 10.7121
2628 3 16.1596 15.9621 10.8192
2611 3 17.9134 15.9427 9.0627
3127 3 17.8556 17.9083 10.6917
3111 1 15.9807 17.7377 8.93281
42 1 0.124557 1.83504 12.5588
2121 3 0.0514579 0.0486699 14.3289
2629 1 1.6453 1.86209 14.3933
3113 2 1.78768 0.222983 12.5477
43 2 3.93267 2.02595 12.6134
605 1 7.17868 2.10073 12.2598
1625 1 7.3261 0.340788 14.1526
2123 3 3.5268 0.179323 14.2555
3128 2 5.51954 1.89257 14.3964
3605 3 5.5369 -0.130844 12.6474
606 3 10.7601 1.76122 12.5565
1627 1 10.5202 -0.058151 14.1188
3129 1 8.51714 1.91315 13.8163
3606 1 8.58673 0.000532209 12.2025
1117 1 14.0909 1.84722 12.4049
2632 2 14.3397 0.112087 14.4313
3131 3 12.2644 1.97786 14.3588
3114 3 12.4203 0.0123128 12.4767
44 3 16.0801 -0.263315 12.5518
501 3 17.7344 -0.0377878 14.4025
2614 1 17.8316 1.65703 12.494
3132 1 16.1803 2.09138 13.9766
607 3 1.93089 3.69453 12.5628
1119 2 1.75718 7.26238 12.4881
1118 2 0.055853 5.5637 12.6498
2634 3 -0.105023 6.93214 14.6609
2633 2 0.0344422 3.55595 14.3814
3624 1 1.71235 5.41934 14.2785
60 3 7.00802 7.26454 14.1401
608 2 5.50174 3.6802 12.5317
1612 1 7.46601 5.39629 12.1477
1611 3 5.58912 7.51499 12.4211
1610 1 3.6676 5.48825 12.5465
2128 1 6.9434 3.79039 14.3043
2126 1 3.66415 3.5705 14.372
3136 3 3.50306 7.34914 14.1766
3626 2 5.24918 5.43906 14.262
1613 3 10.8349 5.55241 12.4336
2114 2 9.16524 7.33363 12.4467
3137 1 10.601 3.72705 14.3406
3629 2 8.73028 5.47292 14.1843
3628 3 10.8128 7.21406 14.2778
3610 3 8.88913 3.69638 12.4484
610 3 12.5181 3.70981 12.6239
1614 1 14.2899 5.24209 12.3497
2617 1 12.6205 7.33935 12.3016
3138 3 14.1681 3.55856 14.2203
3631 3 14.2688 7.00141 14.0135
3630 3 12.5373 5.62415 14.4666
47 2 17.8656 5.25377 12.468
65 2 16.0674 5.41341 14.1883
1138 2 17.8037 3.68152 14.3771
1121 3 15.8774 3.54835 12.3542
2618 2 16.1737 6.87031 12.3427
3140 2 17.7523 7.05359 14.2611
67 2 1.62914 8.84746 14.5202
611 2 1.8827 10.3748 12.652
2115 2 -0.0839387 8.7264 12.2462
2636 1 -0.0741337 10.7759 14.1387
69 3 7.07696 10.814 14.1956
70 1 5.39828 9.23519 14.1476
1616 3 5.3893 10.7275 12.474
2116 1 3.57059 9.01098 12.387
2619 1 7.22113 9.33965 12.257
3633 3 3.49021 10.6538 14.2592
71 1 8.79544 8.93487 14.2367
2117 2 9.13583 10.8587 12.4452
2620 1 10.788 8.91815 12.1931
3141 2 10.6678 10.7908 14.0973
510 2 12.6161 8.91129 13.9975
1617 1 12.2413 10.6519 12.6073
3122 2 14.4593 8.97663 12.4203
3635 2 14.3198 10.7061 14.2324
511 3 16.0706 8.86578 14.2439
615 1 17.7855 8.93731 12.5024
1639 1 17.9977 10.6172 14.2484
2118 3 16.0906 10.7169 12.5942
513 2 0.140496 14.15 14.5574
514 3 1.69564 12.6458 14.3755
2621 2 -0.390588 12.6963 12.4917
3123 2 1.70127 14.3366 12.5108
72 1 7.19493 14.4161 14.3178
515 3 5.42062 12.5866 14.2344
516 1 3.50898 14.4369 14.3442
3125 3 7.13684 12.545 12.482
3124 1 3.48602 12.7244 12.5239
3614 3 5.2816 14.4622 12.6788
73 3 10.6439 14.2617 14.1649
1145 3 8.99446 12.5294 14.1038
3616 3 10.981 12.5986 12.3332
3615 3 9.03429 14.5069 12.3762
1147 1 12.5808 12.4253 14.4834
1146 1 14.3439 14.2347 14.2319
2622 2 12.6693 14.3813 12.5598
3617 2 14.1025 12.3959 12.5075
1149 3 16.0406 12.517 14.1343
1622 1 17.924 12.652 12.5056
3146 1 17.9377 14.285 14.2227
3618 1 16.1481 14.3165 12.5277
52 3 -0.0349312 16.2171 12.3014
518 3 -0.221442 17.9896 14.1861
1150 3 1.47285 16.1952 14.138
2623 3 1.74081 17.9138 12.3838
53 2 3.36197 15.9496 12.5359
618 3 7.16088 16.0436 12.3252
1151 1 3.61345 17.7813 14.128
1642 2 5.32713 16.3076 14.3064
2142 3 7.02163 17.9708 14.1051
2624 1 5.34873 17.8623 12.4564
54 2 10.6998 16.1837 12.5162
1643 3 8.96148 16.1858 14.1478
2649 1 10.6106 17.9557 14.2224
3619 3 9.02983 17.8104 12.334
55 2 12.3032 18.0766 12.3594
620 3 14.3742 16.0706 12.4918
1646 1 12.5305 16.0484 14.0559
1644 2 14.0748 17.8592 14.0424
56 1 15.9029 17.6616 12.4387
1647 3 16.152 16.2279 14.4405
2627 3 17.8184 16.0394 12.5628
3644 3 17.889 17.8532 14.0991
57 2 1.82955 0.0749632 16.2467
621 1 -0.066468 1.74146 16.2657
1128 2 -0.014824 0.0298276 17.7991
2122 3 1.83285 1.78033 17.95
58 2 5.44082 0.234403 15.9084
1132 1 7.06288 0.0124242 17.9072
1131 2 7.0741 1.84652 16.4022
1130 1 3.56181 0.110391 17.6594
1129 1 3.40394 1.97759 15.9557
2630 2 5.35025 2.02197 17.9732
1133 3 10.634 1.84098 16.0271
1626 2 10.7003 -0.0397149 17.7507
2631 1 9.04201 1.96675 17.8655
3621 3 8.92837 0.360235 15.9146
59 2 12.1913 0.10015 16.0283
1134 3 14.3049 1.96233 15.917
2124 2 14.1728 -0.12616 17.9874
3130 3 12.4545 1.90143 17.7813
502 2 16.0161 -0.124507 16.3481
3133 1 16.1365 1.80622 17.7938
3623 3 17.7953 -0.168835 18.0425
3622 3 17.7192 1.80168 15.9654
503 2 1.77466 3.71626 16.1688
504 3 1.74702 7.1615 16.2348
1628 3 0.0986119 5.25769 16.3641
2125 2 0.111492 3.61203 17.8777
3134 1 -0.101907 7.30736 17.9503
3625 1 1.71701 5.41224 18.0179
61 2 5.44005 3.80933 16.2427
505 1 3.68373 7.24707 17.9979
1135 3 7.16114 7.29051 17.8028
1631 1 5.26691 7.20857 15.9545
1630 1 3.59237 5.44931 15.9851
1629 3 7.20925 5.26109 16.0887
2127 1 3.59889 3.35611 17.7098
3135 2 7.18613 3.74552 17.9669
3627 3 5.42533 5.53808 17.8541
62 1 8.91459 5.60042 17.7982
63 1 10.6133 7.64601 17.8131
506 2 8.83201 3.69119 16.2375
1632 2 10.721 5.52561 16.246
2129 2 8.89279 7.36755 16.1387
2635 2 10.5991 3.68566 17.6712
64 1 12.2125 5.59969 17.973
1137 3 14.2729 7.07236 18.0498
1136 2 12.3688 3.78908 16.0934
2131 1 14.3294 5.39365 16.2691
2130 1 12.694 7.29329 16.0259
3139 2 14.2511 3.60265 17.7729
66 1 17.7875 5.53449 16.1496
507 1 16.0688 5.4947 18.034
1140 3 17.6461 3.83311 17.8948
1139 1 15.9008 3.75163 16.0705
1634 3 17.6671 7.14604 17.8208
1633 3 15.8224 7.23249 16.0732
508 2 1.70288 9.03761 17.9971
1141 3 1.86468 10.8037 16.1255
2132 2 0.00964811 9.09792 16.1608
3632 2 0.0225838 10.6746 17.932
68 3 3.51999 10.9402 17.7852
509 2 6.97554 10.841 17.74
1142 3 5.43204 9.04343 17.7672
1635 3 5.4557 10.9771 15.9451
2134 2 7.0721 9.21461 15.7922
2133 1 3.57884 8.83722 16.27
1143 1 8.57061 9.12317 17.6729
1636 2 8.82493 10.6976 15.9659
2637 3 10.8485 8.93746 15.9335
3634 3 10.5204 10.5425 17.7973
1144 3 12.2535 10.6838 16.2983
1638 3 12.5806 8.79923 17.8284
1637 2 14.1103 10.9038 17.7756
2638 1 14.1115 9.07248 16.1752
512 1 17.8887 9.02025 15.9285
1640 2 15.9357 9.21623 18.0124
2135 3 16.1048 10.4799 15.9816
2639 2 18.2119 10.8425 17.8488
2137 3 -0.172449 14.353 17.7526
2136 1 1.75303 12.5064 17.6963
2641 1 2.08143 14.6358 16.0099
2640 1 -0.02226 12.1956 16.2849
2140 2 7.32952 14.1928 17.802
2139 3 3.5545 14.0486 17.8725
2138 1 5.2921 12.6486 17.7994
2643 3 5.4097 14.3153 16.0126
2642 3 3.63504 12.631 16.115
3142 1 7.29811 12.7528 15.7337
2141 3 9.00703 14.3791 16.0309
2645 2 8.83656 12.3765 17.9642
2644 3 10.7865 14.226 17.7944
3143 2 10.803 12.6046 16.2199
2647 2 12.4467 14.5093 15.9016
2646 3 12.5063 12.5275 17.7308
3145 3 14.4245 14.2142 17.5982
3144 1 14.3155 12.3761 16.0365
517 3 17.8033 14.0873 18.0096
1148 1 17.9614 12.4741 15.8931
3148 1 16.2401 14.4118 15.9417
3147 3 16.0337 12.2214 17.599
2648 3 1.74007 18.053 16.1865
3150 3 1.74978 16.0325 18.0624
3149 2 -0.016536 16.2422 16.1881
3636 1 -0.0106752 17.8669 17.7218
1641 3 3.77444 18.0422 18.0249
2143 3 7.34559 17.7929 17.8322
3640 1 5.58335 17.9935 16.0119
3639 3 7.16598 16.006 16.1916
3638 1 5.28385 15.9639 17.808
3637 2 3.55761 16.1612 16.04
74 3 9.00273 17.7244 16.1311
519 1 10.7965 17.6626 18.0013
3642 1 8.90328 16.0281 17.8343
3641 2 10.7576 16.3021 16.0237
75 2 12.4635 15.9633 18.1134
76 2 12.5488 17.5642 16.0577
1645 1 13.9336 17.7579 17.8526
3643 1 14.2524 15.9138 15.8047
77 2 16.2727 16.1936 17.713
2144 1 18.1149 16.2111 16.4332
2650 2 17.846 17.8429 18.0193
3645 1 16.004 18.3762 15.8449
520 1 -0.0668495 0.267286 21.3951
78 3 -0.0331022 1.85159 19.495
2145 1 1.70486 1.8413 21.2869
3151 2 1.66314 -0.040813 19.4542
521 3 3.78891 0.193038 21.4495
80 3 3.643 2.08088 19.543
79 2 7.17736 1.9596 19.4794
2147 1 5.39345 1.93684 20.9957
2146 2 7.20097 0.280301 21.1392
2651 3 5.48452 0.0252713 19.4645
81 3 10.7853 2.14994 19.6312
1648 1 10.6867 -0.143889 21.4375
2652 3 9.14573 1.94163 21.4424
3152 1 8.86363 0.0693682 19.415
522 3 14.1985 1.71607 19.5813
1649 1 14.1143 0.0512595 21.4307
2653 2 12.38 1.9722 21.4053
3646 1 12.3507 0.149277 19.6287
82 3 17.7466 0.0581597 21.524
2654 1 18.0274 1.82536 19.4283
3153 2 15.766 1.57148 21.4361
3647 2 15.9043 0.0725435 19.4412
523 1 0.0790466 5.44857 19.6513
84 3 1.82831 7.28533 19.5319
83 3 0.0581352 7.25614 21.4536
1650 1 -0.168212 3.75226 21.546
3155 1 1.74782 5.35567 21.4302
3154 2 1.7622 3.60458 19.5816
524 2 3.62024 5.56473 19.6525
525 2 7.17847 5.4985 19.652
526 2 3.79787 7.06029 21.4039
1153 3 7.12627 7.24009 21.4149
1152 1 5.33564 7.23778 19.6347
2655 3 3.55137 3.80768 21.4498
3156 3 7.03119 3.74421 21.1792
3649 2 5.38383 3.9914 19.6972
3648 2 5.44263 5.48943 21.4726
86 1 10.8197 7.5483 21.2896
85 3 8.98664 3.6972 19.6827
1155 1 10.7559 5.42501 19.6839
1154 1 8.83284 7.21451 19.5398
2656 2 10.8754 3.75131 21.3098
3650 2 8.80963 5.46843 21.5682
527 2 12.3884 7.03127 19.6229
88 1 12.7205 5.35119 21.3348
87 1 12.4666 3.70235 19.5274
1156 1 14.4113 5.26893 19.5093
2148 3 14.3536 7.25259 21.2913
2657 3 14.5927 3.66364 21.6258
528 3 17.8452 3.69114 21.2852
89 3 16.0865 5.29415 21.5744
1157 1 16.3019 7.47834 19.7578
3158 1 17.6059 5.4546 19.6106
3157 2 17.7439 7.25285 21.3223
3651 1 16.0673 3.17771 19.7118
529 2 1.57804 9.14554 21.2149
530 3 1.68055 10.8459 19.6306
1158 1 -0.304361 8.86545 19.4157
3652 3 -0.00391056 10.818 21.6065
531 1 5.38835 8.99466 21.5766
532 2 5.319 10.9449 19.4072
533 3 7.12338 11.1326 21.2357
1159 1 3.73517 9.30566 19.8865
1651 1 7.07717 8.89932 19.7816
3653 1 3.4916 10.9493 21.4344
90 1 8.69519 10.6652 19.5119
1161 3 8.86109 9.02193 21.1987
1160 3 10.6429 10.5293 21.4878
1652 2 10.6887 9.01367 19.5906
534 3 12.9255 10.9932 19.8207
1162 3 12.6729 8.98807 21.3848
1654 1 14.2179 10.9722 21.5745
1653 3 14.3245 9.14945 19.675
1656 1 15.8035 11.1535 19.7839
1655 3 16.0276 9.30576 21.337
3159 1 17.8978 10.7555 21.5979
3654 1 17.8814 8.97866 19.7615
1660 1 -0.267344 14.3189 21.4594
1659 1 1.59664 14.2327 19.689
1658 3 1.56911 12.762 21.7579
1657 3 -0.115918 12.5138 19.5404
1163 3 5.52723 14.4429 19.3904
1661 3 3.53418 14.1171 21.2981
2151 2 7.19351 12.5682 19.4354
2150 2 5.40594 12.5371 21.4542
2149 2 3.52055 12.4036 19.6752
3160 2 7.41249 14.3419 21.4045
1662 3 9.05835 14.56 19.4796
2153 1 9.03332 12.4359 21.723
2152 3 10.6082 12.4325 19.3291
2658 3 10.4504 14.1697 21.4779
2155 2 14.3457 12.6425 19.474
2154 1 12.4974 14.3164 19.6547
2660 1 14.2596 14.5548 21.4527
2659 2 12.4375 12.8388 21.3853
535 2 18.0305 12.3036 20.0481
1164 3 17.6325 14.4398 21.6483
2156 2 16.3268 14.3171 19.6603
2661 1 16.0512 12.5949 21.5566
1165 2 0.0244272 17.9693 21.52
2157 3 1.95743 17.8703 19.9203
2662 3 0.0679493 16.3405 19.9133
3161 2 1.86911 15.9506 21.6069
1664 3 7.01073 17.5759 21.7623
1663 1 3.68625 17.6871 21.376
2664 3 3.60474 16.0202 19.5649
2663 2 7.0863 15.9077 19.5926
3163 1 5.25741 16.132 21.4504
3162 3 5.61171 17.7479 19.5756
536 3 10.7242 18.0411 21.2235
2665 2 10.5622 16.1617 19.9302
3164 3 8.76256 17.6604 19.6932
3655 1 8.66449 16.1315 21.5856
2666 3 12.4258 17.9154 19.7075
3166 1 14.2665 15.8431 19.5589
3165 2 14.3585 18.1541 21.4041
3656 2 12.6184 16.1907 21.4428
92 1 15.9933 15.9997 21.3033
91 2 17.8776 17.8837 21.6012
1166 2 17.9998 16.1616 19.5728
3167 1 16.0366 17.7805 19.6251
93 3 1.74571 1.83828 24.9188
1665 3 1.88098 0.133605 23.3015
2667 2 -0.161284 -0.0133179 24.9087
3168 3 0.117049 1.9474 23.0954
2158 2 5.60265 0.15211 23.0031
2670 2 3.56369 -0.036098 24.9903
3170 3 7.2906 1.69064 23.0764
3169 1 3.58044 1.81541 23.0305
3659 2 7.06278 -0.0466188 25.0981
3658 3 5.29034 1.78967 24.8105
537 3 8.87168 1.60807 25.0084
2671 3 8.76443 -0.113962 23.2314
3171 1 10.9333 0.024355 24.8793
3660 1 10.6581 1.86164 23.2228
2673 1 12.2776 0.2083 23.0806
3663 3 14.1641 1.53219 23.2041
3662 1 14.1805 0.0384129 24.9105
3661 2 12.3064 1.59589 25.1543
539 2 15.8939 1.74274 25.1666
1167 1 17.7407 -0.0448602 24.9713
1668 3 17.5999 1.82145 23.2171
2160 1 16.0358 -0.131224 23.1194
99 2 1.63067 5.38542 25.2101
98 2 1.84425 7.18125 23.4649
97 2 -0.0160802 7.20628 24.8691
96 2 0.116788 5.42644 23.208
3173 2 1.92993 3.81088 23.3459
3172 1 0.241512 3.64112 25.0279
540 1 3.58855 7.13068 25.1317
541 2 5.40391 7.18256 23.2071
542 3 7.07379 5.36433 23.3941
543 2 5.28836 5.26874 25.15
101 2 7.15712 7.18997 24.9975
100 2 3.54749 5.62099 23.2463
2675 2 7.41126 3.63117 24.9572
3175 3 3.55596 3.87252 25.0692
3665 3 5.4865 3.29699 23.0316
546 2 9.05272 7.18535 23.4113
547 3 9.22308 5.36684 24.9925
102 1 10.9765 5.34472 23.227
1170 2 10.6439 7.26744 25.0679
3177 3 10.5903 3.36858 24.9013
3666 2 8.70822 3.79305 23.1217
548 3 14.0949 5.44807 23.4089
549 1 12.1811 5.58871 24.9995
105 1 14.1316 3.90447 25.3669
1670 1 12.5882 7.27401 23.0763
3179 3 12.5432 3.58542 23.4767
3667 2 14.1082 7.29773 25.2521
1172 2 16.0957 5.5736 24.9327
1672 3 17.7495 3.57718 25.0911
1671 2 15.8873 7.36981 23.4732
2678 2 17.6241 7.14301 25.0651
2677 2 17.6012 5.52233 23.0792
3668 3 15.9047 3.47269 23.4218
550 1 0.106143 8.9201 23.1034
106 2 1.95449 10.9211 23.2662
1175 1 1.95174 8.90443 25.1458
3669 3 -0.0735279 10.606 24.9211
108 2 5.17832 10.8987 23.0972
1180 2 7.11214 10.4309 24.9612
1178 2 7.21659 9.00362 23.1205
1177 2 3.42087 9.08033 23.0215
1176 1 5.32333 9.03598 24.8107
3670 1 3.75743 10.6815 24.9007
551 3 10.5472 10.871 25.1725
552 1 8.85523 10.6594 23.399
1181 3 8.81117 8.85928 25.0986
1674 3 10.9356 9.01755 23.2867
1182 3 12.2545 10.8677 23.6187
1676 2 12.7003 9.23537 25.4157
1675 2 14.4232 9.0468 23.5094
2163 1 14.2719 10.8758 25.2234
1183 1 15.8801 9.16273 25.2435
1677 1 16.0703 10.7529 23.1977
2165 2 17.9985 10.654 25.1514
3671 1 17.8926 8.86717 23.2088
555 2 -0.0451549 14.4711 25.1243
1184 1 1.92265 14.5724 23.3225
1678 3 1.88719 12.5523 25.0881
2166 3 -0.136974 12.8294 23.3571
113 3 7.11818 14.3475 25.5001
1185 3 5.2699 12.5797 25.0852
2170 1 5.53829 14.1698 23.1697
2169 2 3.64159 12.5285 23.1102
2168 1 3.57225 14.382 24.8559
2167 3 7.25799 12.4902 23.2476
1680 3 10.7737 14.3679 24.8863
2171 1 10.7832 12.6272 23.3672
2682 2 8.95795 14.5578 23.4526
2681 2 8.71085 12.6267 25.1023
114 2 14.527 14.2889 25.4579
1681 1 12.7369 12.7108 25.0519
2684 3 14.4936 12.7213 23.4562
2683 2 12.7836 14.2556 23.5232
557 1 18.0306 12.5584 23.1284
2173 1 16.097 14.4246 23.5485
2685 3 16.4169 12.3656 25.2305
3183 3 18.098 14.3154 24.7633
1684 1 1.88325 16.046 24.8427
1683 2 1.82379 17.6093 23.1638
2688 2 -0.0259325 15.7695 23.1227
2687 2 0.167497 18.0241 25.0173
2175 2 7.08367 17.7592 25.0124
2174 3 5.40657 17.9186 23.5168
2689 2 3.45408 18.0508 25.096
3187 3 5.38261 15.8762 25.1672
3186 2 7.14095 16.0706 23.3093
3185 1 3.85014 15.7158 23.0579
1687 3 8.89184 17.784 23.2169
1686 2 8.92838 15.7999 25.0695
2177 1 10.5199 17.7682 25.0259
3675 2 10.7682 15.9814 23.1186
2178 3 14.1302 17.76 25.2818
2690 3 12.5919 17.8559 23.3885
3188 2 12.4383 16.2605 25.2155
3676 3 14.1361 16.0671 23.3064
1187 1 17.7873 16.3086 23.2592
1186 3 17.8651 17.9214 25.1287
1689 1 16.0061 16.1161 25.1561
3189 3 16.0938 17.7995 23.0285
1188 3 0.0354529 0.0833311 28.5782
2180 1 1.87576 1.88147 28.8936
2668 3 1.70323 0.367328 26.8397
3657 1 -0.110409 1.88431 26.855
559 1 6.9368 0.00165964 28.4079
94 1 7.34911 1.82206 26.6636
1189 3 3.26911 0.144655 28.4622
1666 1 5.36127 0.00372963 26.6143
2181 2 5.40636 1.73411 28.4838
2669 1 3.92574 1.75334 26.697
560 2 10.8289 -0.0930394 28.5083
95 1 9.01321 0.0424998 26.8291
2182 2 8.88945 1.53376 28.6524
2672 3 10.788 1.7258 26.9933
538 2 14.2438 1.52805 26.7594
1667 2 12.444 -0.181889 26.9538
2184 1 12.5501 1.75392 28.6655
2183 1 13.9086 0.0630001 28.7256
2159 3 17.5446 1.76633 26.9176
3193 1 15.9049 1.73449 28.6157
3679 2 17.7888 -0.0324036 28.4676
3664 2 16.1243 -0.130024 26.8171
1168 1 1.8724 3.30202 26.9554
1669 3 1.68994 7.15428 26.9534
2186 2 -0.310552 7.41876 28.6478
2185 3 0.0806369 3.39037 28.666
2674 3 -0.0541498 5.03951 26.7725
3194 1 1.52639 5.40502 28.4786
544 3 3.51938 5.52218 26.8157
563 1 7.10483 7.07323 28.5811
1691 1 7.41338 3.51676 28.5946
1690 2 3.5814 3.46591 28.5873
2676 1 7.36809 5.448 26.7217
3196 2 3.57224 7.21724 28.443
3195 1 5.43746 5.22285 28.4822
3176 3 5.63176 3.65137 26.6923
3174 2 5.21449 7.02178 26.7238
545 2 10.4536 5.40193 26.8477
1171 1 8.98218 3.67233 26.9149
1169 1 8.86764 7.1143 26.8373
2694 2 10.7076 3.51925 28.653
3197 2 8.87765 5.28288 28.662
3681 1 10.5248 7.23999 28.6367
104 1 12.3599 3.73195 26.8329
103 2 14.3418 5.39384 26.8631
2695 3 14.1826 3.76147 28.4125
3178 3 12.3536 7.41339 26.9798
3684 3 14.3253 7.04309 28.7202
3683 1 12.3067 5.21726 28.7324
622 1 17.7151 3.69542 28.491
1004 2 17.8338 7.14196 28.7625
1174 2 15.9948 7.10735 26.6602
1173 2 17.7149 5.36099 26.9221
3180 2 15.9446 3.67521 26.626
3685 3 16.0101 5.44701 28.5163