ITEM: TIMESTEP
5000
ITEM: NUMBER OF ATOMS
4000
ITEM: BOX BOUNDS pp pp pp
-1.4735092681306128e-03 3.5735533509268393e+01
-1.4735092681306128e-03 3.5735533509268393e+01
-1.4735092681306128e-03 3.5735533509268393e+01
ITEM: ATOMS id type x y z
563 2 0.0142807 -0.0468492 0.162167
1064 2 1.71364 1.70098 -0.146095
1563 1 1.90124 -0.124087 1.60006
2064 3 0.305174 1.69544 1.86319
1 1 3.52374 1.65055 1.87039
565 1 7.19636 -0.108814 0.104147
2065 2 7.24264 1.91295 1.83724
2565 3 3.51332 0.0346251 -0.0630499
3064 1 5.27892 1.71105 -0.0537346
3564 3 5.34104 0.0460135 1.662
2 1 10.5734 1.76895 1.67738
1066 3 8.7089 1.63892 -0.235314
1564 3 8.88568 0.00861275 1.94704
2566 3 10.584 -0.20987 -0.233777
567 1 14.2428 -0.248337 -0.112151
2066 3 14.0511 1.72443 1.6873
3066 1 12.2813 1.60784 0.146477
3565 2 12.4149 -0.0259711 1.76362
751 1 17.8207 -0.1206 -0.100285
1068 1 16.0191 1.90877 0.316814
1565 2 16.0056 -0.141772 1.73793
2001 3 17.9576 1.66781 1.6332
3 2 0.107196 5.30579 1.89191
573 2 -0.172372 7.03034 0.0849385
1568 2 1.77107 7.31686 1.86321
2569 1 -0.107494 3.70802 -0.0352519
3068 3 1.99599 5.36046 0.157274
3566 2 1.8263 3.78871 1.94839
4 1 7.28563 5.22857 1.7885
569 3 3.38576 3.51538 -0.0450529
577 2 7.09502 7.20301 0.0478887
1070 1 5.16547 5.36004 0.108699
1566 2 5.30038 3.38334 1.87268
2067 3 3.73762 5.23119 1.7635
2576 1 3.63321 7.18281 0.119753
2571 1 6.86212 3.57226 -0.223184
3570 2 5.14154 7.22566 1.85997
570 1 10.7392 3.45736 -0.0731596
1570 2 8.89653 7.37998 1.61993
2068 1 10.5525 5.34689 1.78443
2578 1 10.7431 7.15851 -0.0984051
3070 2 8.87833 5.44756 -0.0262185
3567 3 9.01572 3.672 1.48071
5 2 14.1858 5.41106 1.80565
581 1 14.1787 7.21133 -0.0515869
1072 3 12.2865 5.35397 -0.0747628
1567 3 12.3843 3.59915 1.83692
2573 3 14.0704 3.70659 -0.0698502
3572 1 12.5563 7.26477 1.8206
253 3 17.6517 5.51721 1.92682
761 3 17.8346 6.94448 -0.0337604
1572 1 15.8689 7.11772 1.34429
2819 2 17.7222 3.62242 -0.112056
3072 2 15.9679 5.23375 0.111049
3568 1 15.8342 3.45722 1.71166
1074 2 1.66438 9.0083 -0.00530796
2069 2 -0.0761166 9.0707 1.75918
2574 3 -0.116895 10.758 0.000472038
3569 2 1.60506 10.5761 1.74106
6 2 3.58554 8.99986 1.74345
575 1 3.57896 10.7244 -0.0894429
1569 1 5.37503 10.7758 1.73079
2070 3 6.8962 9.07325 1.70841
2579 1 6.92794 10.762 -0.145636
3074 2 5.37551 8.87793 0.111911
7 1 10.5274 8.74522 1.64391
578 3 10.7408 10.7465 0.142707
1076 1 8.83625 9.16858 -0.247428
3571 3 8.81175 10.5306 1.65791
1571 3 12.2902 10.6995 1.8053
2071 3 14.0697 9.05407 1.69597
2582 1 14.3117 10.753 -0.00145909
3076 2 12.4533 8.86867 0.0249711
1078 2 16.1184 8.88367 -0.223409
2006 2 17.8939 8.88107 1.79573
2825 2 17.7031 10.5028 0.109604
3573 2 15.9372 10.6401 1.65472
8 2 -0.0789993 12.3394 1.82215
583 3 -0.302729 14.3746 0.0638682
1573 1 1.60553 14.2198 1.76324
3078 2 1.83608 12.3208 -0.0630707
9 3 7.25686 12.5091 1.50854
585 3 7.1534 14.3456 -0.0206262
1080 1 5.13002 12.36 -0.0844896
2072 2 3.57257 12.5753 1.68086
2585 2 3.18968 14.1805 -0.112863
3574 2 5.43134 14.267 1.66351
1574 2 8.92425 14.2487 1.59864
2073 1 10.861 12.4968 1.80893
2586 1 10.6557 14.2843 0.0866584
3080 2 9.25182 12.3555 0.109284
10 1 14.3899 12.5481 1.89815
587 3 14.1732 14.5537 0.0726823
1082 1 12.6705 12.6201 -0.0971464
3575 2 12.3905 14.2094 1.86207
258 1 17.9303 12.4459 1.64665
771 2 18.1019 14.4276 -0.128668
1575 3 16.3636 14.0851 1.61591
3082 1 15.7703 12.5558 0.102027
626 3 -0.104759 18.0588 0.0590878
1084 2 1.5673 16.0991 0.0306419
1688 2 1.90756 18.0652 1.68338
2074 1 -0.197116 16.1344 1.84529
11 1 3.53311 15.9786 1.55518
630 3 7.25095 17.9031 0.1243
2075 1 7.26388 15.9158 1.8111
2691 3 3.1591 17.8984 -0.0969349
3084 2 5.26973 16.1945 0.0176372
3690 1 5.32828 17.6279 1.79291
12 2 10.8666 15.9629 1.74884
1086 3 9.16269 16.1496 -0.0182518
1690 3 9.13536 17.8291 1.82692
2693 1 10.7484 17.8148 -0.0474669
634 2 14.4476 17.8255 0.243846
2076 1 14.2551 15.9856 1.95424
3086 1 12.5055 16.1768 -0.104574
3692 2 12.4803 17.826 1.73019
876 2 17.9164 17.8621 0.0396835
1088 1 16.174 16.2309 0.068105
1692 1 16.38 17.8675 1.77565
2011 2 18.1389 16.1404 1.72267
13 1 0.320454 1.71373 5.25768
588 2 0.109894 -0.230823 7.54847
1089 3 1.78847 1.75019 7.22711
2564 1 0.155377 0.0306272 3.35721
3063 2 1.96819 1.64016 3.71177
3576 2 1.60234 0.0910627 5.55677
14 1 7.28192 1.98791 5.356
564 3 3.93339 -0.062103 3.79605
1065 1 5.41054 1.8018 3.68181
1577 2 3.56537 0.0223566 7.00294
1576 1 5.41373 0.0135343 5.61407
2078 3 5.48624 1.9746 7.18604
2077 2 3.83165 1.85708 5.52479
2589 3 7.47524 -0.245241 7.2725
2567 1 7.1584 0.13306 3.56302
566 2 10.9267 -0.168414 3.52663
2079 3 10.6258 1.67699 5.25691
3065 2 9.08687 1.68739 3.6935
3088 3 9.11161 1.82078 7.22479
3578 3 10.5547 -0.0635058 7.16823
3577 1 8.74203 -0.18331 5.48252
15 3 12.4966 1.57544 7.00725
16 1 14.1892 1.81576 5.2244
589 1 14.3023 -0.0325541 7.0566
1067 3 12.3589 1.81205 3.44361
1578 3 12.5262 -0.242006 5.22006
2568 1 14.4598 -0.0143731 3.57591
263 1 17.8687 1.73354 5.67293
776 2 17.8732 0.0657417 6.99772
1090 3 15.9102 1.75793 6.98096
2815 1 17.9838 0.194793 3.37849
3067 3 15.9092 1.87389 3.53107
3579 2 16.0418 0.0554143 5.28174
568 2 -0.103892 3.32281 3.46361
1069 3 1.87682 5.44492 3.6931
1580 1 0.190941 3.69905 7.33479
1579 2 1.86354 3.39831 5.36668
2081 2 2.01717 5.47076 7.04475
2080 2 0.193252 5.26853 5.31307
2591 2 0.145089 7.10598 7.08555
2575 2 0.0658711 7.23458 3.40241
3583 3 1.83084 7.09292 5.41197
17 3 3.84252 5.42985 5.26398
571 1 7.20688 3.48274 3.5241
592 2 7.21694 7.19961 7.39242
576 1 3.55493 7.44399 3.48093
1585 1 5.64783 6.97204 5.55947
2082 1 7.38969 5.25003 5.42425
2590 1 3.44365 3.65532 6.86452
2580 3 7.29398 7.5322 3.62409
2570 3 3.55272 3.35764 3.64664
3069 1 5.49863 5.28699 3.51895
3089 2 5.58433 5.31979 7.26153
3586 3 3.68329 7.05551 7.09391
3581 2 7.3369 3.55261 7.20884
3580 1 5.6431 3.58657 5.29852
18 3 10.7589 5.46628 5.06986
19 3 9.10386 5.37736 6.95082
590 1 10.5826 3.6493 7.09424
579 2 10.6059 7.24981 3.38275
1071 2 8.68436 5.2656 3.54823
1587 2 10.7035 7.12973 7.39085
1581 2 9.1786 3.44164 5.30336
2572 1 10.7959 3.64323 3.42432
3587 2 8.90367 7.19432 5.43084
572 3 14.2682 3.56914 3.50031
1091 3 12.41 5.49309 7.04151
1589 1 12.3523 7.04202 5.2496
1583 1 14.0789 3.68321 6.94162
2083 2 14.3192 5.38606 5.34077
2593 3 14.2542 7.16636 6.98093
2583 2 14.2939 7.19909 3.39742
3071 3 12.6114 5.53798 3.47178
3582 2 12.155 3.48764 5.25511
757 3 17.9632 3.53885 3.7635
1073 1 15.8873 5.29688 3.45721
1768 1 17.7899 3.77612 7.36427
1582 3 15.953 3.57088 5.3844
2084 3 15.9188 5.235 7.09519
2017 2 17.6103 5.18128 5.40605
2841 3 17.8128 6.88079 7.10616
2826 3 17.441 7.13002 3.6783
3589 2 16.084 7.29164 5.54677
20 1 -0.102551 9.09472 5.4474
574 3 0.123679 10.8441 3.61603
1584 2 1.83252 10.9543 5.27052
3073 3 1.71157 8.91876 3.73469
3090 3 2.04111 8.91541 6.92404
3584 2 -0.100963 10.8541 7.06195
21 1 5.2663 9.15131 6.97184
22 2 7.29351 9.00813 5.4796
591 1 3.79685 10.8305 7.22094
580 2 7.33907 10.935 3.64049
1075 1 5.32322 8.8966 3.78284
1588 1 7.18591 10.7003 7.35216
2085 1 3.63532 9.0431 5.21699
2577 2 3.50793 10.8159 3.49791
3585 1 5.46727 10.8117 5.06042
1092 1 9.04053 8.91834 7.26692
1586 1 9.02619 10.5495 5.34795
2086 2 10.7142 9.02913 5.36325
2592 2 10.6473 10.5797 7.16425
2581 2 10.6839 10.8979 3.47516
3075 1 9.07235 9.19466 3.56576
23 3 14.2574 8.79123 5.14221
582 3 14.1517 10.8121 3.60396
1077 1 12.439 8.93563 3.64518
2087 1 12.5121 8.85509 7.23751
3590 2 14.2771 10.7662 7.07858
3588 2 12.4368 10.5768 5.51644
270 3 17.9398 9.09072 5.16855
764 2 17.9802 10.926 3.42932
1590 2 16.001 10.6619 5.50819
3091 1 16.0925 9.01187 7.13863
3077 1 15.9638 9.2393 3.7502
3835 1 17.7764 10.5132 7.20556
24 2 1.97606 12.2398 7.19501
593 3 0.267195 13.974 7.43685
1079 3 1.784 12.521 3.49729
2088 2 0.090988 12.4323 5.33318
2584 3 -0.0913467 14.0106 3.62813
3591 1 2.03479 14.1376 5.49217
25 3 3.71563 12.6745 5.19188
584 3 3.33598 14.2801 3.48672
1093 3 5.32086 12.4991 7.0531
1592 1 3.65646 14.3915 7.02791
1591 1 5.3242 14.3757 5.24393
2089 2 7.02381 12.465 5.45217
2594 2 7.03177 14.4518 7.31732
2587 2 7.1887 14.2775 3.63305
3079 1 5.51809 12.3445 3.09369
26 1 10.7293 12.4188 5.39061
586 2 10.6454 14.2219 3.51494
1081 1 8.94149 12.5319 3.71212
2090 3 8.90764 12.4892 7.46458
3593 3 10.7391 14.3284 7.27424
3592 1 8.77529 14.1348 5.64197
594 1 14.3196 14.394 7.2583
1593 2 12.4374 14.3794 5.33987
2091 2 14.2161 12.6188 5.47841
2588 2 14.284 14.1272 3.68913
3092 3 12.2878 12.6451 7.25686
3081 3 12.4875 12.3616 3.85003
27 1 16.2221 12.3032 7.32303
781 1 17.7956 14.2901 7.11795
1083 1 16.1517 12.4554 3.70645
2025 3 17.8777 12.4898 5.63037
2835 3 18.0962 14.0801 3.60586
3594 3 16.2326 14.0876 5.37651
28 3 0.150733 16.0298 5.27193
651 2 0.0539333 17.6465 7.25049
1094 3 1.82279 15.9819 7.23118
2690 2 0.193096 18.0593 3.7268
3083 3 1.88728 16.5214 3.51939
3701 3 2.04621 17.9938 5.45949
29 1 7.16846 15.8498 5.33856
629 2 3.72937 17.7443 3.21322
1085 1 5.42574 15.9073 3.38367
1704 3 3.60456 17.7852 7.25336
1703 1 5.25854 17.8801 5.17153
2093 1 5.49113 16.1512 6.93888
2092 2 3.59336 16.1343 5.08964
2715 1 6.82936 17.7959 7.11834
2695 2 7.16233 17.7494 3.53575
632 3 10.844 17.8294 3.41182
2094 3 10.543 15.9932 5.20174
3093 3 8.96637 16.0073 7.08477
3085 1 8.95351 15.813 3.48342
3704 3 10.6408 17.6367 7.09613
3703 3 8.94737 17.6702 5.41156
30 1 12.6422 16.0124 7.54999
31 3 14.319 15.9928 5.19852
653 2 14.3892 17.8424 7.01853
1087 1 12.3718 15.9972 3.66454
1706 2 12.3428 17.6554 5.54453
2698 2 14.4118 17.7292 3.43922
278 2 17.8468 16.3525 5.35211
901 1 17.8143 17.9547 7.30919
1095 3 16.0655 16.0443 7.11349
2878 2 17.9842 17.8351 3.56636
3087 1 15.9987 15.7694 3.54541
3707 1 16.151 17.7406 5.30275
1594 1 2.09901 0.0083675 9.0983
2095 1 0.18433 1.82068 8.87764
2595 3 0.116248 -0.00301776 10.5574
3094 1 2.0449 1.88402 10.7145
33 2 7.16677 1.65762 8.93258
595 3 3.69054 0.225128 10.8421
1096 3 5.51593 1.71566 10.7719
2597 1 7.12651 -0.0935617 10.8538
2596 3 5.23773 -0.00184063 8.90723
3095 1 3.72029 1.7565 8.99388
596 2 10.6213 -0.1493 10.7199
1097 1 10.6482 1.7663 9.06649
3096 1 8.88109 1.70532 10.6222
3596 2 8.96042 0.0070603 8.97016
597 2 12.3807 -0.0710842 8.86186
1098 3 12.3444 1.6167 10.5405
2098 3 14.3001 1.48369 8.89904
2598 1 14.081 0.00524809 10.6124
1597 3 16.0231 -0.243297 8.84417
2032 3 17.7789 1.77602 8.73289
2845 1 17.7421 -0.00418913 10.7514
3097 3 15.8581 1.59197 10.9
598 3 -0.0986718 3.69795 10.6211
1099 1 1.81485 5.16318 10.7071
2603 2 0.0552296 7.0506 10.9689
2599 3 2.1017 3.58214 8.82378
3098 3 0.260416 5.34158 8.99074
3602 1 1.90762 7.00216 8.88957
36 2 3.64357 5.3037 9.065
605 3 3.73503 7.29692 10.8173
604 1 5.2621 7.336 8.9778
600 2 7.06427 3.43603 10.8291
1100 2 7.12962 5.3881 8.81397
2606 1 7.20391 7.21974 10.8986
2600 2 3.85371 3.69058 10.723
3099 3 5.52436 5.35594 10.9429
3599 1 5.49055 3.4768 9.09391
606 1 10.659 7.0406 10.5173
599 2 8.87829 3.77827 9.14712
1101 3 8.82363 5.33278 10.8806
1605 3 9.09293 6.85155 9.04722
2100 1 10.8191 5.18146 8.81327
2601 3 10.587 3.54692 10.8034
601 3 14.2482 3.37919 10.6647
1600 1 12.8043 3.45795 8.79489
2609 2 14.1941 7.22601 10.7933
2608 3 12.6711 7.20786 9.01004
3101 1 14.2006 5.39674 8.98822
3100 3 12.6007 5.30059 10.6839
786 3 17.6585 3.40471 10.8187
1102 1 16.0097 5.16096 10.5637
2853 3 17.6794 6.93699 10.6208
2602 1 16.0446 3.40558 8.81043
3348 2 17.8381 5.1403 8.9944
3608 3 15.9028 7.14891 9.04291
39 1 0.383955 9.13182 8.7872
603 2 0.0478469 10.5369 10.6532
602 2 1.84516 10.7711 9.04199
3102 3 1.76776 8.70167 10.7971
607 2 7.41663 10.9194 10.7692
1104 1 5.47591 8.93825 10.6058
1103 3 3.34082 8.8857 9.0969
1603 2 5.40424 10.657 9.1147
2104 3 7.27791 8.82547 9.00306
2604 1 3.59749 10.7011 10.7584
2607 3 10.8043 10.709 10.7302
2605 1 8.97686 10.7668 8.98749
3104 3 9.04372 8.83443 10.6585
3103 2 10.5944 8.96356 9.01049
42 2 14.338 9.00219 8.73522
609 3 14.237 10.5199 10.6642
1105 1 12.4112 8.78576 10.9337
3606 1 12.4995 10.6817 8.74897
289 3 17.7402 8.84618 8.79338
792 1 17.8601 10.6841 10.6847
608 2 16.0341 10.7866 8.71732
3105 3 16.1166 9.01467 10.9099
1107 3 1.71559 12.3702 10.7429
1106 2 0.0138051 12.2357 8.91452
1609 2 1.94113 14.4141 9.18806
2610 1 0.241137 14.2321 10.48
610 2 3.88594 14.151 10.9099
2107 2 3.87787 12.5178 9.01224
2612 2 7.23792 14.519 10.7044
2611 2 5.46161 14.328 8.92884
3107 3 7.34505 12.6324 9.03877
3106 1 5.52151 12.5597 10.7443
45 2 10.6372 12.6521 8.98923
611 1 10.4903 14.4945 10.771
1108 3 9.08193 12.6596 10.771
3611 1 9.10908 14.292 9.10477
612 1 12.6245 14.2668 8.88409
1109 3 14.467 12.3825 8.9506
2613 3 14.2464 14.1446 10.8538
3108 1 12.643 12.1895 10.6502
1293 2 17.6852 12.552 9.09724
1110 1 16.1832 12.3645 10.931
1612 2 16.0516 14.2404 9.1305
2860 3 17.8098 14.5265 10.7902
1719 2 2.0094 17.8896 8.97543
2110 1 0.00548905 15.9745 8.97575
2721 2 0.15371 17.8952 10.9411
3109 1 2.01136 16.0567 11.0019
48 2 7.13786 16.1554 9.02776
659 3 3.60262 17.8798 10.6909
1111 1 5.46632 15.9375 10.7954
2724 2 7.13554 17.9035 10.6749
2722 3 5.34283 17.8692 9.0038
3110 2 3.74975 15.8939 9.18444
661 1 10.7477 17.8982 10.716
1112 3 10.4644 16.23 9.01034
3111 2 8.82965 16.1102 10.9784
3723 3 8.78654 18.0325 9.0297
663 3 12.5297 17.9059 9.0261
1113 3 12.6299 15.8838 10.7728
2113 1 14.3642 16.2631 8.94442
2727 2 14.348 17.9194 10.6808
1725 1 16.1372 18.0668 9.06931
2047 1 17.7699 16.0579 8.93782
2908 2 17.7656 17.8749 10.7107
3112 2 16.1841 16.1609 10.8328
32 2 0.00714934 1.66285 12.4182
613 3 -0.0675946 -0.0418838 14.0369
1114 1 1.85788 1.69967 14.3273
3595 1 1.9418 -0.0492793 12.4801
34 3 7.10311 1.67866 12.5799
614 1 7.07435 0.0285719 14.2414
1595 3 5.3247 -0.15784 12.5412
2096 3 3.64926 1.80714 12.69
2614 2 3.32366 -0.019818 14.4083
3113 1 5.42971 1.7713 14.4104
1115 3 8.67354 1.85563 14.5189
2097 1 10.8269 1.60847 12.5392
2615 2 10.6495 0.015624 14.2853
3597 3 8.91646 0.0264747 12.5882
35 3 14.1577 1.86299 12.6767
615 1 14.1299 -0.0241305 14.4284
1596 3 12.5208 -0.109241 12.5758
3114 2 12.5026 1.63682 14.426
282 1 17.9179 1.59851 12.4978
801 3 17.9474 0.0823665 14.5007
1116 2 15.8737 1.70224 14.3314
3598 2 16.0298 -0.13981 12.7099
618 2 -0.0725749 7.02821 14.1432
1598 3 2.08504 3.27961 12.5502
2099 3 0.299877 5.29411 12.6489
2616 3 0.225798 3.3012 14.3333
3115 1 1.96092 5.46612 14.2366
3603 3 1.86713 7.252 12.5242
37 3 3.60758 5.28742 12.5346
620 1 7.40063 7.18103 14.2806
616 2 3.84431 3.67053 14.1746
1117 3 5.55833 5.50919 14.0277
1604 1 5.39188 7.26124 12.46
2101 2 7.21315 5.37116 12.7148
2620 3 3.67041 7.16158 14.2972
2617 1 7.00099 3.50227 14.4286
3600 2 5.51156 3.41903 12.5337
38 1 10.6225 5.30557 12.5811
617 1 10.6522 3.55062 14.3971
1599 3 8.76175 3.44387 12.7561
2621 2 10.7459 7.21929 14.2182
3116 2 8.88629 5.56045 14.5158
3605 3 8.99551 7.09268 12.4142
622 1 14.2929 7.15555 14.2297
1118 3 12.5069 5.32664 14.1306
1607 2 12.5518 7.05163 12.6103
2102 3 14.472 5.16202 12.3081
2618 1 14.1379 3.46966 14.2979
3601 1 12.434 3.67564 12.3103
806 1 17.8647 7.08353 14.3032
1601 3 16.0077 3.39891 12.5091
2036 2 17.8228 5.32602 12.5125
2866 1 17.9112 3.55613 14.2347
3117 3 16.0358 5.32853 14.3067
3609 3 16.1823 7.04324 12.4468
40 1 0.108585 9.01362 12.5929
1119 1 1.3949 9.106 14.7124
1602 1 1.66397 10.7839 12.6448
2619 3 -0.167035 10.9642 14.1928
41 1 7.28375 8.9871 12.4464
619 3 3.48694 10.4721 14.4298
2103 3 3.58275 8.98565 12.4476
2622 1 7.06438 10.5783 14.4985
3118 2 5.55712 8.87312 14.2542
3604 3 5.61432 10.9392 12.6117
621 3 10.9027 10.5333 14.4221
1120 2 9.02355 8.99542 14.4
1606 1 8.9569 10.6576 12.7183
2105 1 10.8064 8.80304 12.5163
43 3 14.1312 8.82268 12.6136
2623 2 14.2521 10.8055 14.1064
3119 2 12.4915 8.87956 14.4224
3607 3 12.5092 10.5775 12.415
290 3 17.6955 8.8885 12.5103
1121 2 15.8832 9.15113 14.2468
1608 1 16.143 10.8962 12.5275
2870 2 17.6735 10.7021 14.2814
623 3 0.0227629 14.1269 14.2716
2106 2 -0.0365144 12.5614 12.4438
3120 3 1.83491 12.5502 14.2597
3610 1 1.71746 14.0066 12.4278
44 1 3.75091 12.4799 12.3335
624 1 7.17628 14.2381 14.4939
1122 3 5.42432 12.6442 14.4842
1610 3 5.49789 14.0975 12.5343
2108 2 7.41839 12.562 12.56
2624 3 3.74163 14.2379 14.3865
46 3 10.6464 12.2543 12.5255
2625 1 10.6906 14.4476 14.5567
3121 3 8.93865 12.4055 14.4454
3612 1 8.76269 14.2833 12.7398
625 3 14.0301 14.4675 14.1294
1123 3 12.3468 12.2457 14.1926
1611 3 12.2064 14.1765 12.3635
2109 1 14.0622 12.5529 12.3969
811 2 17.802 14.2273 14.37
2044 2 17.8024 12.5959 12.7111
3122 2 15.9039 12.5713 14.1741
3613 2 15.9493 14.3062 12.6946
47 1 0.205253 16.3041 12.4634
676 2 -0.0265642 17.8634 14.3176
1124 3 1.76254 15.9267 14.1303
3720 2 2.0501 17.9897 12.6042
49 2 7.21144 16.1058 12.7304
678 1 7.19448 17.7177 14.3338
1721 2 5.391 17.8207 12.536
2111 1 3.69149 16.0261 12.5627
2740 1 3.66755 17.969 14.6618
3123 3 5.29252 16.2409 14.5793
1125 2 9.09785 16.0891 14.4954
2112 2 10.4916 16.1511 12.5422
2741 1 10.4999 17.9414 14.3668
3724 2 8.7793 17.8386 12.6704
50 1 14.1985 16.2326 12.5542
680 2 14.1144 17.7744 14.183
1724 2 12.235 17.7169 12.3811
3124 2 12.3989 16.0283 14.0654
297 3 17.7268 16.186 12.5306
926 3 18.1683 18.0827 14.2042
1126 3 16.1058 16.5002 14.257
3726 1 16.2173 18.3066 12.4745
1613 1 1.75861 -0.440403 16.1429
2114 3 -0.0608746 1.62773 16.1118
2626 1 -0.00557611 0.126181 18.1894
3125 3 1.65093 1.97794 17.6533
51 1 3.64311 1.72126 16.092
502 2 3.49412 -0.152416 17.8609
1128 1 5.15951 1.59828 17.8666
2115 3 7.24165 1.92969 16.457
2628 1 7.2875 -0.186676 17.8669
3614 2 5.63859 0.108579 16.0817
52 3 10.9922 1.81866 16.2129
503 1 10.6602 -0.00556891 17.9799
1614 1 8.88966 0.058127 16.1917
3127 2 9.03699 1.58315 18.0122
1130 2 12.4701 1.70537 17.8074
2116 2 14.4186 1.64913 16.1483
2630 1 14.5987 0.120863 18.2336
3615 1 12.5417 0.0675612 16.1188
1615 1 16.2559 -0.0244265 16.2764
2051 1 17.9263 1.87393 15.9915
2501 2 18.119 0.000369139 17.9454
3129 2 16.2896 1.75133 17.8409
53 1 0.0296156 5.78435 16.3051
506 3 -0.058359 3.42613 17.7273
1132 2 2.00715 5.52666 17.721
1618 2 1.82613 7.05843 16.0863
2636 2 0.234955 7.12671 17.9613
3616 3 1.74623 3.72054 15.8916
54 2 7.18459 5.56519 15.982
508 2 7.24331 3.75196 18.0039
513 2 3.63297 7.31415 17.9197
1616 2 5.27803 3.63847 16.108
2117 1 3.58771 5.33388 16.0777
2640 3 7.2426 7.0599 17.9495
2632 2 3.53537 3.64122 17.9152
3131 1 5.44663 5.59482 17.8423
3620 1 5.5401 7.22765 16.0895
515 2 10.7672 7.16407 17.8004
1134 3 9.10725 5.58414 17.8519
1620 2 8.74009 7.15845 16.1262
2118 1 10.8634 5.2596 16.0756
2633 1 10.8036 3.66842 17.9796
3617 3 9.02951 3.75852 16.1915
55 1 14.2756 5.24244 15.8866
510 3 14.1772 3.65486 17.8451
1617 3 12.7119 3.26916 16.0611
2644 1 14.3162 7.10798 17.8513
3133 1 12.6387 5.60851 17.8339
3622 2 12.4815 7.01603 15.8184
303 3 17.6483 5.46203 16.1738
819 3 17.9741 3.62619 17.9862
1136 3 15.9383 5.49843 17.7523
1622 3 16.0515 7.21188 15.9953
2511 1 17.5966 7.30612 17.8782
3618 3 16.0775 3.61776 16.1023
511 2 0.214281 10.789 17.9327
2119 1 0.0957346 8.99635 16.5816
3135 2 1.79418 8.99945 18.1628
3619 2 1.7941 10.869 16.1273
56 1 3.53183 9.0594 16.4581
516 1 7.14819 10.6619 17.8296
1138 2 5.32257 8.95683 17.8572
1619 3 5.38542 10.7926 16.3753
2120 2 7.20997 8.85103 16.1877
2638 3 3.57882 10.7255 17.9617
57 2 10.9295 8.94554 16.4042
2641 3 10.9198 10.7727 18.0175
3137 3 9.06614 9.07084 18.0749
3621 2 8.93344 10.5655 16.0512
519 1 14.38 10.6407 17.9398
1140 3 12.8457 8.99024 18.0828
1621 3 12.4748 10.5902 16.2477
2121 2 14.2394 8.84443 15.9312
825 1 17.8605 10.7154 17.8807
2056 2 17.7841 8.91503 16.1312
3139 1 16.1053 9.03099 17.8889
3623 2 16.1958 10.7132 15.9567
58 2 -0.115705 12.4284 16.1624
1142 2 1.53448 12.5864 18.0346
1623 1 1.69488 14.1883 16.0488
2646 1 0.00892671 14.0852 18.1109
59 3 7.31856 12.4402 16.1707
522 3 3.47208 14.2058 17.9588
2122 1 3.56621 12.3036 16.1726
2648 2 7.13119 14.2483 18.0223
3141 2 5.36773 12.5921 17.9647
3624 3 5.25919 14.2413 16.3075
523 3 10.508 14.3335 17.8041
1144 2 9.06297 12.5229 18.0641
1624 3 8.84521 14.4448 16.1061
2123 1 10.885 12.4908 16.0578
60 2 14.2199 12.57 16.0387
2650 2 14.3057 14.2143 17.9533
3143 1 12.5896 12.6299 17.8981
3625 2 12.5451 14.2966 16.0708
308 1 17.6044 12.6605 15.9655
1146 3 16.0344 12.6083 17.8063
1625 1 16.0503 14.4187 15.9775
2521 2 18.0157 14.2525 17.813
1738 3 1.94555 17.9106 16.1759
2124 2 0.0906212 16.0466 16.1043
2751 3 -0.0448221 17.8404 17.9212
3145 3 1.65255 15.9365 17.8469
61 2 3.33049 15.9107 16.0618
691 1 3.52916 17.9681 17.8174
1148 2 5.12994 16.0684 17.7512
2125 3 7.1623 16.2118 16.1859
2755 1 7.05766 17.888 17.8916
3740 3 5.41195 18.2317 16.1786
62 1 10.7292 16.2665 16.446
693 3 10.6376 17.7016 18.0305
1740 3 8.87802 17.909 16.2218
3147 2 8.77097 16.1134 17.7423
1150 1 12.6384 15.9976 17.7604
2126 2 14.1221 16.2238 15.8794
2759 2 14.2265 17.5851 17.7998
3742 2 12.5086 17.9719 16.053
1742 3 16.0855 17.7579 16.2039
2061 1 17.9451 16.2145 16.4683
2938 1 17.9525 17.9743 17.949
3149 1 16.1009 15.9087 18.0802
501 2 0.029818 0.109356 21.2058
63 3 0.400907 2.08125 19.8613
1127 3 1.89436 1.96911 21.3339
3626 2 1.90502 -0.0299144 19.6596
504 1 6.84601 0.0704726 21.4844
64 3 7.05877 1.76124 19.5766
1626 2 5.252 0.150143 19.8716
2127 3 3.51352 1.95138 19.473
2627 1 3.58282 0.0467677 21.4388
3126 1 5.29251 2.04394 21.3979
1129 3 8.86842 1.73514 21.5005
2128 3 10.8036 1.76416 19.7845
2629 2 10.601 -0.21571 21.633
3627 2 8.8408 -0.0114348 19.7436
505 2 14.6354 0.0622738 21.3432
65 3 14.3246 2.00892 19.478
1627 1 12.4583 -0.00765397 19.8447
3128 3 12.5035 1.69471 21.5114
815 3 17.8451 -0.00138365 21.5559
313 1 17.8603 1.77165 19.5499
1131 2 16.107 1.9659 21.6138
3628 1 16.0734 0.0136004 19.6974
512 3 0.17067 7.03434 21.462
1628 1 1.82632 3.55837 19.5331
2129 1 0.109888 5.20021 19.4603
2631 2 -0.104965 3.67424 21.5526
3130 3 2.07096 5.42799 21.5529
3631 1 1.85038 7.05505 19.7696
507 1 3.88537 3.71094 21.4268
517 1 7.15675 7.1687 21.2399
66 2 3.97859 5.41958 19.7207
1133 1 5.62369 5.34809 21.4405
1632 2 5.46565 7.353 19.5336
2130 3 7.08616 5.31384 19.8038
2639 3 3.92973 7.14534 21.4455
2634 2 6.99796 3.60034 21.4141
3629 2 5.42363 3.59895 19.2346
509 3 10.5879 3.66146 21.2782
67 3 10.6299 5.29907 19.7621
1629 1 8.92095 3.57418 19.7597
2642 3 10.792 7.28471 21.5385
3132 3 8.66989 5.25948 21.4724
3633 2 9.15414 7.42175 19.6604
520 2 14.2112 7.06472 21.5727
1135 1 12.5891 5.23025 21.3936
1634 2 12.5596 7.3082 19.6765
2131 2 14.3208 5.47781 19.7673
2635 1 14.2289 3.61062 21.3106
3630 3 12.5461 3.69099 19.5695
826 2 17.8337 7.0493 21.5147
1630 2 16.2591 3.66762 19.5643
2316 3 18.019 5.31065 19.6129
2507 2 17.7692 3.68914 21.5265
3134 2 16.2536 5.41959 21.3456
3635 1 16.0306 6.99219 19.7123
68 1 0.034868 8.90066 19.8907
1137 1 1.95458 8.97281 21.3776
1631 1 1.61328 10.9249 19.7818
2637 1 -0.0138744 10.7107 21.3843
514 2 3.51886 10.7597 21.4763
69 2 7.28506 9.06754 19.849
2132 2 3.77628 8.96283 19.8969
2643 1 7.20833 10.7627 21.7154
3136 2 5.59087 9.02257 21.5865
3632 2 5.51447 10.7392 19.8876
518 3 10.7788 10.8882 21.4975
1139 3 9.13707 9.10414 21.508
1633 1 9.14731 10.7994 19.7045
2133 2 10.8565 9.16467 19.6211
70 2 14.3527 8.85153 19.8303
2645 2 14.2168 10.6527 21.6213
3138 1 12.5504 8.97206 21.4031
3634 3 12.5626 10.7551 19.6806
318 3 17.8142 9.07005 19.6294
1141 3 16.131 8.75756 21.4942
1635 1 15.8595 10.7793 19.9534
2514 3 17.7711 10.5817 21.4796
521 1 -0.15901 14.3234 21.4735
2134 2 -0.211475 12.6258 19.9009
3140 3 1.64664 12.8442 21.6011
3636 1 1.87829 14.3037 19.8131
524 1 7.26586 14.2458 21.7054
71 1 3.67164 12.5362 19.9585
1143 3 5.53083 12.362 21.6225
1636 1 5.33513 14.5213 19.6636
2135 1 7.20991 12.4741 19.6426
2647 3 3.57197 14.3841 21.5949
72 1 10.6551 12.6802 19.8793
2649 2 10.7151 14.3098 21.5896
3142 2 8.71565 12.5412 21.5103
3637 1 8.53171 14.3776 19.8181
525 3 14.2565 14.2549 21.6372
1145 1 12.7755 12.5014 21.4353
1637 2 12.2656 14.3141 19.4036
2136 2 14.2649 12.6495 19.753
835 3 17.7904 14.4565 21.6662
2321 3 17.845 12.2356 19.7556
3144 3 16.0671 12.4615 21.5728
3638 1 15.974 13.9686 19.9417
690 1 0.0148703 18.1404 21.2236
73 3 -0.130564 16.072 19.6146
1147 2 1.66161 15.9116 21.5026
3751 3 1.89389 17.7364 19.8057
695 1 7.27874 17.7499 21.8271
74 1 7.02659 16.1637 19.5698
1502 3 5.21446 18.0536 19.6431
2137 2 3.34314 16.0803 19.6939
2754 1 3.34651 17.8712 21.6001
3146 3 5.39484 16.0377 21.5139
1149 1 9.11566 16.1688 21.5525
2138 2 10.7784 16.0626 19.7717
2757 2 10.8243 17.772 21.5223
3753 1 8.90536 17.7853 19.661
698 2 14.2638 17.9747 21.4621
75 1 14.1434 16.0706 19.5558
1504 3 12.54 17.8014 19.6517
3148 1 12.4465 16.1164 21.3081
941 2 17.984 17.8879 21.5787
323 1 17.9414 15.9541 19.6091
1151 1 16.1761 16.4184 21.3796
3755 2 16.0615 17.6968 19.6647
1638 1 1.78704 0.0233029 23.3941
2139 3 0.18296 1.94499 23.2186
2651 3 -0.0985272 0.127314 25.295
3150 3 1.79858 1.78032 25.3236
526 1 7.09448 0.00902701 25.1137
77 1 4.97317 2.02973 25.1902
76 2 3.65907 1.97452 23.0859
2140 3 7.09257 1.81477 23.0216
3640 3 3.49645 0.0487559 25.1325
3639 2 5.13104 -0.00280483 23.3359
78 1 10.6326 1.67534 23.3246
1152 3 8.85672 1.5212 25.0295
1640 2 10.7369 0.0088681 25.1684
1639 3 8.69694 -0.0436811 22.9897
2142 1 14.2213 1.80936 23.1433
2141 2 12.7128 1.72944 24.9318
2652 2 14.3065 -0.0446031 24.913
3641 3 12.5297 -0.19069 23.1748
1641 1 16.1711 0.177193 23.0821
2326 1 18.059 1.8317 23.2474
2526 2 18.0518 0.103012 24.951
3151 3 16.1186 1.73803 24.7538
528 3 -0.107766 7.05587 24.9411
80 3 1.77107 5.30396 24.9774
79 3 -0.227894 5.33403 23.2698
1645 1 2.05768 7.38175 23.2354
3643 3 -0.0678792 3.63843 24.9557
3642 2 1.82606 3.81088 23.0723
527 1 3.53846 3.63459 25.0077
81 2 7.20714 5.71632 23.5811
1153 2 5.56559 5.30471 25.04
1648 1 3.61421 7.1804 25.1079
1643 2 7.16705 3.4871 24.9803
1642 3 5.47097 3.54628 23.4951
2143 3 3.67649 5.44186 23.332
2655 2 7.21379 7.22431 25.2392
3648 2 5.4794 7.38209 23.4507
1649 1 9.09361 7.20259 23.1763
2145 3 9.04671 5.46037 25.0875
2144 3 10.6316 5.20031 23.1643
2653 2 10.9148 3.3771 24.945
3650 3 10.889 6.97011 25.1415
3644 1 8.94312 3.54791 23.2635
530 3 14.1504 7.20838 24.9068
82 3 14.4616 5.36196 23.1265
1644 2 12.5178 3.47986 23.1544
3152 1 12.5307 5.29715 25.0311
3652 2 12.4527 6.93635 23.2261
3646 1 14.2631 3.65498 24.8327
841 2 17.8651 7.09203 24.7938
329 1 17.6991 5.23213 23.2198
83 3 16.099 5.45237 24.9893
1651 1 16.0401 7.23852 23.3846
3893 3 17.8128 3.59636 24.9431
3645 2 15.901 3.54751 23.3305
1154 3 1.58393 9.04033 24.9624
1646 2 -0.118251 10.5128 25.4095
2146 3 -0.0549602 9.07066 23.1296
3647 3 1.79839 10.6045 23.1287
84 1 3.75249 8.94178 23.3127
1647 3 5.59293 10.7396 23.3264
2148 1 7.27028 8.8984 23.1877
2147 2 5.49467 8.94908 25.0019
2654 3 3.62213 10.5034 24.9116
3651 1 7.10625 10.6413 25.2351
529 3 10.667 10.7585 25.0349
85 1 10.9554 9.07833 23.3653
3153 3 9.13796 9.12161 25.0346
3649 3 8.9444 10.9282 23.3342
86 1 12.7401 8.94554 24.834
1652 2 14.318 10.7686 24.9209
1650 2 12.5482 11.0473 23.4811
2149 3 14.2241 8.9188 23.2126
1155 2 16.2761 8.93486 25.2301
1835 1 18.0526 10.6791 25.1372
2333 1 17.9309 9.05105 23.3152
3653 1 16.2068 10.6335 23.3118
87 3 0.0173332 12.4664 23.2932
1653 3 1.9954 14.1296 23.5871
2150 3 1.76231 12.2667 24.9894
2656 3 -0.0891278 14.271 25.0359
531 2 7.33654 14.261 25.1687
88 2 7.14588 12.7792 23.4736
2151 2 3.49239 12.2951 23.3705
3154 3 5.38021 12.4295 24.8611
3655 2 3.53745 13.8398 25.3156
3654 3 5.12788 14.3428 23.0881
89 2 8.8325 12.6607 24.9124
1655 3 10.8628 14.2524 25.0405
1654 3 8.90802 14.4257 23.11
2152 1 10.6777 12.5612 23.2477
90 3 14.4254 12.5164 23.5219
1156 3 12.6108 12.8255 24.8527
2657 1 14.4178 14.5782 25.1587
3656 2 12.5274 14.5627 23.398
337 2 18.146 12.331 23.0994
1656 3 15.9377 14.5683 23.3469
2153 2 16.2368 12.5286 25.0567
2531 1 17.9347 14.4235 25.0104
1513 3 1.40159 18.0962 23.3705
2154 3 -0.210279 16.1101 23.171
2776 2 -0.397182 17.9605 24.9578
3155 3 1.52553 16.0411 24.8665
715 1 6.76017 17.8091 24.7855
92 3 5.46913 16.0357 24.9658
91 2 3.37383 16.082 23.431
2155 2 6.99857 15.9766 23.4147
3767 1 3.47905 17.7911 25.2534
3766 2 5.06616 17.9504 23.1446
93 1 10.7081 16.2616 23.3756
1157 1 8.81038 16.333 25.1643
1515 2 9.10311 17.8007 23.2121
1516 3 10.7698 17.9296 25.3316
2157 1 14.217 16.314 23.1923
2156 1 12.7075 16.4275 24.9945
2778 3 14.4981 17.9067 24.8689
3769 1 12.4625 17.877 23.4196
1519 2 16.1284 18.0684 23.3005
2341 1 17.6133 16.2716 23.125
2963 1 18.0173 17.959 24.9756
3156 3 16.1706 16.195 25.1667
532 2 0.232305 0.144867 28.7661
94 1 0.0753395 1.76593 26.8493
1158 3 1.66081 1.95535 28.7196
3657 1 2.10215 -0.00378277 27.1384
533 1 5.37244 0.174916 26.8313
534 2 7.23019 -0.0349583 28.4879
1159 2 3.55187 1.95331 27.0536
2159 2 7.2037 2.04283 26.6811
2658 3 3.8454 0.0329868 28.5888
3157 3 5.35627 1.99018 28.5922
1160 3 9.11097 1.73837 28.922
1658 3 8.71574 0.0648517 26.7477
2659 2 10.6992 0.1518 28.6304
3158 3 10.6106 1.93307 26.7694
535 3 14.4774 -0.0860213 28.6232
97 3 14.5346 1.92665 26.4878
2660 1 12.3991 0.00568572 26.7035
3159 1 12.7236 1.75146 28.5438
845 2 18.0297 -0.19476 28.5805
344 2 17.8064 1.79285 26.6161
1161 2 16.1968 1.66464 28.5327
3660 1 16.3986 -0.034869 26.7797
536 3 1.79681 3.70317 26.8316
540 2 -0.144517 7.24502 28.6774
1162 3 -0.0792787 5.64664 26.7367
1664 3 1.9067 7.33942 26.7388
2661 3 -0.109553 3.82709 28.5165
3160 3 1.68141 5.78161 28.6117
537 1 3.32096 3.9103 28.5897
543 1 7.00783 7.4869 28.7276
1163 3 5.57994 5.5257 28.471
1661 1 5.34638 3.69948 26.8848
2162 2 3.44238 5.53181 26.9481
2668 1 3.72395 6.98359 28.6911
2667 2 5.34474 7.04261 26.7595
2663 1 7.44634 3.85232 28.8043
3161 2 7.4104 5.44019 26.6377
538 1 10.6108 3.5902 28.7038
99 2 10.8465 5.05143 27.0181
2669 2 11.0422 7.09032 28.2679
2662 1 8.85605 3.76749 26.9739
3162 3 8.95274 5.79503 28.689
3668 2 9.08396 7.2901 27.045
545 3 12.5644 7.22751 26.8161
546 2 14.3758 7.2461 28.9008
1165 3 14.3682 5.3202 26.6627
1164 2 12.8314 5.5104 28.5359
2664 1 14.3732 3.451 28.6446
3663 2 12.6713 3.52608 26.8391
853 3 17.8929 7.17203 28.3856
539 3 16.1358 3.68514 26.6817
1349 1 17.745 5.57657 26.7771
1670 1 15.9973 6.99849 26.7118
2536 2 17.9469 3.53286 28.5942
3163 2 15.9981 5.3104 28.6027
1166 3 1.64751 9.02537 28.6544
2165 1 -0.0309097 8.79493 26.8408