ITEM: TIMESTEP
5000
ITEM: NUMBER OF ATOMS
4000
ITEM: BOX BOUNDS pp pp pp
-1.2316295415345735e-02 3.5746376295415203e+01
-1.2316295415345735e-02 3.5746376295415203e+01
-1.2316295415345735e-02 3.5746376295415203e+01
ITEM: ATOMS id type x y z
1 2 3.58602 1.70505 1.93233
32 2 0.215287 1.69521 12.3757
3063 1 1.75733 1.52621 3.56296
3595 2 1.74903 -0.138271 12.6088
2065 3 7.14569 1.68123 1.70911
2866 3 17.7262 3.50782 14.5128
2047 3 17.8375 15.9594 9.00862
2579 2 7.05916 10.7595 -0.0861025
2570 3 3.39469 3.51376 3.571
2572 3 10.8954 3.52261 3.70243
3578 1 10.7898 -0.0313511 7.17876
678 1 7.30992 17.9726 14.3886
2 2 10.8026 1.91051 2.03081
2066 3 14.4016 1.76102 1.62521
572 3 14.3194 3.32151 3.52547
2051 1 17.6882 1.67769 15.88
2722 1 5.42625 17.9436 8.83724
258 3 17.8173 12.5554 2.14137
1076 3 9.09543 8.96516 0.154611
2695 3 7.24815 17.7253 3.4523
1580 3 -0.0249997 3.49638 7.02959
3566 1 1.79396 3.62491 1.75175
2067 2 3.38115 5.37787 1.789
1568 3 1.74509 7.10853 1.70417
1126 3 16.2216 16.1635 14.1389
1566 2 5.09418 3.61374 1.77281
1724 2 12.5521 17.9323 12.6076
653 3 14.4383 17.6895 7.01119
3567 1 8.88951 3.51748 1.82255
4 1 6.99518 5.3627 1.9938
1570 1 9.16567 7.09989 1.95232
2068 2 10.8856 5.45727 1.81519
1567 3 12.6338 3.36791 1.69702
3071 3 12.6741 5.14526 3.56305
39 2 -0.000560062 8.99905 8.72298
5 2 14.3407 5.38388 1.67637
3568 2 16.4038 3.69417 1.90573
1073 3 16.3613 5.22097 3.72347
2583 3 14.5713 7.07349 3.36943
1572 1 16.377 7.10626 1.74627
598 3 0.000136599 3.54693 10.5844
6 1 3.16532 8.95443 1.73815
3073 3 1.75235 8.92629 3.60469
597 3 12.6864 -0.024554 8.99541
3570 2 5.27007 7.07304 1.77561
2070 1 7.33401 9.09925 1.80286
7 3 10.6894 8.77019 1.7136
3571 1 8.89906 10.531 1.62101
3075 3 9.00245 9.0308 3.53327
1740 2 8.98117 17.5695 16.2468
3572 3 12.6328 7.02274 1.92487
2071 2 14.6016 8.78955 1.6823
1571 3 12.5751 10.4666 2.00718
3573 2 16.0455 10.6838 1.78957
3077 3 16.0615 8.84718 3.49529
2759 2 14.2764 17.8282 17.8434
2110 2 0.310443 16.6212 8.88562
3569 1 1.48689 10.8102 1.65348
1573 1 2.14678 14.444 1.96721
2584 2 0.0840048 14.2346 3.51407
1569 1 5.21076 11.0414 1.60386
2072 2 3.39116 12.6028 1.50565
2577 3 3.70168 10.7524 3.38688
3079 2 5.30924 12.5435 3.42968
614 1 7.10731 0.127645 14.3317
9 1 7.09023 12.3493 1.83132
2073 3 10.655 12.4285 1.80754
1081 2 8.7914 12.5482 3.54272
3080 2 8.79167 12.2462 0.0600829
10 2 14.7085 12.6883 1.78509
2588 3 14.2533 14.1946 3.7031
3081 3 12.755 12.4196 3.3896
786 3 17.6561 3.42875 10.8712
582 3 14.2868 10.5008 3.53098
1083 2 15.9331 12.4938 3.66962
2603 1 0.100583 7.18477 10.6355
3083 1 1.79197 16.2336 3.49094
2006 2 17.7471 9.52324 1.76017
3564 2 5.34034 0.0226991 1.81369
11 2 3.54925 16.1716 1.66526
3574 1 5.35349 14.4007 1.55406
2585 3 3.45202 14.3526 0.0857208
3133 2 12.7197 5.56912 17.9514
2075 3 6.90231 16.0226 1.68716
1574 1 8.94861 14.1765 1.84686
2099 2 -0.0406882 5.55283 12.583
12 2 10.8139 16.0029 1.77786
3575 2 12.4319 14.514 1.62551
1087 1 12.7013 16.027 3.37956
764 2 18 10.8123 3.82858
2036 2 17.7684 5.27669 12.757
2076 2 14.2103 15.9934 1.64717
1575 2 16.0797 14.3543 1.80076
3625 2 12.577 14.2874 16.0445
603 1 0.244667 10.742 10.467
508 1 7.15845 3.4567 17.9037
2077 2 3.48896 1.67567 5.19838
1579 1 1.66772 3.16335 5.35599
811 2 18.0172 14.3006 14.4126
1068 3 16.0184 1.54966 -0.056606
1065 2 5.53711 1.67942 3.59706
3580 3 5.52224 3.52043 5.39692
14 3 7.23206 1.61946 5.33041
2569 2 0.122801 3.58068 0.148706
3065 2 8.97565 1.88817 3.44596
3581 3 7.29392 3.64439 7.32001
3584 2 0.0305916 10.9675 6.96474
1067 2 12.6005 1.85305 3.79516
2079 3 10.6346 1.89329 5.15898
15 2 12.4892 1.68084 7.09487
590 1 10.8255 3.44244 7.21797
3582 3 12.4749 3.4507 5.51701
632 2 11.055 17.9817 3.4219
3067 3 16.2964 1.56864 3.27515
2644 3 14.0564 7.28615 17.8782
16 1 14.3947 1.84447 5.42419
1583 2 14.3278 3.63884 7.10085
1090 3 16.177 1.5729 7.03533
1069 1 1.75614 5.36232 3.41759
576 3 3.67403 6.99899 3.67327
2081 1 1.71014 5.39206 7.05715
17 3 3.50174 5.35197 5.32761
3586 3 3.61469 6.97773 7.04734
571 3 7.06823 3.34314 3.53574
3069 1 5.1255 5.20516 3.5934
2580 1 7.10071 6.87468 3.44635
3089 2 5.38627 5.23636 7.01696
1581 2 8.96423 3.50507 5.34303
1071 3 9.02663 5.41666 3.65803
2082 3 7.24432 5.34278 5.61942
3587 3 8.94454 7.01756 5.52697
19 1 9.0394 5.07172 7.28318
18 1 10.6187 5.31976 5.48703
1589 2 12.7768 7.13573 5.35751
2083 1 14.4722 5.05897 5.07261
579 1 11.0088 7.02879 3.71014
2593 1 14.3671 7.21381 7.3143
2126 1 14.0566 15.9486 15.933
2619 3 -0.0185349 10.5834 14.3638
1582 1 16.1997 3.49222 5.31769
3589 2 16.1607 7.27249 5.70021
3583 1 1.89355 7.192 5.37922
1584 1 1.87658 10.7967 5.34528
2578 3 10.8531 7.07062 0.129944
580 1 7.19946 10.6806 3.43163
1585 2 5.43276 7.15445 5.22684
1075 3 5.46316 9.12385 3.05784
2085 1 3.73502 9.0158 5.08301
1588 1 7.17657 10.6334 6.94389
591 2 3.57189 10.9343 7.32626
2581 3 10.5753 10.697 3.43295
22 3 7.08196 8.87515 5.08384
2086 1 10.725 8.84274 5.18532
1586 3 8.7002 10.6624 5.39291
1092 2 9.06641 8.76561 7.1267
1077 1 12.4757 8.75242 3.5987
2087 1 12.5243 8.81641 7.3048
23 2 14.3008 8.93319 5.41795
3091 2 16.0054 9.11865 7.34263
1590 3 16.1021 10.5644 5.40602
2124 1 0.145071 15.9147 16.0335
1079 3 1.80771 12.4266 3.33603
3591 1 1.85157 14.4416 5.13168
584 3 3.60623 14.2736 3.49783
1592 3 3.39637 14.277 7.17241
3124 2 12.2093 16.0558 14.4107
2061 1 17.6231 16.1574 16.1279
3585 3 5.4142 10.8586 5.35452
25 1 3.28549 12.6278 5.36673
1591 3 5.46276 14.3882 5.28262
2089 2 7.24433 12.6429 5.28883
2090 1 9.07569 12.704 6.96174
3592 1 8.93774 14.3047 5.06578
26 2 10.7052 12.5783 5.155
3588 1 12.2792 10.6748 5.50084
2091 2 14.0953 12.2377 5.45424
1593 1 12.5964 14.081 5.52465
3092 2 12.3758 12.3844 7.34433
594 1 14.3533 14.1809 6.96078
2064 2 0.176118 1.67408 1.59095
625 2 14.1705 14.4193 14.3323
1596 3 12.3529 -0.00850054 12.4192
3594 2 16.0994 14.2891 5.44593
3086 3 12.5031 16.452 0.0444379
2092 2 3.39391 16.1521 5.34608
2125 2 7.03167 15.8861 16.2893
1085 3 5.23575 16.142 3.62896
2056 2 17.9734 8.82355 16.0667
568 3 0.151296 3.41742 3.49845
3085 1 8.87777 15.9319 3.33876
586 2 10.9178 14.0756 3.4529
2587 1 7.10028 14.312 3.33877
29 2 6.9885 16.1141 4.98568
3093 2 8.79055 16.1686 7.09825
2094 1 10.8179 15.7358 5.20991
30 2 12.4541 16.1725 7.04661
2011 1 17.559 16.3655 1.73827
1080 2 5.12493 12.6228 -0.0548149
2025 2 17.7558 12.6366 5.34446
3087 2 16.1086 15.903 3.51899
31 3 14.3825 16.1217 5.45315
303 2 17.7928 5.2298 16.1809
1089 1 1.90363 1.6436 7.22905
2599 3 1.82749 3.64488 8.70636
2590 1 3.37515 3.49067 6.86998
680 1 14.3384 17.7275 14.1496
3095 2 3.52184 1.76247 8.92224
2078 2 5.68896 1.88226 7.22613
2095 1 -0.167674 1.7758 9.10576
2740 1 3.60566 17.799 14.3649
3088 3 9.02749 1.77322 7.20805
587 3 14.3627 14.3929 -0.0332415
33 1 7.31683 1.88558 8.83133
3096 2 8.77259 1.89751 10.6859
2835 2 17.8545 14.432 3.64421
2841 3 17.8573 7.14903 7.25233
1704 1 3.47661 18.0102 7.10474
1097 2 10.6769 1.93277 9.05139
3724 2 8.83881 17.8768 12.4869
2098 1 14.1766 1.89232 8.84369
3097 2 16.0699 1.83148 10.6624
1125 3 9.10757 16.0256 14.2984
1099 1 1.65129 5.42681 10.7513
3599 1 5.30235 3.62394 8.96049
36 3 3.55441 5.22304 9.01462
604 1 5.45455 7.12457 8.76886
2600 1 3.41991 3.75088 10.8315
599 2 8.95453 3.57299 8.93968
1100 3 7.34291 5.49605 8.92877
2100 2 10.8109 5.2029 8.76925
1605 2 9.2338 7.25648 8.95061
1101 1 9.02689 5.32899 10.5207
1091 1 12.3563 5.36843 7.0021
1600 3 12.4601 3.55192 8.94129
3101 3 14.2596 5.26029 8.86677
2601 1 10.6803 3.63774 10.4618
601 3 14.4728 3.5728 10.6849
2623 3 14.4734 10.6487 14.4019
1624 2 8.89164 14.5457 16.0616
62 2 10.6693 16.0317 16.1876
2084 3 16.0201 5.26115 7.08794
2602 1 16.0142 3.31141 8.87536
1102 3 16.1084 5.23671 10.4318
1706 2 12.7751 17.7298 5.13206
3602 1 1.71734 7.3905 8.7203
3090 1 1.72873 8.9094 6.79923
602 2 1.75799 10.6536 8.77832
2625 1 10.9832 14.0623 14.3685
1106 3 0.0478335 12.5292 8.90066
592 1 7.22107 7.29489 7.09407
1103 2 3.54854 8.87722 8.58501
21 2 5.28473 8.96327 7.10603
1587 1 10.6587 7.19536 7.03739
2104 3 7.40738 8.76353 8.96528
3104 1 8.86756 9.08857 10.7959
2592 2 10.5546 10.6673 7.51776
2608 2 12.457 7.1536 9.08864
3103 1 10.7952 8.90839 8.93776
3590 1 14.1836 10.5232 7.159
42 1 14.1888 8.90879 9.24118
1597 3 15.8867 0.00652397 8.87735
3608 1 15.8972 7.28738 8.84688
608 3 16.0608 10.7578 8.98127
59 3 7.032 12.4229 15.978
3621 2 8.88765 10.8415 16.2609
24 1 1.69026 12.4874 6.96264
1107 3 1.65343 12.5331 10.5329
1609 1 1.65818 14.3209 8.80737
1603 3 5.42265 10.9402 8.66919
1093 1 5.45368 12.7311 7.28232
2107 1 3.36351 12.5916 8.8348
610 3 3.53059 14.4357 10.4731
3106 3 5.40843 12.4236 10.3031
3107 2 7.41205 12.6657 8.78867
2605 3 8.86321 10.774 8.98903
1108 3 9.11765 12.6157 10.6455
45 3 10.6303 12.5566 9.04273
3611 1 8.82572 14.3563 8.84028
3606 2 12.5115 10.5158 9.05808
1109 3 14.3717 12.5942 8.91698
612 2 12.5687 14.1635 8.9792
1086 2 8.89978 15.9683 0.2076
1121 1 16.2952 8.90324 14.2811
27 2 16.0204 12.3391 7.15207
1110 3 15.9944 12.3773 10.8738
1612 3 16.018 14.2151 8.83778
2123 2 10.6885 12.6226 16.0918
595 1 3.47635 -0.0179898 10.8751
1094 2 1.64509 16.3137 6.91479
3 1 0.0821249 5.35864 1.6733
2093 3 5.25444 15.9831 7.03977
2611 3 5.30578 14.4925 8.98996
3110 1 3.76896 16.2062 8.65392
2715 1 7.13293 17.6281 7.00991
2594 1 7.06052 14.4874 7.1098
3593 2 10.8661 14.2747 7.20077
48 3 7.10852 16.0738 8.77454
2612 1 7.10477 14.0617 10.7321
2080 2 0.0284061 5.1064 5.19028
3119 1 12.591 8.98786 14.4902
1112 3 10.8352 16.0947 8.97549
2113 1 14.3335 16.1214 8.86098
1095 3 16.2544 16.0941 7.10533
57 3 10.5557 8.93906 16.4933
3112 1 16.056 15.9017 10.7467
2121 3 14.566 9.14614 16.2341
3094 1 1.84255 1.57652 10.6997
1114 3 1.87218 1.84327 14.4561
3123 2 5.41956 16.1359 14.0933
61 3 3.47266 15.8889 15.7613
1120 3 8.86159 9.17124 14.267
1096 2 5.22192 1.7026 10.5014
2096 1 3.46584 1.81967 12.5387
34 1 7.03549 1.73807 12.6746
3577 3 9.09773 -0.106055 5.38877
1564 3 9.18561 0.0836622 1.75401
2097 3 10.6919 1.79811 12.3705
1098 3 12.4116 1.94738 10.6017
1123 2 12.5584 12.2367 14.438
781 1 17.9529 14.181 7.20804
629 3 3.43388 17.8979 3.51063
35 1 14.113 1.71864 12.3943
1601 2 16.0428 3.43966 12.5765
2567 1 7.55226 0.108637 3.4171
676 3 0.122773 17.763 14.2732
1598 3 1.55447 3.72412 12.4939
3115 3 1.72211 5.61484 14.465
3600 3 5.38013 3.51693 12.3821
37 2 3.52068 5.10805 12.4158
2620 2 3.52988 7.04641 14.4012
3099 3 5.43654 5.54708 10.5384
605 3 3.61267 7.08944 10.2896
1604 1 5.44066 6.85143 12.3181
2606 3 7.22045 7.11813 10.9148
600 1 6.82501 3.45298 10.3866
1599 1 8.66915 3.4672 12.4276
2101 3 7.10386 5.34945 12.5462
3605 1 9.06172 7.05523 12.5007
3116 3 8.91164 5.37796 14.2722
3601 2 12.3683 3.69546 12.4362
3100 2 12.5194 5.2722 10.8399
38 2 10.558 5.22501 12.2489
2609 1 14.226 6.91911 10.7381
1607 1 12.4449 7.13891 12.8126
1623 3 1.82434 14.397 15.9783
2102 3 14.3168 5.18333 12.5721
3117 3 15.9737 5.14388 14.2851
3609 3 16.1262 7.25953 12.306
2604 2 3.56385 10.6408 10.3945
3102 2 2.01191 8.81956 10.6315
3603 3 1.92759 6.96786 12.5372
1119 1 1.73984 8.91465 14.4777
619 2 3.45361 10.4812 14.4031
2568 3 14.2691 0.102465 3.64515
1104 2 5.20072 8.9824 10.3544
2103 3 3.37052 8.89022 12.4385
3118 3 5.12958 8.57087 14.2021
607 1 7.06002 10.7331 10.5748
41 3 7.10109 8.75094 12.2964
606 1 10.8074 7.14978 10.8822
2105 3 10.6551 8.94553 12.5877
1105 3 12.5272 8.80644 10.9428
2586 1 10.4429 14.39 0.249934
43 3 14.4007 9.03643 12.6667
3105 2 16.1745 9.04092 10.8716
609 2 14.089 10.7517 10.99
3597 2 8.93277 0.0641636 12.6164
3740 3 5.41692 17.6696 16.0598
1602 2 1.85065 10.6579 12.3802
44 1 3.5695 12.2433 12.1677
3604 3 5.10646 10.3863 12.6403
2108 3 7.04129 12.2116 12.3558
1610 3 5.22813 14.025 12.423
2622 3 6.93395 10.5222 14.1632
1122 3 5.33435 12.4045 13.9784
1606 1 8.92014 10.7039 12.5105
3121 3 8.74815 12.4729 14.5103
621 3 10.618 10.7018 14.5081
624 1 7.00914 14.3795 14.2234
2607 3 10.8827 10.6806 10.9075
3108 1 12.8247 12.6531 10.6052
611 3 10.8093 14.2175 10.7013
46 3 10.3273 12.457 12.9337
3607 1 12.3965 10.7202 12.6227
2613 1 14.3883 14.2383 10.706
2109 3 14.1758 12.3172 12.729
1608 1 16.0605 10.9171 12.5883
3122 2 16.187 12.5121 14.3323
289 2 17.7794 8.71316 8.8618
2853 1 17.804 7.05275 10.5906
3109 2 1.91694 16.3108 10.5873
2624 3 3.54763 14.1559 14.2675
3610 2 1.96465 14.5097 12.4467
1124 3 1.61941 16.0098 14.1712
282 1 17.555 1.74017 12.5608
58 2 0.00618312 12.3115 15.9859
2111 2 3.59741 16.1155 12.4536
1111 2 5.47124 15.9858 10.882
3111 3 8.96938 15.8742 10.7352
49 2 7.29991 15.8338 12.4825
3612 3 8.69584 14.1302 12.5822
2112 1 10.8071 16.0357 12.5084
3145 3 1.90497 16.2316 17.9537
574 2 -0.114583 10.3649 3.52791
1113 2 12.5632 15.9377 10.6692
1611 2 12.4896 14.2395 12.564
2122 3 3.5636 12.362 16.0873
3613 1 16.1498 14.2193 12.6819
50 1 14.0922 16.005 12.5072
2120 3 6.84583 8.93575 16.2759
40 2 0.2655 9.03948 12.3737
616 1 3.48977 3.77757 14.1768
51 1 3.50872 1.79153 16.245
3113 2 5.13771 1.73551 14.5551
3120 3 1.83539 12.4471 14.308
1619 1 5.43603 10.6313 16.1886
56 3 3.70081 8.97761 16.1063
2115 1 7.12134 1.82505 16.2373
1115 2 8.88204 1.69939 14.4716
3617 2 9.06044 3.54663 16.3125
3624 1 5.39051 14.7621 16.2282
3114 2 12.4848 1.69996 14.2267
617 1 10.6292 3.63724 14.5116
52 2 10.9167 1.84588 16.0599
2116 2 14.2394 1.69958 16.1311
3623 3 16.0817 10.8864 16.2301
60 1 14.2936 12.5737 16.177
1116 2 15.7807 1.70645 14.1519
3618 2 15.7302 3.46735 16.129
3616 2 1.64816 3.66928 16.0838
1618 3 1.52448 7.03108 16.2883
2088 2 0.0424223 12.5906 5.00671
3620 1 5.26547 6.99562 16.2273
620 2 6.97544 7.20023 14.3824
1616 2 5.39275 3.48401 16.0734
2117 3 3.55246 5.21308 16.0842
1117 3 5.41299 5.1666 14.3804
2575 3 0.122737 7.01719 3.59455
2617 1 7.29448 3.66311 14.4927
54 1 7.29435 5.43534 16.178
1620 3 9.05241 7.22976 16.3257
2118 1 10.765 5.50567 16.161
2618 3 14.108 3.33726 14.2373
622 3 14.3442 7.10123 14.2364
1617 1 12.5741 3.63442 16.2109
1118 3 12.3669 5.22355 14.3846
2621 3 10.7691 7.18002 14.452
3622 1 12.3971 7.4019 16.1658
1621 1 12.6109 10.9095 16.3195
2860 1 17.707 14.1882 10.6939
55 1 14.4034 5.33771 16.2637
1622 3 16.0617 6.94147 16.1971
3619 1 1.89474 10.6841 16.2056
1625 3 15.8694 14.366 15.9782
297 2 17.7752 16.2269 12.3266
2597 1 7.01483 0.309167 10.7366
2615 1 10.7643 -0.0340096 14.5061
3576 3 1.66486 -0.0308308 5.42601
578 1 10.7946 10.7439 -0.0237429
1613 2 1.82158 -0.190844 15.9181
1136 2 15.9188 5.08197 17.8656
1064 3 1.82477 1.80219 0.202757
1595 2 5.19329 0.13665 12.62
661 2 10.9161 17.8776 10.6164
2727 1 14.2646 17.8362 10.809
1690 2 8.74649 17.7164 1.6975
3614 2 5.43541 0.153419 16.1632
3723 2 8.91533 17.7028 9.09848
3565 1 12.3156 0.226691 1.88234
3074 3 5.50454 8.84677 0.076515
513 1 3.44245 6.98126 17.8554
3064 2 5.37872 1.82804 0.0935811
1088 3 16.0189 16.2299 0.00887569
3084 2 5.28053 16.3925 -0.112994
3143 1 12.7722 12.4947 17.7072
2641 2 10.6171 10.9289 17.8119
581 2 14.3255 7.26125 0.0512158
1128 1 5.30905 1.82734 17.8939
516 2 7.06335 10.6201 18.0837
577 3 7.16202 7.28055 0.17283
1142 1 1.83952 12.5704 17.7
3125 2 1.70925 1.77341 17.7592
570 3 10.6474 3.50273 0.220384
1138 2 5.0707 8.69956 18.0359
2691 2 3.58813 18.1117 -0.0264377
2648 2 7.03466 14.087 17.8524
1084 1 1.91425 16.2329 0.119445
1082 3 12.6896 12.4408 0.0715075
3149 1 16.1206 16.0669 17.9622
2755 2 6.95078 17.8231 18.012
523 3 10.9613 14.3236 17.8962
522 3 3.48695 14.4156 17.5913
3070 3 9.29186 5.50581 -0.120904
569 3 3.49473 3.3737 0.158455
2571 3 6.9676 3.68571 0.103343
2573 1 14.3257 3.89561 -0.0792191
1070 1 5.34741 5.44219 -0.0112047
3141 2 5.16653 12.6176 17.8713
2127 3 3.61752 1.82749 19.6923
1628 1 2.00615 3.53226 19.8574
2371 3 17.574 12.3848 33.6829
2129 1 -0.146211 5.35488 19.7668
3126 1 5.27349 1.90957 21.5186
64 2 7.02762 1.72413 19.604
3629 2 5.28399 3.42942 19.5174
2165 2 0.00144444 8.83048 26.9927
2166 1 0.0381229 8.87123 30.494
1629 3 8.90938 3.82459 19.5875
1072 3 12.5342 5.32967 35.6158
1349 2 17.9811 5.35031 26.8152
870 1 17.7149 10.4913 32.374
1134 2 8.85385 5.40938 17.8388
2128 3 10.8163 1.82287 19.6426
3128 3 12.5628 1.83185 21.5832
1502 1 5.57953 17.9463 19.6793
553 1 0.102708 3.39113 32.4338
3627 2 8.96457 -0.113121 19.7131
1146 1 15.9343 12.5986 17.9223
65 2 14.313 1.79088 19.7573
1532 2 1.8994 17.9801 30.059
344 2 17.7529 1.67096 26.6989
1677 2 12.5623 -0.067303 33.9216
1640 2 10.6993 0.14246 25.035
313 2 17.7975 1.98127 19.6509
66 1 3.7034 5.29935 19.8522
507 2 3.69428 3.39476 21.5093
2130 1 6.98936 5.35644 19.6755
3633 1 8.99436 6.88562 19.8149
517 2 7.0742 7.28113 21.5279
1130 1 12.6363 1.71551 18.0297
3630 3 12.5817 3.88655 19.7203
67 3 10.6188 5.34512 19.7708
1634 3 12.4811 7.31268 19.5277
1132 2 1.84161 5.04877 18.1664
1630 1 16.1097 3.43532 19.5385
2131 3 14.519 5.63917 19.7891
3635 1 16.0518 7.30313 19.6424
1687 3 12.534 14.2911 34.0647
3803 2 8.79053 17.9938 33.9687
3631 3 2.11894 7.08909 19.7097
1631 1 1.71042 10.7359 19.7256
695 3 7.14306 17.6923 21.3306
2132 3 3.49231 8.99662 19.9153
1632 1 5.32936 7.1104 19.6118
3632 2 5.5805 10.6771 19.7304
3136 3 5.3855 8.89079 21.524
575 2 3.32506 10.533 35.5797
69 1 6.9675 8.9987 19.7404
2133 3 10.5618 9.1072 19.6339
1139 2 9.03988 8.8893 21.3044
2642 3 10.983 7.25531 21.4021
3138 3 12.8217 9.17277 21.4595
3634 1 12.5154 10.72 19.373
2173 3 0.0509323 16.197 30.5142
2345 3 17.6346 1.68745 30.4819
3167 1 0.0937902 12.4986 26.7491
70 2 14.3502 8.97819 19.6563
1635 3 16.0979 10.7535 19.7777
502 3 3.56018 0.0556139 17.7912
1639 1 9.07462 -0.0912248 22.9726
514 2 3.57 10.7839 21.4479
3755 1 16.2282 17.8579 19.8133
71 3 3.44136 12.4661 19.5738
3636 3 2.04115 14.3361 19.4758
3643 1 0.280125 3.3968 25.227
2135 3 7.29397 12.5546 19.4463
2643 2 7.23954 10.8629 21.4952
1633 2 8.82871 10.908 19.7747
2649 2 10.6291 14.2913 21.4793
3637 3 9.04543 14.3066 19.7549
518 2 10.6907 10.6451 21.3744
72 1 10.7368 12.3409 19.7337
2136 2 14.2017 12.5659 19.7234
1637 1 12.4797 13.9096 19.614
1145 2 12.4286 12.6394 21.5706
2645 1 14.2668 10.9048 21.4057
525 1 14.2042 14.1743 21.254
547 3 0.0945545 14.3876 28.5576
125 3 14.1556 16.3307 34.0134
2582 1 14.1985 10.6066 35.8292
3082 2 15.9273 12.3265 35.7357
1147 3 1.72815 15.8966 21.5922
2137 3 3.5944 15.9735 19.892
2647 3 3.67944 14.3724 21.7651
741 1 10.5778 17.8537 32.2249
1636 1 5.36221 14.0819 19.6898
524 1 7.17099 14.0959 21.4911
74 1 6.93837 15.8851 19.5813
3146 2 5.4222 16.0234 21.6209
1149 2 8.87124 16.1124 21.3016
2650 2 14.1977 14.602 17.8292
3417 2 17.6285 12.6202 27.0407
2138 1 10.7167 16.0502 19.811
2638 3 3.64066 10.6701 17.9387
75 1 14.2534 16.0699 19.8842
3638 3 15.8759 14.4249 19.7275
2786 3 10.8614 17.6776 28.8627
1127 3 1.8646 1.63181 21.6415
3150 1 1.86071 1.51701 24.7291
76 2 3.7297 1.6611 23.3711
1536 3 8.77292 17.8753 30.3725
3753 1 9.12117 18.0429 19.5668
2637 2 -0.139245 10.7402 21.5774
1642 2 5.3702 3.51252 23.2973
77 1 5.27149 1.70194 25.0032
1078 2 16.2855 8.8326 35.7408
2140 3 6.96562 1.58955 23.248
1129 3 8.92574 1.80377 21.4493
1643 3 7.02667 3.44037 25.1781
2788 2 12.389 17.8946 27.0067
78 2 10.7808 2.09612 23.3001
1644 2 12.6472 3.70335 23.132
3628 1 15.825 0.0144516 19.7718
698 3 14.182 17.8369 21.6326
2142 1 14.3163 1.7581 23.0055
1131 2 16.1716 1.70671 21.3537
3646 3 14.1355 3.58311 24.7504
562 2 10.5789 14.2077 32.0898
3130 3 1.77377 5.2331 21.5747
3642 2 1.66397 3.61975 23.3836
80 2 1.85771 5.27647 24.996
1645 1 1.78932 7.24133 23.5551
527 3 3.49755 3.37694 25.1285
1133 2 5.33137 5.32007 21.3874
2143 3 3.60887 5.28128 23.2918
3648 2 5.36371 6.92453 23.2077
81 1 7.1916 5.3483 23.3917
1648 1 3.67188 7.18218 25.1054
2639 1 3.53133 7.08999 21.8155
2634 3 7.12141 3.70468 21.5389
3132 2 8.61052 5.44948 21.5706
3644 2 8.84446 3.71483 23.1826
2144 1 10.8583 5.28984 23.1878
509 3 10.6903 3.76453 21.4948
1135 1 12.5446 5.60839 21.4602
3152 2 12.3684 5.51504 24.9178
2635 1 14.3517 3.75768 21.419
3134 3 16.4234 5.59147 21.5329
3645 1 16.1307 3.60443 23.0872
82 2 14.3482 5.40582 23.3904
520 3 14.4102 7.24308 21.5008
2784 1 3.5215 17.9356 28.1961
1137 3 1.768 8.97241 21.595
1154 1 1.70451 8.89516 25.2701
3186 1 8.95881 15.9996 32.2621
84 1 3.74808 8.95659 23.0389
2655 2 6.94965 7.22086 25.0719
1649 2 9.03343 7.2725 23.3679
2148 1 7.0685 9.05147 23.0325
3649 3 8.87974 10.7129 23.1815
85 1 10.7803 8.58318 23.1123
3153 1 9.02244 8.87343 25.0973
529 1 10.7191 10.5197 25.0474
3651 2 7.00958 10.6605 25.087
3652 2 12.6823 7.17728 23.0661
2149 3 14.3178 9.03343 23.2669
3650 1 10.8752 7.03823 25.0138
86 2 12.6596 9.09723 25.084
1141 3 16.0897 8.92396 21.3819
1651 1 16.1995 7.19094 23.2416
3653 1 15.6573 10.6222 23.247
1155 1 16.1722 8.6537 24.9111
1652 1 14.4871 10.9329 25.0143
2188 3 10.4633 15.5632 33.956
3140 1 1.8495 12.4462 21.4026
3647 2 1.79625 10.9579 23.3026
2146 1 -0.0823737 9.02156 23.4102
2150 1 1.81642 12.4344 25.2321
1143 2 5.51295 12.4591 21.3171
1647 2 5.49498 10.8821 23.2797
2151 2 3.65842 12.6068 23.2204
3154 2 5.34015 12.4123 25.0581
88 2 7.07838 12.3933 23.2505
3142 3 8.91412 12.3608 21.5458
89 2 9.07203 12.5565 24.8004
1654 2 9.00805 14.3925 23.2838
1655 1 10.8775 14.3443 25.1788
2152 1 10.6205 12.4526 23.3047
1650 1 12.631 10.7154 23.4009
90 2 14.3773 12.4412 23.2203
3656 1 12.6024 14.3631 23.1988
2657 2 14.198 14.4239 24.9761
1156 3 12.4937 12.5111 24.9985
3144 1 15.9721 12.5503 21.561
1656 1 16.222 14.3473 23.3109
3801 2 2.04545 17.7713 34.0569
2514 3 17.7832 10.7859 21.5448
3655 1 3.47679 14.2346 24.8511
1653 2 1.80984 14.2574 23.3338
91 2 3.56896 16.1725 23.4368
531 1 7.15075 13.9947 24.8008
3654 2 5.37582 14.2451 23.3997
92 1 5.40547 15.9043 25.0715
3769 1 12.3436 17.6241 23.2594
2155 1 7.11859 16.1613 23.2452
3751 3 1.75096 17.8834 19.7625
3148 3 12.3845 16.0048 21.5511
93 2 10.778 16.0934 23.1492
73 1 0.161753 16.2406 19.5703
534 2 7.20548 -0.271431 28.7628
2157 3 14.2993 16.0347 23.023
1151 2 16.1749 16.1616 21.4571
3156 2 16.0851 16.0776 24.9854
1657 2 1.57227 0.0117885 30.4492
3072 3 16.1281 5.3284 35.8395
1159 1 3.40036 1.53744 26.9045
2801 1 0.0799471 17.8476 32.3006
1661 2 5.20489 3.05898 26.9227
3157 3 5.16012 1.55258 28.7597
1152 1 8.93664 1.73854 24.9401
2653 2 10.8117 3.68626 25.0339
2159 2 7.13116 1.68328 26.9131
2321 1 17.8019 12.5367 19.5246
3676 3 1.71148 0.0494255 33.9408
3158 3 10.7068 1.80841 26.8604
2141 2 12.3792 1.71092 25.1261
3663 2 12.4417 3.76973 26.8472
2632 1 3.48622 3.45318 17.9443
845 1 17.9429 0.183944 28.5204
1835 1 17.5682 10.9301 24.7881
3151 2 15.9756 1.75609 24.8884
97 3 14.35 1.58256 26.7199
1161 3 16.0494 1.68367 28.7578
2664 1 14.604 3.45716 28.4774
1144 1 9.04905 12.6367 17.8354
536 2 1.81546 3.52771 26.9441
2162 1 3.46059 5.12297 27.2512
3160 2 1.68944 5.28227 28.7178
124 3 7.02354 16.2303 34.0742
1153 2 5.36507 5.11455 25.0953
537 1 3.67006 3.43382 28.5752
2662 2 8.85262 3.64806 26.7823
3161 1 7.27548 5.40193 27.112
2145 2 8.80506 5.50568 24.8987
3162 3 8.94751 5.12316 28.7999
538 1 10.8518 3.68373 28.7382
530 1 13.9474 7.33035 24.9297
99 1 10.5801 5.40654 26.8995
545 2 12.6342 7.0913 26.904
1165 2 14.5226 5.29422 26.6525
1164 3 12.852 5.16976 28.605
546 1 14.3351 7.11342 28.3761
2134 3 0.273102 12.5104 19.651
83 2 16.1549 5.40693 25.2381
539 2 15.8645 3.48368 26.709
3163 2 16.0344 5.61472 28.4323
511 3 0.293981 10.9154 17.8906
2654 2 3.4539 10.6874 25.1094
1664 2 1.74369 7.00765 27.0243
860 1 17.7046 14.1751 28.7286
2667 1 5.39589 6.89239 27.0223
2147 1 5.06539 9.05225 25.1689
3164 1 3.71328 8.89589 26.7073
3666 2 5.22511 10.7411 26.7598
3165 3 5.14444 8.85759 28.7071
3668 2 8.72794 7.30368 26.7952
103 1 6.89496 8.9642 26.9041
1167 2 10.6818 8.94034 26.7329
542 2 8.67897 10.9357 26.9326
1168 1 9.03272 9.13863 28.45
544 3 10.8496 10.7489 28.6683
3166 1 12.4422 8.87473 28.4062
2168 2 14.3912 8.80839 26.6912
2805 2 14.4127 17.8622 32.124
1670 2 16.045 7.22141 26.6138
2671 1 16.0723 10.6283 26.5975
521 2 -0.0182369 14.2635 21.2804
2665 2 1.97571 10.64 26.9387
3672 2 1.78524 14.1022 27.0429
2673 1 3.55515 14.2732 28.6645
3185 1 1.77671 15.9594 32.1449
3168 2 1.77199 12.5011 28.7515
106 3 3.49854 12.4312 26.8249
1170 2 5.05997 12.4485 28.7743
1171 3 6.906 12.4129 26.8194
2171 1 10.4996 12.1979 26.823
2670 2 6.66696 10.8495 28.6498
1668 2 12.6162 10.5952 26.7526
2672 3 14.2088 10.4981 28.6017
3170 1 14.5031 12.5799 26.7297
550 3 14.1769 14.4198 28.3702
2675 3 12.4982 14.2059 27.027
1172 2 12.5087 12.6719 28.6454
2153 1 16.0021 12.7479 25.0102
3171 2 15.9453 12.5483 28.5212
3155 2 1.75845 15.9082 25.3254
1174 3 3.54222 15.8577 26.8961
1173 1 1.78873 15.9479 28.501
2658 2 3.1979 9.11894e-05 28.7069
548 2 5.34793 14.2359 26.7442
3172 1 5.38761 16.2308 28.628
2174 3 7.19362 16.4062 26.8815
1157 3 9.00181 15.9514 25.091
1673 3 8.84747 14.1323 26.8155
3173 3 10.7598 16.0754 26.8599
1175 1 8.68743 16.0478 28.7683
2754 1 3.39628 17.8272 21.4834
2156 2 12.5995 15.9225 24.956
112 2 14.3592 16.1892 26.6912
3174 3 12.6147 16.219 28.7399
123 3 0.0515698 16.3148 34.2023
3135 3 1.91461 8.93986 17.8187
2187 1 3.49675 16.1445 33.7891
2158 3 0.0101041 1.99596 30.2776
3675 2 16.0713 14.2925 26.6559
1176 1 15.7109 16.239 28.7196
359 3 18.0009 16.0457 26.9413
715 2 7.20061 17.8862 24.7917
1158 3 1.84255 1.8095 28.9511
95 1 3.53558 1.5725 30.4936
2679 2 3.49803 3.27231 32.0923
1662 2 5.05529 3.47832 30.363
2160 1 7.27656 1.71419 30.3906
2663 1 7.35144 3.39635 28.8036
1160 3 9.12787 1.65193 28.3566
96 2 10.8981 1.8485 30.2534
3662 2 8.8466 3.44134 30.5225
3176 1 9.17265 1.62273 32.1365
2630 1 14.32 0.179395 17.5862
3159 2 12.5915 1.87069 28.318
2161 3 14.29 1.7019 30.4628
1663 3 12.7318 3.45547 30.345
3688 2 16.2008 14.144 33.789
555 3 14.2037 3.31688 32.1901
3664 3 15.8303 3.53305 30.4649
3177 1 15.9822 1.6312 32.1147
561 2 3.54737 14.1998 32.208
3661 1 1.8501 3.74596 30.5674
557 1 3.58903 7.23678 32.0263
1179 1 1.84367 5.15206 32.5877
2163 2 3.75634 5.48247 30.4096
2668 1 3.66487 6.96813 28.7094
1163 2 5.5285 5.22078 28.6116
3667 2 5.5455 7.08343 30.3771
100 1 7.25676 5.09885 30.3349
2164 1 10.8561 5.47976 30.3366
1180 3 9.03003 5.41124 31.9908
1667 2 8.84871 7.17742 30.3809
101 3 14.4552 5.4561 30.2528
3179 2 12.5556 5.37925 31.8736
1671 1 16.0391 6.99556 30.1601
1186 2 15.7826 12.4187 32.0915
1181 3 16.2189 5.53442 32.137
1166 2 2.03638 8.81271 28.8015
541 2 3.49604 10.5657 28.753
1665 1 1.75315 7.00945 30.3289
3665 1 1.80977 10.6268 30.566
2536 1 17.7874 3.53006 28.4159
2682 2 3.56493 10.8404 32.2709
1681 1 1.7209 10.8969 33.7691
102 1 3.68862 8.90897 30.5815
1182 3 5.59551 9.2019 32.396
543 1 7.14106 7.1811 28.7116
558 2 10.7707 7.09214 32.2153
2167 3 7.24991 8.97465 30.4118
3181 1 8.95962 8.99226 32.1705
104 3 10.5589 9.03022 30.5194
2684 3 10.5937 10.673 32.1054
2669 2 10.611 7.45727 28.5503
3670 1 12.3947 7.2961 30.3403
1669 3 12.5287 10.5022 30.579
2169 3 14.325 8.5834 30.1884
2685 3 14.2961 7.22571 32.0714
1685 1 15.7122 10.4518 33.8944
1515 2 9.08192 17.6798 23.291
1169 2 16.0051 8.85908 28.4755
3686 2 1.76983 14.3874 33.9323
3182 2 16.208 8.84992 32.1259
2170 2 3.42122 12.2556 30.3321
1672 3 1.75957 14.2005 30.4646
2687 3 7.17061 14.413 32.2178
1666 2 5.19527 10.6762 30.4911
107 2 7.05297 12.5793 30.2429
3183 1 5.34981 12.4723 32.2757
3673 1 5.43692 14.3927 30.6491
3169 2 8.98616 12.6083 28.7323
3669 2 8.79345 10.7481 29.9534
2674 2 10.507 14.2585 28.4504
2172 1 10.621 12.5336 30.6824
559 1 7.30603 10.7447 32.2007
1185 1 8.68754 12.5131 32.0512
3184 1 12.5061 12.2663 32.0181
3674 2 12.3806 14.3869 30.376
2757 3 10.7109 17.647 21.3982
121 1 3.46808 12.5371 34.1162
3671 2 15.9822 10.5918 30.2393
560 1 14.423 10.777 32.0282
108 3 14.0272 12.7088 30.3456
1183 1 12.4266 8.7856 32.2082
110 2 3.43824 16.167 30.2094
1184 1 1.64323 12.7449 32.2701
2326 3 17.8669 1.73956 23.3254
1187 2 5.23179 16.0823 32.3585
2175 2 6.74881 16.3346 30.4551
549 1 6.84754 14.4202 28.3817
3685 3 16.1847 7.2319 33.8366
2154 1 0.0837553 15.8419 23.0827
1674 1 8.71232 14.4725 30.4479
2186 3 14.2396 12.4854 33.9483
1188 2 12.4397 16.1293 32.1065
111 2 10.5377 15.9504 30.3617
2176 1 14.28 16.232 30.3871
94 2 -0.0308923 1.42669 26.8954
2688 3 14.2519 14.1095 32.2385
528 1 0.0458463 7.26529 25.0232
3187 1 16.054 16.1321 32.445
1675 3 15.7283 14.3672 30.5048
512 1 -0.0362056 7.12549 21.9025
3682 3 5.36013 10.6552 34.0997
3175 1 1.74893 1.67909 32.2451
2626 2 -0.0452179 0.0430285 17.6097
1177 3 5.29106 1.68297 32.2836
2177 1 3.86049 1.49387 34.2679
114 1 7.17953 2.00725 34.1563
2360 1 17.7074 16.04 30.4607
2185 3 7.16289 12.5229 34.0091
554 2 7.15661 3.60326 32.1057
2178 2 10.7803 1.71933 33.8973
2680 2 10.9613 3.42362 32.0105
1679 2 9.32359 3.32563 33.9305
1552 2 5.06695 17.9179 33.9574
1178 1 12.4436 1.64892 32.0732
1683 1 9.18215 10.8114 34.1145
115 1 14.3665 1.76047 33.9427
2179 2 0.239223 5.175 33.9737
120 2 14.2911 8.87408 33.9502
1554 3 12.432 17.9583 33.6921
1678 1 1.84552 3.39889 34.1554
3681 3 1.61742 7.23255 33.8631
116 3 3.72577 5.26768 33.9535
2660 2 12.2989 -0.0711535 26.6946
835 2 17.7175 13.9121 21.2991
3178 1 5.28748 5.1889 32.3808
3679 3 5.1634 3.40998 34.0132
1682 2 5.51891 7.1796 33.9886
2683 1 7.11448 7.02934 32.3052
2180 1 7.04007 5.21422 33.98
3683 2 8.81651 7.14399 34.1228
356 2 18.0771 12.2961 30.3233
971 3 17.7777 17.6328 28.6496
3687 3 8.93642 14.0258 34.1662
3680 2 12.3768 3.5415 33.8423
117 1 10.8511 5.51746 33.8634
2181 2 14.2773 5.30025 33.8975
1684 2 12.7048 7.14298 33.7368
122 3 10.6965 12.4942 34.0815
1680 3 16.0404 3.46886 34.0548
119 1 7.37457 9.0003 33.9773
1686 3 5.4151 14.331 33.9685
3684 3 12.4648 10.734 33.9806
3180 1 1.93285 9.15731 32.3215
2182 1 3.64784 8.80587 33.9452
2183 2 10.6981 9.02304 33.9739
329 3 17.7867 5.25598 23.3829
3788 2 16.0448 17.7778 26.7847
693 2 10.5535 17.7297 18.1465
105 1 -0.155545 12.4149 30.4931
510 3 14.2278 3.76271 18.0406
3139 3 16.2306 8.97359 17.8631
3129 1 15.9761 1.7989 17.8295
68 1 -0.0701136 9.04361 19.7191
1066 3 9.03969 1.7836 35.8682
2633 3 11.0685 3.59651 17.9448
1074 1 1.65854 8.96777 35.4399
1150 2 12.5123 16.1677 18.0467
2938 2 17.9609 17.7201 17.8617
3137 1 8.62839 9.08713 17.7936
1140 1 12.607 9.18069 17.9816
3066 1 12.6347 1.85238 35.6338
1148 2 5.21938 16.0971 17.9657
3131 2 5.31557 5.25996 18.075
3076 2 12.5463 9.00747 35.7255
3068 1 1.89154 5.50801 35.6313
2646 2 0.125324 14.2768 17.9396