ITEM: TIMESTEP
5000
ITEM: NUMBER OF ATOMS
4000
ITEM: BOX BOUNDS pp pp pp
8.6878976418859111e-02 3.5647181023581155e+01
8.6878976418859111e-02 3.5647181023581155e+01
8.6878976418859111e-02 3.5647181023581155e+01
ITEM: ATOMS id type x y z
1 1 0.0705691 1.83027 1.90771
1563 3 0.0560362 0.090488 0.0408368
2064 1 1.89981 2.14126 0.111976
3561 3 1.99271 0.205972 1.94033
564 3 3.71645 2.0246 1.93045
565 3 7.23404 1.93673 1.82988
1565 3 7.07269 0.0425611 -0.00069138
2065 3 3.64785 0.0980831 0.224604
3061 3 5.5362 1.94963 0.0624024
3562 1 5.36888 0.18247 1.95244
566 2 10.8388 1.80351 1.84561
1070 2 10.823 -0.076878 0.0459755
3063 3 8.98752 0.177307 1.81854
3062 3 9.09114 1.70265 -0.0697436
567 3 14.4761 1.79965 1.77124
2566 1 14.4344 0.0243657 -0.0354968
3064 2 12.6717 1.87615 0.000622457
3563 2 12.7062 0.0919382 1.83059
2 1 17.9739 0.0991221 -0.0171866
3 1 16.211 0.141683 1.82845
3066 2 17.7981 1.92994 1.83347
3065 1 16.1852 1.79378 0.110566
4 2 1.9024 5.53192 0.11659
5 3 1.98644 3.63114 2.09057
6 3 2.03719 7.35504 1.7928
1071 3 0.127018 5.51901 1.96955
3067 1 0.210593 3.63154 0.373683
3565 3 -0.102043 7.25323 0.115536
7 1 5.50957 5.52432 0.193163
8 2 3.73651 7.17205 0.00215902
1072 2 7.2822 5.477 2.04115
1075 3 5.45773 7.27335 1.77118
1074 2 3.68126 5.57073 1.85349
1567 1 7.08248 7.10585 0.0448786
2570 1 7.17667 3.74379 -0.0299592
2569 2 3.72993 3.62012 -0.00843941
3569 3 5.52803 3.87527 1.92883
9 1 9.03672 5.43517 0.241801
10 1 9.16087 3.55812 1.76267
1077 3 10.7825 7.35248 -0.171727
1076 2 10.9344 5.50436 1.87996
1568 3 9.07523 7.22555 1.83055
3068 2 10.8587 3.56653 -0.0433165
11 1 12.4782 5.50419 0.191497
12 1 14.4434 3.57996 0.125873
570 3 12.5705 3.65058 1.69563
1571 3 14.2674 7.24717 0.106247
1570 3 14.3668 5.4548 1.7174
1569 3 12.5342 7.26437 1.75943
572 1 16.3066 3.60662 1.95512
1081 2 16.1882 7.15658 1.80329
1079 2 17.9398 5.51345 1.73317
1078 3 16.1024 5.40429 0.0797831
1573 2 17.6987 3.59605 0.127268
2070 2 17.7604 7.12356 0.14288
575 1 1.90347 10.6717 1.75934
1082 3 2.13914 9.0979 -0.0558507
1574 3 0.321742 8.92917 1.78857
3070 1 0.176699 10.7256 0.120933
576 2 3.66568 10.858 0.0313108
1085 3 5.55307 8.9539 0.0752065
1083 1 5.54926 10.8738 1.81575
1577 3 7.31459 10.6555 -0.114473
1576 2 7.26455 8.8578 1.85463
1575 2 3.70148 9.01113 1.79202
14 1 10.6302 10.6876 -0.357283
1087 2 8.80532 10.8107 1.79242
1086 2 8.93175 8.98256 -0.0253884
2071 2 10.7578 9.08283 1.76597
580 1 12.5957 10.7896 1.73641
1088 3 14.4812 10.8068 -0.150183
2073 2 12.5467 9.07241 -0.0818599
2074 2 14.4951 8.90172 1.80321
15 3 17.9983 8.93505 1.75319
1581 2 16.1409 10.4215 1.92543
2076 2 17.8173 10.8176 -0.163623
2075 3 16.123 8.78923 -0.0633354
2079 1 1.95236 12.5151 -0.0103134
2078 2 1.82274 14.321 1.79261
2077 1 0.0618199 12.5541 1.86878
2572 3 0.112422 14.3746 0.133021
2082 2 5.69191 14.3074 1.86834
2081 3 3.65245 12.4979 1.86563
2080 1 5.52539 12.6259 0.0737866
2576 1 7.09377 14.2716 -0.0174605
2575 2 7.25532 12.5514 1.89594
3071 1 3.85361 14.4143 0.188944
1583 2 9.0656 14.4584 1.74625
2084 3 10.7278 14.1163 -0.0252023
2579 3 10.791 12.3081 1.79014
3073 2 8.9964 12.5212 -0.0346016
2085 1 12.4861 14.2637 1.73473
2580 1 14.4352 12.4307 1.87978
3074 1 12.5683 12.4993 -0.0532755
3574 3 14.5712 14.0984 -0.00570327
581 2 17.6741 12.4086 1.88152
1089 3 18.0953 14.4244 0.00112381
2583 1 16.2635 14.3397 1.87097
3075 3 16.1687 12.5625 -0.0364317
16 1 0.201128 17.93 0.29604
2086 2 1.83647 17.9327 1.81857
2584 3 0.225141 16.0904 2.03349
3076 1 2.02127 15.9372 0.130221
17 2 5.47878 16.1214 -0.0218042
1090 3 3.78904 17.8101 0.116011
2585 3 7.1798 17.7973 0.0101393
3079 3 5.56843 17.7602 1.7484
3078 2 7.18366 15.9321 1.79818
3077 2 3.68702 16.194 1.78236
18 1 8.78647 16.1091 0.0243849
1585 1 10.6272 17.7445 0.0173629
3080 1 10.8814 16.0234 1.61169
3578 3 9.06729 17.8704 1.92504
19 1 12.5232 16.0121 0.102732
2088 3 14.2711 17.7533 0.00880145
3081 3 14.4716 15.8817 1.82482
3581 3 12.5196 17.901 1.83265
20 1 16.1565 16.002 0.0178405
1586 2 17.925 16.1064 1.87789
3083 2 16.1688 17.8457 1.97797
3082 1 17.9145 18.0857 0.296691
584 2 2.00839 1.91784 7.17202
1564 2 0.10127 0.0756248 3.67445
2588 3 1.94968 0.0984668 5.44572
2563 1 1.85073 1.86791 3.83955
3084 1 0.0177778 0.121585 7.24015
3583 3 0.0816758 1.6877 5.35782
22 1 5.37302 1.87205 7.12351
1069 2 3.4893 0.232925 3.68395
1566 2 7.10049 0.0265703 3.65584
2089 3 5.3743 0.106766 5.34387
2590 2 3.73733 0.139653 7.31086
2564 3 5.46066 1.77858 3.59653
3085 2 6.96918 0.228909 7.08755
3585 1 3.58877 1.80787 5.52329
3584 2 7.32351 1.81351 5.49759
586 2 9.13389 1.81663 7.18019
2066 1 10.6836 0.247048 3.64608
2593 3 8.86608 0.0480975 5.3733
2565 1 9.05093 1.65695 3.63037
3086 2 10.8968 -0.119074 7.23183
3586 1 10.7853 1.78131 5.5503
23 1 12.4938 1.98307 7.14037
24 3 14.3408 0.116285 7.0807
25 1 14.6693 2.0087 5.43845
2568 3 14.6209 0.116125 3.74275
2567 3 12.5984 1.76286 3.70888
3087 3 12.6504 0.0154734 5.32616
568 1 17.9385 -0.0226745 3.76576
588 2 16.1697 1.84743 7.17163
1587 2 17.8856 0.108658 7.35294
3088 1 16.2744 0.0390232 5.53108
3588 3 17.9556 1.96203 5.64684
3564 2 16.2226 1.9323 3.75442
27 3 1.68537 5.30961 7.26019
28 2 2.11619 7.14133 5.46509
589 2 0.120627 5.33353 5.36877
2067 2 0.0687387 3.69842 3.71473
3090 2 1.68016 3.59771 5.36696
3590 3 0.260928 7.10572 7.15676
3589 2 0.16405 3.62089 7.35107
3567 2 0.192835 7.09253 3.84216
3566 2 1.89752 5.39048 3.75644
29 3 3.64896 3.69318 7.13503
593 1 3.5888 7.14649 7.23846
592 1 7.24725 5.3731 5.27103
591 3 7.23477 7.05598 7.01427
590 2 3.78495 5.32574 5.50662
1095 2 5.54405 5.31352 7.09171
1094 3 5.43885 7.34851 5.33224
1073 1 3.72346 7.25597 3.57432
2068 1 7.21855 7.20804 3.54746
2069 1 3.73524 3.48682 3.83627
3593 2 5.45884 3.49237 5.36626
3592 2 7.09765 3.52632 7.19096
3570 2 5.40708 5.55028 3.61281
3568 1 7.35596 3.50178 3.63994
31 3 8.96172 3.49242 5.29813
569 1 10.9082 7.38177 3.5433
594 1 10.7712 5.48437 5.23399
1097 2 8.94246 5.46685 7.02738
1590 1 9.11287 7.22965 5.21083
1589 2 10.8167 7.211 7.07245
3594 2 10.6822 3.62511 7.3097
3572 1 10.9033 3.54294 3.41325
3571 1 9.18825 5.25049 3.59648
33 3 12.5056 3.62404 5.35281
35 3 14.2788 3.63994 7.39329
571 3 12.5597 5.66475 3.67059
595 1 14.285 7.06877 7.32024
1100 3 14.2177 5.40243 5.40657
1099 3 12.355 5.30769 7.2813
1592 2 12.7196 7.33162 5.35595
1572 1 14.3322 7.20655 3.43164
3069 1 14.1818 3.6868 3.51599
573 2 16.111 5.37106 3.69409
1080 3 17.8855 3.64119 3.63413
1595 1 15.9645 7.07257 5.5514
1594 3 15.9474 5.41888 7.41648
2094 1 17.9871 7.35966 7.3722
2092 1 17.9542 3.68235 7.17879
2571 3 17.7916 7.23143 3.59225
3092 1 17.9135 5.71458 5.49638
3595 1 16.126 3.9056 5.55262
13 1 0.252377 10.7378 3.54588
597 3 0.146457 10.7616 7.11654
596 1 1.86305 10.8923 5.3929
574 1 1.7132 9.06503 3.69078
1102 3 1.83506 9.00142 7.21753
1101 2 0.122258 9.14894 5.44801
38 3 3.76958 10.7211 7.1139
578 2 3.60472 10.7356 3.43906
577 2 5.442 8.92846 3.60447
1106 1 7.27829 10.676 7.0924
1104 1 5.46304 10.7432 5.29684
1103 3 3.66848 9.16504 5.23892
1084 3 7.29698 10.6287 3.63963
1597 2 7.42205 8.96517 5.40207
1596 1 5.45901 8.90061 7.21277
39 1 10.6975 10.7368 7.18616
599 1 9.14043 10.7563 5.22212
579 1 10.9763 10.765 3.61164
1107 1 9.18113 8.86718 7.22445
1578 2 9.07336 8.96811 3.59965
2097 3 10.8041 8.86434 5.3585
1108 2 12.5333 10.7019 5.39135
1598 3 12.4618 9.01765 7.25472
1579 2 12.7266 8.97078 3.46455
2072 1 14.5375 10.5442 3.70668
2099 2 14.2911 10.7996 7.06321
2098 1 14.3996 8.91748 5.56136
1599 2 16.0441 8.88806 7.30849
1580 1 16.2219 8.80741 3.58604
2100 1 15.9739 10.8034 5.6203
3093 3 17.9757 10.7787 7.10123
3597 3 17.7941 8.88382 5.37218
3573 3 17.6789 10.6202 3.66948
1110 1 0.349363 14.2005 7.0468
1582 3 1.79643 12.7415 3.68672
2103 2 2.07862 12.5556 7.15209
2102 1 2.01572 14.4021 5.39748
2101 2 0.0903161 12.6845 5.48948
2573 3 0.0719272 14.3997 3.79091
1112 2 7.23016 14.3193 7.19501
1600 2 5.51892 12.545 7.07444
2104 2 5.62159 14.3445 5.33835
2083 2 3.65353 14.3082 3.47739
2601 1 7.33267 12.4652 5.13688
2600 3 3.77396 12.5686 5.25471
2599 2 3.68689 14.2212 7.08217
2577 2 7.24577 14.3099 3.71947
2574 2 5.60655 12.6266 3.59665
2604 1 8.96601 14.1894 5.26872
2603 3 10.9322 14.3251 7.07384
2602 2 10.7689 12.3663 5.39567
2578 2 9.02044 12.4263 3.47384
3097 1 8.97522 12.5198 7.04132
3072 1 10.7941 14.217 3.46089
602 2 14.3768 14.1342 7.11936
1603 1 12.5597 12.5683 7.03697
2605 3 14.3097 12.382 5.3417
2581 2 12.5694 12.3825 3.4967
3098 2 12.6844 14.2951 5.16749
3575 2 14.3798 14.1856 3.51399
1114 1 17.7926 12.5533 5.26342
1584 2 18.038 14.3419 3.60113
2582 2 15.9968 12.3935 3.58913
3100 1 16.1234 14.1997 5.23932
3099 1 16.1085 12.6131 7.03013
3599 2 17.811 14.3488 7.14899
582 2 0.0585639 17.9756 3.81741
1605 2 2.0162 17.8132 5.29576
1604 1 2.06196 16.0161 7.08595
3104 1 0.06164 16.1187 5.38906
3103 2 0.207401 17.7646 7.01722
3576 2 2.13734 16.228 3.41551
2087 3 3.65681 17.8564 3.48577
2607 1 5.67784 17.9272 5.40897
2586 3 7.27759 17.6582 3.64348
3107 2 7.46889 17.8021 7.05975
3106 3 5.34888 16.1655 7.19456
3105 1 3.50718 17.8987 7.13589
3602 3 3.70103 16.0618 5.38022
3601 3 7.33395 16.0861 5.45903
3577 3 5.50271 16.1332 3.66899
1091 1 10.8799 17.7859 3.74147
2107 2 9.06696 15.9803 7.1209
2608 2 9.17804 17.6358 5.44113
3109 3 10.7315 17.8464 7.17047
3603 1 10.792 15.9183 5.30916
3579 3 8.99614 15.9501 3.51953
41 3 14.4115 16.1302 5.35297
2610 3 12.5433 17.9138 5.59227
2609 2 14.2596 17.9059 7.23457
2587 1 14.2297 17.8329 3.68425
3604 3 12.4617 16.0943 7.26819
3580 3 12.6811 16.0448 3.45323
583 1 16.0832 16.0131 3.57335
1606 2 17.9645 17.9638 7.04644
2109 3 16.1068 16.0393 7.06123
3112 2 16.0705 17.9276 5.35014
3110 1 17.8695 16.0358 5.41719
3582 2 17.833 17.8303 3.56748
21 2 -0.147289 1.64335 9.04031
604 3 0.108273 -0.0753628 10.9244
2110 1 1.7421 1.77734 10.8115
2589 2 1.86296 0.0912087 8.87849
585 3 7.3872 1.70044 8.92216
1092 3 5.42656 0.038751 8.99401
1608 2 7.19649 0.0383622 10.7858
1607 2 3.51992 0.0518141 10.7816
2111 2 5.52144 1.84789 10.6003
2591 2 3.81561 1.92667 8.93879
1116 1 10.8272 0.109363 10.6541
2612 2 9.05799 1.69407 10.7597
2592 1 10.8301 1.83073 8.88058
3587 2 9.12277 0.0445832 8.86985
587 2 14.195 1.76835 8.95158
1609 2 14.3184 0.000424735 10.7626
2090 2 12.4857 0.0666224 9.02864
2613 1 12.7596 2.00988 10.8344
26 2 15.9091 0.184426 8.85693
2594 1 17.9294 1.74124 9.13502
3116 3 16.077 1.74638 10.6992
3115 3 17.8548 0.00699196 10.8975
1093 1 1.78171 7.20781 9.02907
2091 3 1.87107 3.62 9.15619
2615 1 0.0517356 3.57359 10.6793
3118 3 0.158566 7.17362 10.8944
3117 2 1.98232 5.29967 10.7044
3089 1 -0.0414607 5.29896 9.2186
30 3 5.32741 3.82456 9.04252
45 2 7.20202 7.19089 10.7742
1096 1 3.57089 5.56113 9.01178
2112 3 7.2775 3.76012 10.7477
2616 3 3.61555 3.59754 10.7236
3091 3 7.24761 5.37451 8.88633
3608 3 3.67907 6.9809 10.8319
3607 3 5.31858 5.51771 10.7897
3591 2 5.57447 7.30191 9.05067
46 2 10.7297 7.26113 10.7525
1098 2 10.5743 5.29348 8.91693
1591 1 8.89618 3.62368 8.68372
1588 2 9.05113 7.12558 9.03289
2113 1 10.6467 3.54688 10.9671
3609 2 8.83691 5.50415 10.7914
32 3 12.5468 7.11719 9.01609
34 1 12.3903 3.67769 9.08288
36 2 14.2221 5.4858 9.01864
609 2 14.3224 7.28873 10.56
3119 1 14.2513 3.57925 10.6879
3611 3 12.5037 5.38854 10.7838
1120 3 17.8148 3.61741 10.7182
1615 3 17.7946 7.20843 10.8567
1593 1 17.766 5.39981 8.98934
2093 1 16.0451 7.27986 9.21864
2595 3 16.0394 3.54384 9.04781
3612 1 16.0465 5.2872 10.5841
48 1 2.04645 8.90974 10.8661
2095 1 0.100213 8.86167 9.03388
2596 2 2.03488 10.6571 9.11994
3120 1 0.102643 10.6865 10.7171
37 3 3.56992 8.94058 8.94062
49 2 5.44065 8.97562 10.7098
612 3 7.25014 10.7205 10.4923
1105 3 5.43233 10.6404 8.97706
2096 3 7.36849 8.98109 8.72293
3121 2 3.84374 10.6377 10.8855
613 2 8.85643 9.08074 10.6605
598 1 10.6512 9.00259 8.98296
3613 2 10.6428 10.6512 10.6092
3596 2 9.16707 11.009 8.74673
50 2 14.3164 10.7315 10.7281
614 1 12.6839 9.049 10.8654
2598 2 12.5726 10.8201 8.99104
2597 3 14.3049 9.11137 8.86091
51 1 18.0797 10.8945 10.7216
600 2 18.0119 8.95637 9.15014
1122 1 16.2056 9.08716 10.6365
1109 1 16.0323 10.899 8.80531
616 1 0.210988 14.3527 10.7732
601 1 0.0867346 12.4417 9.0712
1123 3 2.01001 12.5072 10.8246
3094 1 1.78654 14.2248 9.02438
1124 1 5.51691 12.4756 10.8709
1111 1 5.46795 14.3084 8.8709
1619 1 7.21363 14.2252 10.7173
1618 3 3.42923 14.2926 10.5331
1601 1 7.05212 12.4853 8.90574
3095 1 3.88465 12.518 8.90213
617 3 10.7961 14.2296 10.5882
1125 1 9.03049 12.4661 10.6786
3096 3 9.0034 14.1264 8.93224
3598 3 10.8912 12.5834 8.96682
1126 3 14.2767 14.0986 10.8035
1113 1 12.6397 14.1936 8.90672
1620 2 12.475 12.4029 10.7443
1602 1 14.1953 12.4178 8.89304
1621 3 16.0399 12.4376 10.7354
3126 1 17.7643 14.3053 10.8053
3102 1 16.0647 14.2201 8.93406
3101 2 17.6828 12.5989 8.95994
1623 3 0.297199 17.8531 10.7427
2119 2 1.76496 16.0484 10.8518
2606 2 1.88794 17.985 9.03401
3600 3 0.242808 16.0243 8.88529
40 1 7.21027 15.9221 8.88097
619 1 3.72488 17.783 10.7129
1127 2 7.14494 17.8042 10.7112
2120 2 5.43815 16.0183 10.6267
2106 3 3.45149 16.1944 8.76286
2105 1 5.58288 17.902 8.87924
1624 1 10.8113 17.8169 10.8299
2108 1 10.6669 15.9781 8.9377
2625 2 8.9851 15.9334 10.6466
3108 3 9.21352 17.8511 8.90763
603 2 14.3611 16.013 8.92867
1115 2 12.683 17.7048 9.1581
2626 3 12.5549 15.9805 10.7056
3620 2 14.4279 17.6654 10.8077
2628 3 16.0908 16.0393 10.5152
2611 2 17.8699 16.1884 8.75889
3127 1 17.6834 17.7557 10.5998
3111 1 16.0416 17.9507 8.85881
42 1 -0.00534123 1.7521 12.4995
2121 2 0.0524311 0.257135 14.3418
2629 1 1.86854 1.96659 14.263
3113 1 1.88166 0.0333423 12.5187
43 3 3.59948 1.91825 12.4133
605 2 7.4725 1.93011 12.3412
1625 3 7.23284 0.231434 14.3186
2123 1 3.79038 0.215968 14.247
3128 2 5.29835 1.97122 14.2454
3605 3 5.32914 0.202838 12.4106
606 2 10.7823 1.91498 12.5748
1627 1 10.7556 0.0894614 14.3239
3129 2 9.16415 1.93659 14.4252
3606 2 8.98024 0.00369427 12.5361
1117 2 14.3325 1.88876 12.5978
2632 1 14.2115 0.0269169 14.4446
3131 1 12.417 1.87154 14.3519
3114 3 12.4673 0.138209 12.5237
44 1 15.8984 0.153681 12.7051
501 3 17.827 0.233632 14.2343
2614 1 17.9982 2.00233 12.516
3132 3 16.143 2.01804 14.359
607 2 1.76648 3.60504 12.4701
1119 1 1.92771 7.11142 12.6668
1118 3 0.182029 5.3373 12.421
2634 2 0.21252 7.01098 14.323
2633 1 -0.0270638 3.4705 14.19
3624 3 1.89207 5.24426 14.2745
60 3 7.1941 7.18983 14.4219
608 3 5.32763 3.49838 12.4764
1612 3 7.20086 5.50661 12.6029
1611 2 5.35465 7.19234 12.5606
1610 3 3.61358 5.25934 12.4519
2128 2 7.10329 3.6352 14.3463
2126 3 3.62386 3.6744 14.4995
3136 1 3.69294 7.10736 14.3188
3626 2 5.4613 5.39366 14.387
1613 3 10.6078 5.53898 12.5449
2114 3 8.84637 7.27634 12.6526
3137 2 10.6218 3.82924 14.3442
3629 1 8.7044 5.51612 14.3464
3628 2 10.6559 7.08282 14.4466
3610 1 8.88863 3.71696 12.4979
610 3 12.4432 3.72785 12.5887
1614 2 14.3404 5.39974 12.4562
2617 3 12.568 7.19126 12.5905
3138 2 14.3359 3.76855 14.4527
3631 1 14.4118 7.23287 14.3249
3630 3 12.4935 5.41107 14.2615
47 2 17.937 5.27172 12.4318
65 3 16.0889 5.58503 14.2801
1138 2 17.993 3.69239 14.2178
1121 1 16.1804 3.73097 12.5527
2618 1 16.0879 7.13535 12.4078
3140 2 17.9099 7.41992 14.2224
67 3 1.89788 8.81701 14.3329
611 2 1.87771 10.6501 12.6529
2115 1 0.112347 8.96787 12.6218
2636 3 0.15261 10.4992 14.4429
69 1 7.28699 10.6908 14.4601
70 3 5.37388 8.93149 14.2082
1616 2 5.35644 10.757 12.6284
2116 2 3.51545 8.86659 12.68
2619 2 7.13331 9.00057 12.5629
3633 1 3.46346 10.4659 14.284
71 3 8.9989 8.87287 14.4118
2117 3 8.9324 10.5836 12.594
2620 2 10.4906 8.90389 12.4648
3141 1 10.6461 10.7749 14.3065
510 3 12.6491 9.002 14.2772
1617 1 12.5666 10.5761 12.3629
3122 2 14.5185 8.96215 12.4619
3635 3 14.3526 10.6113 14.3222
511 1 16.0752 8.82457 14.1193
615 1 17.8212 8.99275 12.3873
1639 3 17.8471 10.7511 14.3111
2118 3 16.0786 10.8584 12.4296
513 1 0.244627 14.2626 14.2477
514 3 2.04476 12.4437 14.2108
2621 1 -0.00586227 12.4386 12.6795
3123 1 1.88241 14.2989 12.6067
72 1 7.09716 14.1185 14.0592
515 2 5.47018 12.5574 14.2085
516 2 3.74216 14.3725 14.1574
3125 2 7.23928 12.412 12.5672
3124 1 3.74894 12.6312 12.4916
3614 2 5.40036 14.3834 12.4275
73 3 10.6821 14.1186 14.3992
1145 3 8.84058 12.4883 14.3459
3616 2 10.6117 12.226 12.4665
3615 3 9.09196 14.1275 12.4998
1147 2 12.4682 12.5261 14.2649
1146 3 14.1597 14.2751 14.3693
2622 3 12.5742 14.159 12.4125
3617 3 14.4029 12.5221 12.5634
1149 1 16.0536 12.3191 14.4645
1622 3 17.8714 12.4798 12.7997
3146 2 17.751 14.3533 14.3101
3618 1 16.071 14.3064 12.5323
52 3 0.0299582 16.3365 12.4397
518 3 0.17587 17.892 14.2729
1150 2 1.76445 16.0696 14.2676
2623 1 1.98098 17.8358 12.6138
53 1 3.63958 15.916 12.3694
618 3 7.29441 15.9135 12.5312
1151 1 3.70399 17.8795 14.0016
1642 1 5.50571 16.0562 14.1866
2142 1 7.20888 17.8695 14.2126
2624 1 5.52584 17.7576 12.3907
54 3 10.6914 15.751 12.4746
1643 3 9.03017 15.9097 14.3279
2649 3 10.7356 17.734 14.169
3619 1 9.09647 17.6338 12.3155
55 1 12.5522 17.8108 12.7024
620 2 14.2599 16.0052 12.4273
1646 1 12.4392 15.9885 14.2764
1644 1 14.2527 17.7099 14.2339
56 2 15.9781 17.797 12.5374
1647 3 15.9431 16.1763 14.2726
2627 3 17.8103 16.0984 12.532
3644 3 17.8145 17.9621 14.2936
57 3 1.76189 0.168818 15.9955
621 1 -0.0653368 1.75141 16.1297
1128 2 0.127347 0.29593 17.9941
2122 3 2.0089 1.83249 17.8777
58 1 5.35987 0.143164 16.0743
1132 2 7.17489 0.264404 17.9655
1131 2 7.26656 1.80854 15.9647
1130 2 3.67133 0.0635939 17.7351
1129 2 3.56288 1.71396 16.0398
2630 3 5.36108 1.86664 17.797
1133 3 10.9033 2.03115 16.2579
1626 3 10.8796 0.0716297 18.0093
2631 1 8.98316 1.77361 18.1619
3621 3 9.07158 0.216154 16.1418
59 1 12.617 0.202442 16.0941
1134 3 14.4688 1.91887 16.0788
2124 3 14.3194 0.130152 17.8685
3130 3 12.7252 2.07959 17.8204
502 1 16.0879 0.0572504 15.9465
3133 3 16.224 1.71607 18.0471
3623 1 17.7555 0.0195698 17.8417
3622 2 17.9166 1.63841 16.0735
503 3 1.55861 3.5798 16.1074
504 3 1.96183 7.11512 16.0332
1628 1 0.0383756 5.38977 16.1298
2125 2 0.0754662 3.57845 18.1432
3134 1 0.077675 7.13362 17.8759
3625 1 1.76599 5.36112 17.8631
61 3 5.5955 3.63041 16.2125
505 2 3.5694 7.17989 17.8845
1135 3 7.13542 7.13724 17.953
1631 1 5.30465 7.09677 16.1547
1630 2 3.625 5.31538 16.2492
1629 3 7.24529 5.39439 16.451
2127 1 3.72763 3.64856 17.8767
3135 3 7.2408 3.57973 17.8464
3627 1 5.4302 5.53262 17.9532
62 2 8.95025 5.45924 17.9641
63 2 10.7129 7.26526 17.9117
506 3 8.97552 3.76047 16.2037
1632 1 10.7789 5.33272 16.2006
2129 2 9.03068 7.17584 16.204
2635 3 10.7464 3.83387 17.9857
64 1 12.5805 5.50793 18.0056
1137 1 14.209 7.17932 17.7924
1136 2 12.5793 3.62712 16.0312
2131 2 14.2338 5.58382 16.0661
2130 3 12.6053 7.22956 16.0849
3139 1 14.5302 3.65622 17.9598
66 1 17.8094 5.59982 15.9752
507 3 16.1625 5.49043 17.8514
1140 3 17.919 3.6784 17.8161
1139 3 16.2672 3.72873 15.9976
1634 3 17.7787 7.32215 17.7033
1633 2 16.1062 7.31618 15.8206
508 3 1.90256 9.08489 17.7964
1141 1 1.94215 10.7488 16.0742
2132 3 0.0809784 8.74556 16.1803
3632 3 0.101794 10.6042 17.7497
68 2 3.64816 10.6932 17.7299
509 1 7.14956 10.6426 17.692
1142 1 5.30606 8.92311 17.9986
1635 2 5.47036 10.7862 16.1649
2134 1 7.3472 8.85215 16.2398
2133 2 3.6519 9.01957 16.1593
1143 3 9.1036 9.03256 17.936
1636 2 8.98492 10.862 16.0929
2637 1 10.6553 8.98127 16.1381
3634 2 10.7466 10.8919 17.9847
1144 3 12.4123 10.7064 16.089
1638 1 12.396 8.9133 17.7951
1637 2 14.3475 10.6673 17.8374
2638 3 14.3052 9.07091 16.0651
512 1 17.8975 8.96449 15.9596
1640 3 16.0364 8.94994 17.8145
2135 3 16.0665 10.8049 16.0472
2639 2 17.8488 10.6933 18.0254
2137 3 -0.184052 14.337 17.7031
2136 1 1.72289 12.5973 17.7399
2641 3 1.73316 14.3372 16.1475
2640 2 0.126261 12.5001 15.8465
2140 1 7.08655 14.201 18.0388
2139 3 3.65243 14.3222 17.6969
2138 2 5.36554 12.5575 17.9516
2643 3 5.40182 14.279 15.9891
2642 2 3.68992 12.4994 16.0108
3142 3 7.04691 12.5947 16.0991
2141 1 9.08961 14.2036 16.2246
2645 1 8.84836 12.7433 17.8902
2644 3 10.7054 14.4442 17.8905
3143 2 10.7791 12.4541 16.0896
2647 2 12.4508 14.3943 16.0126
2646 2 12.389 12.4007 17.8661
3145 1 14.3801 14.404 17.7596
3144 1 14.1682 12.4601 15.9529
517 1 17.8152 14.4731 17.9266
1148 2 17.8337 12.509 16.0652
3148 1 16.1015 14.3328 15.9382
3147 2 15.8853 12.5335 17.6601
2648 1 2.00228 18.0104 15.8002
3150 3 1.74664 16.2172 17.6048
3149 1 0.0133307 16.0933 16.0345
3636 2 0.0226647 17.9032 17.5555
1641 1 3.81849 17.8894 17.8671
2143 2 7.10561 17.6983 17.838
3640 1 5.42209 18.064 15.9936
3639 1 7.26439 16.0795 16.0267
3638 2 5.32552 16.0337 17.7474
3637 3 3.67759 16.0507 15.9001
74 3 8.87492 17.7956 16.136
519 2 10.5787 17.7783 18.0046
3642 1 8.96452 16.0044 18.0865
3641 1 10.621 16.0342 16.1676
75 1 12.3371 16.0549 17.7862
76 3 12.4161 17.7375 15.9432
1645 1 14.1652 17.8963 17.7955
3643 1 14.3173 15.9913 16.1946
77 2 16.1053 16.1946 17.7726
2144 3 17.9416 16.3067 15.9522
2650 2 17.7783 18.0152 17.667
3645 2 16.0722 17.7612 15.9775
520 3 -0.155294 0.0299487 21.4939
78 1 0.0637534 1.89606 19.8278
2145 2 1.7115 1.72113 21.4039
3151 3 1.86687 -0.00897015 19.7595
521 1 3.59322 0.0930529 21.5394
80 3 3.66957 1.82247 19.7198
79 3 7.0914 1.78924 20.0512
2147 3 5.31387 1.93945 21.4111
2146 3 7.2836 -0.0402043 21.3621
2651 3 5.31543 0.0550013 19.5949
81 3 11.0433 2.06782 19.8704
1648 2 10.7704 -0.00123455 21.1469
2652 1 9.21348 1.80184 21.2972
3152 1 9.02303 0.135012 19.5869
522 3 14.37 1.9483 19.603
1649 2 14.247 -0.0422171 21.6485
2653 2 12.7035 1.96498 21.5728
3646 1 12.619 0.218486 19.6307
82 3 17.8806 0.103854 21.3794
2654 2 17.8538 1.93307 19.6255
3153 3 16.0765 1.89549 21.6305
3647 3 16.1338 -0.100602 19.7168
523 2 0.106826 5.28171 19.7671
84 2 1.83049 7.24571 19.5784
83 1 0.105398 7.34215 21.2993
1650 2 0.0847219 3.4631 21.4709
3155 3 1.51651 5.33726 21.5889
3154 3 1.9425 3.63741 19.7272
524 2 3.67565 5.57842 19.8437
525 3 7.05858 5.55397 19.7723
526 3 3.43044 7.08364 21.5189
1153 1 7.18603 7.19312 21.5415
1152 2 5.53241 7.26044 19.6421
2655 3 3.51875 3.71581 21.3932
3156 1 7.23357 3.74741 21.3992
3649 3 5.45201 3.55379 19.7049
3648 2 5.42644 5.3739 21.5591
86 1 10.7006 7.31063 21.3897
85 3 8.94693 3.72435 19.7569
1155 1 10.9139 5.48485 20.0258
1154 3 8.84717 7.12044 19.8105
2656 2 10.5194 3.69604 21.656
3650 3 9.00892 5.52686 21.5128
527 2 12.4818 7.30133 19.8863
88 2 12.485 5.27044 21.5469
87 3 12.647 3.56254 19.7281
1156 3 14.3441 5.30632 19.715
2148 3 14.2662 7.4205 21.5147
2657 1 14.4443 3.53904 21.3957
528 2 17.8244 3.58579 21.457
89 3 15.9884 5.57299 21.6199
1157 3 16.09 7.31151 19.5755
3158 3 17.8814 5.40799 19.6756
3157 2 17.8275 7.32521 21.3779
3651 3 16.2359 3.70009 19.8449
529 1 1.87391 9.07683 21.3873
530 3 2.00515 10.8185 19.4072
1158 2 0.114962 8.95649 19.6867
3652 1 0.0740622 10.7427 21.3034
531 2 5.35197 8.9734 21.3278
532 1 5.23934 10.8948 19.5435
533 1 7.05914 10.7785 21.394
1159 3 3.68674 9.05031 19.671
1651 1 7.20591 9.13497 19.4723
3653 1 3.68254 11.0055 21.4673
90 2 8.88155 10.806 19.6166
1161 3 8.88396 9.23776 21.467
1160 2 10.6117 10.7302 21.4736
1652 1 10.6105 9.09693 19.7841
534 3 12.5398 10.6976 19.6931
1162 3 12.348 9.08051 21.5621
1654 3 14.251 10.745 21.3649
1653 3 14.1921 8.993 19.6861
1656 2 16.1143 10.8335 19.6986
1655 3 16.0646 9.12846 21.3552
3159 1 17.8579 10.8937 21.3874
3654 1 17.9034 9.03858 19.7079
1660 1 0.0671988 14.221 21.1271
1659 3 1.93242 14.4452 19.3843
1658 1 1.7033 12.5062 21.2783
1657 2 0.0630162 12.6214 19.4643
1163 2 5.37928 14.3716 19.4785
1661 2 3.51139 14.3802 21.32
2151 1 7.10572 12.4451 19.7471
2150 2 5.43019 12.6682 21.5022
2149 3 3.52094 12.5151 19.5881
3160 2 7.14233 14.2609 21.2651
1662 2 9.20851 14.0356 19.7765
2153 1 8.94542 12.3546 21.5429
2152 1 10.8068 12.4237 19.6793
2658 3 10.7403 14.3893 21.4893
2155 2 14.3016 12.6939 19.6515
2154 3 12.5832 14.2774 19.6502
2660 1 14.3148 14.4167 21.2129
2659 1 12.3611 12.5356 21.3999
535 2 17.685 12.5836 19.5266
1164 3 17.6814 14.3631 21.2718
2156 2 16.1388 14.1751 19.5045
2661 1 15.9077 12.6054 21.415
1165 1 0.0365061 17.8602 21.1699
2157 3 1.99087 17.8659 19.3577
2662 3 0.12846 15.9163 19.4706
3161 2 1.70721 16.1438 21.2073
1664 3 6.97226 17.8451 21.5702
1663 1 3.58387 17.6558 21.3056
2664 3 3.69533 16.1096 19.5763
2663 2 7.06088 16.0408 19.5015
3163 1 5.3869 16.0855 21.3468
3162 2 5.48941 17.8113 19.6958
536 3 10.6345 17.6813 21.3673
2665 2 10.8851 16.0974 19.6218
3164 1 8.83239 17.8087 19.5129
3655 2 8.76196 16.1035 21.3896
2666 3 12.4504 17.7716 19.6124
3166 1 14.2406 16.3492 19.4752
3165 1 14.3189 17.9806 21.3511
3656 3 12.5483 16.0295 21.3713
92 2 15.9009 16.2461 21.2594
91 3 17.7665 17.9384 21.4124
1166 1 17.6752 16.1798 19.8331
3167 1 16.2017 17.8706 19.54
93 1 1.79609 1.69623 24.9662
1665 1 1.69841 0.136971 23.2286
2667 3 0.0224275 0.0619556 25.0866
3168 1 -0.0433844 1.89516 23.1463
2158 1 5.51029 0.126123 23.4019
2670 3 3.58573 0.0794165 25.0477
3170 2 7.30036 1.85421 23.1511
3169 3 3.59013 1.81971 23.2135
3659 1 7.41059 0.156572 25.0537
3658 1 5.64053 1.82481 24.9805
537 3 9.0049 1.86144 24.9576
2671 2 9.00045 -0.000258118 23.0629
3171 2 10.6624 0.0198128 24.949
3660 1 10.7228 1.81677 23.2129
2673 3 12.3486 0.0612265 23.3439
3663 3 14.3597 1.74287 23.3206
3662 1 14.2662 0.0917057 25.0715
3661 1 12.4815 1.97055 25.1691
539 2 15.9864 1.90052 25.0516
1167 3 17.899 0.11801 24.9971
1668 2 17.7498 1.80867 23.3635
2160 2 16.0644 0.0148075 23.3591
99 3 1.71515 5.35206 24.9687
98 1 1.626 7.18636 23.2158
97 2 -0.0842808 7.24282 24.9867
96 2 0.011698 5.40732 23.3946
3173 2 1.73941 3.53701 23.2205
3172 2 0.194072 3.61768 24.8988
540 2 3.57605 7.28112 24.8411
541 1 5.26336 7.34623 23.2526
542 3 7.15795 5.48051 23.3329
543 3 5.26574 5.52273 24.8617
101 3 7.2532 7.19279 25.0667
100 1 3.36341 5.37729 23.149
2675 3 7.20512 3.7594 24.9019
3175 3 3.48442 3.67776 24.9099
3665 1 5.34584 3.69839 23.1994
546 1 8.96796 7.17356 23.4475
547 1 8.9111 5.30632 25.2256
102 1 10.797 5.3547 23.4066
1170 3 10.7274 7.14535 25.1855
3177 3 10.7773 3.53243 24.9744
3666 1 8.94651 3.65009 23.2341
548 3 14.2819 5.36911 23.3247
549 1 12.5869 5.51598 25.1
105 3 14.3736 3.6081 25.0483
1670 1 12.5829 7.20295 23.3597
3179 1 12.6717 3.74338 23.2554
3667 1 14.2009 7.44714 24.8911
1172 3 16.2151 5.40859 24.9303
1672 1 18.0587 3.71603 25.1361
1671 2 16.0694 7.39773 23.0965
2678 3 17.7848 7.24401 24.9039
2677 1 17.9642 5.12863 23.0759
3668 2 15.9572 3.63397 23.3021
550 2 -0.00383145 9.0418 23.1355
106 3 1.77888 10.7922 23.2865
1175 3 1.69647 9.00094 24.6747
3669 1 0.0721885 10.8637 24.956
108 2 5.42769 10.717 23.0974
1180 2 6.95532 10.6494 25.0637
1178 2 7.20413 8.84579 23.2854
1177 3 3.57134 8.94202 23.2064
1176 1 5.2396 8.94781 25.0214
3670 2 3.58126 10.7825 25.0043
551 3 10.7805 10.7558 25.2154
552 1 9.02255 10.8515 23.383
1181 2 8.97648 9.08855 25.0568
1674 3 10.7431 8.93622 23.391
1182 3 12.4242 10.9133 23.3408
1676 1 12.5348 8.89864 25.0197
1675 1 14.359 9.19593 23.2289
2163 2 14.2577 10.7452 25.0767
1183 2 16.0477 9.21766 24.9722
1677 3 16.0851 10.9883 23.2214
2165 2 17.9579 10.8969 25.1452
3671 2 18.0241 9.2287 23.1749
555 3 0.157804 14.2544 24.8816
1184 1 1.96729 14.2375 23.0673
1678 2 1.86898 12.6399 24.9364
2166 2 0.231329 12.6326 23.1798
113 1 7.3142 14.502 24.9419
1185 1 5.3721 12.4507 24.7772
2170 3 5.25007 14.3118 23.1166
2169 1 3.50824 12.4435 23.1541
2168 1 3.4442 14.3584 25.1144
2167 2 7.1773 12.5994 23.1476
1680 1 10.6705 14.4116 24.9604
2171 2 10.6452 12.5436 23.3095
2682 2 8.96637 14.2104 23.1807
2681 3 8.95414 12.512 25.0589
114 1 14.2297 14.1886 25.0588
1681 2 12.5206 12.5502 25.145
2684 3 14.1565 12.3964 23.1692
2683 2 12.417 14.261 23.0781
557 3 18.0907 12.5582 23.1358
2173 1 15.978 14.3486 23.1885
2685 1 16.0937 12.8262 25.2304
3183 1 18.0201 14.524 24.8877
1684 1 1.83468 16.1515 25.0656
1683 2 1.93533 17.9084 23.0612
2688 1 0.157073 16.2207 23.1617
2687 3 0.0859072 17.9488 24.9097
2175 1 7.05706 17.9639 24.8147
2174 2 5.41962 17.8203 23.0733
2689 3 3.6829 17.8368 25.048
3187 3 5.30601 16.291 24.8913
3186 1 7.16344 16.1777 23.3654
3185 3 3.5019 15.956 23.1343
1687 2 9.04377 17.9072 23.0444
1686 2 9.03254 16.2717 24.8947
2177 2 10.8672 17.7953 24.9714
3675 2 10.6181 16.1573 23.2073
2178 2 14.1953 17.6635 24.7566
2690 2 12.5472 17.8263 23.1232
3188 1 12.5231 16.0925 24.8303
3676 3 14.338 16.0759 23.0679
1187 1 17.7485 16.0029 23.0033
1186 1 17.7523 17.8118 25.12
1689 1 16.0693 15.9698 24.9786
3189 1 16.0272 17.8719 23.25
1188 2 0.125215 0.0428875 28.6686
2180 2 1.83424 1.76098 28.679
2668 1 1.77048 -0.22174 26.87
3657 3 0.182912 1.86043 26.9274
559 2 7.23977 0.032061 28.6917
94 3 7.25637 1.77442 26.8591
1189 1 3.53057 0.0921305 28.5097
1666 3 5.46741 0.0978168 26.8374
2181 2 5.49719 1.81727 28.4876
2669 3 3.7241 1.84531 26.7369
560 2 10.8057 0.101234 28.5621
95 2 8.94292 0.0418802 26.9151
2182 3 8.94819 1.97468 28.6403
2672 2 10.7411 1.8273 26.975
538 3 14.1121 1.88811 26.8348
1667 3 12.343 -0.0315064 26.7819
2184 3 12.5478 1.8595 28.5894
2183 1 14.3133 -0.026303 28.5242
2159 3 17.9281 1.83282 26.639
3193 1 16.1621 1.8916 28.3559
3679 2 17.8388 0.145125 28.4473
3664 1 16.0108 0.0838607 26.723
1168 2 1.76341 3.60683 26.8545
1669 2 1.75312 7.19516 26.7348
2186 1 -0.114015 7.36468 28.5075
2185 3 0.0755919 3.53262 28.7115
2674 2 -0.083097 5.60355 26.6031
3194 3 1.68725 5.5845 28.5106
544 1 3.51535 5.27109 26.7645
563 2 7.10635 7.13495 28.6694
1691 3 7.13832 3.73262 28.6177
1690 1 3.58999 3.50084 28.4746
2676 2 6.97164 5.42227 26.8389
3196 2 3.44823 7.28979 28.4634
3195 2 5.37154 5.44475 28.5172
3176 1 5.56796 3.70268 26.6499
3174 2 5.26606 7.20079 26.8945
545 1 10.8206 5.47479 26.9247
1171 1 8.86 3.76636 26.76
1169 3 9.01303 7.19514 26.8012
2694 1 10.7637 3.72288 28.3934
3197 3 8.80404 5.38978 28.4094
3681 3 10.7514 7.32613 28.4471
104 3 12.6095 3.74207 26.9441
103 1 14.5846 5.48278 26.7346
2695 2 14.4108 3.74181 28.5353
3178 3 12.7838 7.14682 26.8905
3684 3 14.3972 7.32246 28.562
3683 1 12.7045 5.44116 28.7199
622 2 17.6706 3.52338 28.4147
1004 2 17.8801 7.21148 28.4024
1174 2 16.1114 7.20569 26.6582
1173 2 17.7791 5.49107 26.8585
3180 3 16.1434 3.69778 26.5734
3685 1 16.1594 5.45172 28.5468
1673 1 0.183243 9.19955 26.7554
2161 1 1.8865 10.7941 26.6308
2696 2 0.140711 11.0393 28.6388