ITEM: TIMESTEP
5000
ITEM: NUMBER OF ATOMS
4000
ITEM: BOX BOUNDS pp pp pp
7.9727813311073703e-02 3.5654332186688492e+01
7.9727813311073703e-02 3.5654332186688492e+01
7.9727813311073703e-02 3.5654332186688492e+01
ITEM: ATOMS id type x y z
563 1 0.368104 -0.0151049 0.00687977
1064 3 1.8373 1.87741 -0.224488
1563 2 1.97065 0.0709566 1.76367
2064 2 0.325899 1.65251 1.86063
1 2 3.78194 1.73172 1.83078
565 1 7.45331 0.0176287 0.0722168
2065 3 7.1425 1.87301 1.75304
2565 1 3.58192 -0.0154746 0.0679349
3064 2 5.63487 1.74117 -0.0269999
3564 2 5.58552 0.0696635 1.87818
2 2 10.6794 1.63718 1.86335
1066 3 8.98569 1.83845 0.0388834
1564 3 8.97328 -0.030566 1.78344
2566 1 10.6357 0.018273 0.0319866
567 1 14.3938 0.093468 -0.067938
2066 3 14.2376 1.85375 1.83829
3066 1 12.5472 1.89581 0.207504
3565 1 12.6589 -0.04142 1.79583
751 2 17.8897 0.174067 0.0279072
1068 3 16.0373 1.94657 0.106809
1565 2 15.9572 0.00341788 1.73788
2001 3 17.8279 1.79955 1.75859
3 1 0.117475 5.38695 1.68051
573 3 0.0125153 7.17393 0.060328
1568 3 2.03728 7.40646 1.73216
2569 2 0.230749 3.54295 0.0740743
3068 1 2.08349 5.40534 0.141872
3566 1 1.97502 3.78591 1.95884
4 1 6.98403 5.37876 1.82256
569 3 3.80815 3.57817 0.014144
577 3 7.13164 7.15778 -0.0205889
1070 1 5.35928 5.4832 -0.0618784
1566 2 5.32 3.49072 1.93536
2067 2 3.59922 5.39763 1.94115
2576 2 3.49914 7.4581 0.0518281
2571 3 7.14392 3.54546 -0.121893
3570 2 5.32685 7.28688 1.66668
570 3 10.4608 3.6614 0.0788119
1570 1 9.01225 7.21905 1.82744
2068 2 10.8034 5.38984 1.82404
2578 3 10.7785 7.30414 -0.133493
3070 3 8.91967 5.50359 0.180639
3567 1 8.72837 3.54018 1.75886
5 2 14.2743 5.60283 1.73544
581 2 14.261 7.43663 -0.08122
1072 3 12.5317 5.49249 -0.0361806
1567 3 12.2486 3.42472 1.95812
2573 1 14.1578 3.76145 0.134909
3572 3 12.578 7.18318 1.69643
253 2 17.8204 5.34387 1.68166
761 2 17.6608 7.19084 0.149569
1572 1 15.9758 7.23464 1.75104
2819 1 17.7124 3.54721 0.217186
3072 3 15.928 5.5403 -0.0617259
3568 2 15.9302 3.74113 1.91588
1074 1 1.7221 9.08233 0.0690247
2069 2 0.236014 9.04919 1.70577
2574 3 0.105466 10.8523 0.0404491
3569 1 1.92298 10.7591 1.91447
6 1 3.70949 9.18012 1.77494
575 2 3.64212 10.6854 0.0845827
1569 1 5.37613 10.9821 1.91434
2070 1 7.08904 9.20543 1.8075
2579 2 7.21492 10.8298 -0.0416931
3074 3 5.38386 9.17452 0.00896639
7 3 10.8058 8.96273 1.68221
578 1 10.6813 10.7854 -0.0886669
1076 3 9.003 8.86261 0.0477928
3571 1 8.87139 10.751 1.77546
1571 3 12.422 10.6515 1.89306
2071 2 14.1722 9.00049 1.62148
2582 1 14.3076 10.9568 0.0674153
3076 2 12.4229 9.18108 -0.158768
1078 2 16.1421 8.92647 0.143948
2006 2 17.7216 9.05141 1.82853
2825 3 17.8672 10.7998 0.00153366
3573 2 16.1196 10.6773 1.80717
8 2 -0.0249791 12.58 1.9616
583 1 -0.0582229 14.2509 -0.0821815
1573 1 1.77824 14.4234 1.89735
3078 1 1.75186 12.5657 -0.0347969
9 1 7.02193 12.68 2.03148
585 3 7.19845 14.4525 0.0318067
1080 2 5.33932 12.3598 0.00712179
2072 2 3.53165 12.4553 1.82458
2585 3 3.52398 14.2426 0.102868
3574 1 5.45959 14.066 1.75799
1574 1 9.07451 14.4137 2.04782
2073 3 10.7491 12.2699 1.84927
2586 1 10.6689 14.4982 0.243201
3080 2 8.92088 12.7557 0.288075
10 2 14.1806 12.4832 1.91904
587 3 14.4339 14.3148 0.0872512
1082 3 12.4866 12.3887 0.134201
3575 2 12.4084 14.2959 1.83676
258 3 18.013 12.8646 1.60157
771 3 18.0028 14.5776 0.249474
1575 2 16.0926 14.381 2.10034
3082 2 16.1983 12.5881 0.295493
626 1 -0.0281634 17.9229 -0.0874818
1084 1 1.77572 15.9835 0.120703
1688 3 1.73615 17.4564 1.84442
2074 2 0.0101937 15.9584 1.78154
11 2 3.56946 15.9692 1.98655
630 2 7.17319 17.9361 0.00175598
2075 3 7.22383 16.3161 1.85702
2691 2 3.81318 17.7044 -0.0303927
3084 2 5.40601 16.0834 0.0524381
3690 1 5.36184 17.7977 1.75319
12 2 10.8159 16.2527 1.90443
1086 2 9.13369 16.0063 0.253355
1690 2 9.13459 17.9113 1.84006
2693 2 10.7418 18.3277 0.234129
634 1 14.2394 18.066 0.0891705
2076 2 14.4685 16.217 1.93328
3086 3 12.6702 16.1946 0.0194393
3692 2 12.7054 17.9122 2.00666
876 3 17.8854 18.006 -0.118903
1088 3 16.1267 16.1072 0.0849186
1692 2 16.1194 17.9723 2.00532
2011 1 17.8132 16.344 1.82293
13 1 0.120134 1.83496 5.42482
588 3 0.0676929 0.15008 7.27452
1089 1 1.80039 1.8482 7.47067
2564 2 0.0755601 0.171343 3.66462
3063 1 1.95148 1.73164 3.62513
3576 3 1.88625 0.273158 5.51268
14 3 7.35909 1.90094 5.74189
564 2 3.66271 0.145189 3.66479
1065 2 5.64137 1.89661 3.7115
1577 1 3.72124 -0.0757905 7.21632
1576 2 5.3974 -0.113328 5.49842
2078 2 5.33886 1.98277 7.08356
2077 2 3.73325 1.92069 5.42029
2589 1 7.04923 0.0935939 7.2316
2567 1 6.98638 0.366742 3.62701
566 1 10.754 0.106018 3.77192
2079 3 10.7389 1.94608 5.4649
3065 2 8.82159 1.95001 3.53628
3088 3 9.14805 1.87098 7.20996
3578 1 10.6855 0.0275343 7.20443
3577 3 8.96644 0.167182 5.52209
15 2 12.4545 1.83375 7.11678
16 1 14.3868 2.02545 5.44454
589 3 14.4863 0.0013279 7.40407
1067 2 12.5503 1.92702 3.71962
1578 3 12.6712 0.0352679 5.44259
2568 3 14.3984 -0.024001 3.69746
263 3 17.9643 1.96627 5.27564
776 1 17.9728 -0.0932983 7.15574
1090 3 16.3045 1.86392 7.17513
2815 2 17.6966 0.0543989 3.49311
3067 3 16.0545 1.8241 3.59323
3579 2 16.2003 0.150729 5.50771
568 3 0.0440698 3.62946 3.60682
1069 1 1.94793 5.39368 3.62124
1580 3 0.070461 3.63527 7.19246
1579 1 1.89684 3.4989 5.51899
2081 1 1.84839 5.10059 7.28322
2080 2 0.0305958 5.50446 5.41282
2591 3 0.400973 7.13117 7.27973
2575 3 0.201526 7.33625 3.36175
3583 1 1.86292 7.20714 5.29783
17 3 3.78498 5.45275 5.50373
571 3 7.06449 3.73314 3.69893
592 1 7.19295 7.16366 7.07734
576 3 3.80229 7.08347 3.52879
1585 2 5.28775 7.29692 5.49327
2082 3 7.00969 5.53595 5.30832
2590 1 3.64081 3.74603 7.38165
2580 1 7.10685 7.43917 3.5842
2570 3 3.60142 3.4587 3.8217
3069 1 5.5215 5.31873 3.46236
3089 2 5.44102 5.34364 7.22582
3586 3 3.42905 7.27672 7.15995
3581 3 7.24468 3.7722 7.31614
3580 3 5.55792 3.6032 5.5366
18 1 10.7357 5.38229 5.50787
19 1 8.78937 5.55438 7.15767
590 1 10.8389 3.63085 7.20122
579 1 10.945 7.1331 3.58682
1071 3 8.94233 5.61607 3.52869
1587 1 10.5695 7.1052 7.09205
1581 2 8.87404 3.61739 5.44297
2572 3 10.5807 3.72729 3.57113
3587 3 8.9337 7.10598 5.29214
572 3 14.1754 3.52224 3.54744
1091 1 12.4128 5.30427 7.45281
1589 2 12.533 7.21667 5.50616
1583 2 14.227 3.52892 7.1905
2083 1 14.3215 5.51054 5.265
2593 1 14.2135 7.18858 7.32446
2583 3 14.4112 7.21738 3.53931
3071 3 12.4453 5.34066 3.55033
3582 3 12.4303 3.62372 5.26788
757 2 17.8026 3.66962 3.62929
1073 3 16.0458 5.34501 3.61464
1768 3 17.9107 3.63633 6.98282
1582 1 15.988 3.53618 5.4948
2084 3 16.0148 5.39031 7.23325
2017 2 17.7295 5.31224 5.31703
2841 3 17.7578 7.09141 7.21271
2826 3 17.9308 7.18632 3.37001
3589 2 16.1837 6.9967 5.30254
20 2 0.114043 8.94529 5.56358
574 2 0.0153897 10.6623 3.65593
1584 1 1.84225 10.832 5.42159
3073 3 1.80327 8.97571 3.75463
3090 1 1.84717 8.97878 7.28769
3584 2 0.0518493 10.5669 7.09008
21 2 5.36463 9.10327 7.13135
22 3 7.16168 9.01892 5.42329
591 2 3.67254 10.7693 7.14051
580 1 7.34545 10.8537 3.67339
1075 3 5.33512 9.06923 3.59579
1588 1 7.10583 10.8544 7.13821
2085 1 3.64889 9.13151 5.64208
2577 3 3.53492 10.7196 3.85357
3585 3 5.57577 10.7703 5.44081
1092 2 8.80162 9.08522 7.16115
1586 3 9.02064 10.7233 5.17713
2086 1 10.66 9.0173 5.55127
2592 2 10.8387 10.8633 7.21562
2581 3 10.7497 10.6491 3.54348
3075 3 9.23815 8.94432 3.6283
23 2 14.5365 8.88626 5.54352
582 3 14.2556 10.5697 3.53123
1077 1 12.5415 8.6956 3.69373
2087 1 12.2327 9.01982 7.50099
3590 1 14.42 10.6215 7.05884
3588 1 12.6454 10.6407 5.55775
270 2 18.1723 8.91516 5.3359
764 2 18.0209 10.9616 3.81296
1590 3 16.2959 10.7025 5.66863
3091 2 16.2298 8.9461 7.21538
3077 3 16.1993 9.01933 3.78046
3835 2 18.021 10.7036 7.21588
24 1 1.81426 12.4806 7.19176
593 2 0.0250827 14.1813 7.14671
1079 3 1.6654 12.447 3.54919
2088 2 -0.231967 12.4441 5.25814
2584 2 -0.144001 14.1473 3.67797
3591 1 1.6788 14.127 5.39139
25 1 3.59968 12.563 5.51339
584 3 3.73234 14.3454 3.67222
1093 1 5.51436 12.5529 7.25557
1592 3 3.51515 14.4617 7.12476
1591 3 5.42783 14.1815 5.45738
2089 2 7.36782 12.5188 5.48495
2594 1 7.28136 14.4846 7.06297
2587 1 7.17898 14.2707 3.75203
3079 2 5.47674 12.4424 3.71436
26 2 10.7695 12.4989 5.55212
586 2 10.8743 14.3217 3.69626
1081 2 9.03338 12.6594 3.76919
2090 1 8.89943 12.4736 7.17209
3593 2 10.776 14.2227 7.14293
3592 1 9.03308 14.2909 5.32705
594 1 14.4356 14.2322 7.36415
1593 1 12.6142 14.0581 5.69207
2091 2 14.4482 12.3643 5.42551
2588 3 14.2275 14.3331 3.96322
3092 2 12.6856 12.6182 7.46617
3081 3 12.5524 12.5291 3.69623
27 2 16.2212 12.4015 7.16251
781 1 17.971 14.4319 7.29558
1083 2 16.0944 12.3935 3.56672
2025 2 17.734 12.6071 5.34266
2835 2 17.716 14.4643 3.56982
3594 2 16.1535 14.2365 5.50538
28 1 0.0870415 16.0031 5.5225
651 2 0.0140495 17.9783 7.03983
1094 2 1.84437 16.1141 7.1323
2690 3 -0.0146051 17.6909 3.49137
3083 1 1.94047 15.9889 3.81997
3701 2 1.72621 17.8932 5.37986
29 2 7.16197 16.0365 5.29421
629 3 3.58462 17.9372 3.69862
1085 3 5.37853 16.0382 3.53882
1704 1 3.58028 17.8428 7.04017
1703 3 5.52017 17.7717 5.22752
2093 3 5.41652 16.0822 6.97062
2092 2 3.53665 16.2337 5.45571
2715 1 7.10462 17.7642 7.35171
2695 3 7.36978 17.7974 3.5195
632 2 10.9123 17.6791 3.97253
2094 1 10.9507 15.7624 5.44531
3093 2 9.06534 16.0008 7.23361
3085 1 9.08389 16.0562 3.69507
3704 3 10.7033 18.0739 7.19189
3703 3 8.96533 17.8881 5.60466
30 2 12.4412 16.2018 7.09708
31 3 14.387 16.3394 5.497
653 3 14.4135 17.8657 7.42293
1087 1 12.6723 16.1301 3.64812
1706 2 12.5658 17.9042 5.54963
2698 1 14.3469 18.0574 3.86433
278 2 17.7287 16.1306 5.6046
901 1 17.9678 17.8522 7.20265
1095 3 16.0509 15.8268 7.25815
2878 2 17.8867 17.7556 3.73145
3087 2 15.9651 15.9458 3.72114
3707 3 16.0999 17.8957 5.51036
1594 2 1.83668 0.112025 9.15053
2095 1 0.0171878 1.87715 8.9702
2595 2 0.0510835 0.0607548 10.7621
3094 1 1.98824 1.78427 10.8396
33 1 7.33193 1.72468 8.88055
595 1 3.67887 0.188635 10.6718
1096 2 5.63169 1.69031 10.6663
2597 1 7.2482 0.138053 10.8751
2596 2 5.57035 -0.024451 8.96274
3095 2 3.68051 1.98337 9.02226
596 2 10.6686 -0.0685368 10.8086
1097 2 10.8294 1.64097 8.98624
3096 2 8.92806 1.91488 10.6643
3596 3 8.93269 -0.0763048 8.94855
597 3 12.7193 0.140927 8.91892
1098 3 12.5349 1.92048 10.5851
2098 1 14.4323 2.15092 8.89788
2598 3 14.2498 0.172542 10.6958
1597 3 16.2176 0.0655352 9.04604
2032 3 17.99 1.70471 9.05961
2845 2 17.9708 0.0175311 10.9728
3097 2 16.0998 1.79212 10.6579
598 3 0.177646 3.66333 11.0181
1099 1 1.78364 5.45074 10.9874
2603 1 0.144124 7.15863 10.7256
2599 3 1.94308 3.65525 9.13115
3098 3 0.253865 5.22441 9.0164
3602 1 1.93436 7.04971 9.0524
36 3 3.63875 5.39179 9.17252
605 3 3.59743 7.06995 10.7991
604 1 5.23994 7.19371 8.87421
600 1 7.11263 3.6429 10.565
1100 3 7.002 5.58405 8.98793
2606 3 6.99736 7.34692 10.6756
2600 1 3.87153 3.5065 10.9853
3099 3 5.46011 5.4662 10.9062
3599 1 5.50561 3.55659 8.95017
606 1 10.6854 7.16961 10.7403
599 2 8.9252 3.71689 9.09218
1101 1 8.9782 5.54217 10.6043
1605 2 8.80031 7.20155 8.89732
2100 2 10.5574 5.55583 8.91218
2601 1 10.7178 3.72437 10.7564
601 3 14.3154 3.63651 10.7966
1600 3 12.5135 3.50082 8.94021
2609 1 14.3467 7.19304 10.5672
2608 2 12.479 7.30442 9.0227
3101 3 14.1836 5.45033 8.94033
3100 2 12.5359 5.42553 10.8573
786 3 17.9834 3.39826 10.6765
1102 3 16.1721 5.29048 10.8524
2853 1 18.0409 7.28239 10.7904
2602 1 16.019 3.63271 9.02787
3348 3 17.8388 5.37765 9.00652
3608 1 16.1605 7.18958 8.91642
39 2 0.228696 9.05187 9.00728
603 1 0.111443 10.6369 10.5809
602 2 2.13243 10.7187 9.05358
3102 2 1.99239 8.7822 10.6369
607 1 7.02079 10.6924 10.7514
1104 2 5.38784 8.96447 10.7452
1103 2 3.67882 8.93665 8.99593
1603 3 5.12148 10.7667 9.03819
2104 3 7.06915 9.128 8.85826
2604 2 3.39844 10.5976 10.7622
2607 3 10.7455 10.8058 10.6836
2605 3 8.96843 10.7444 8.99538
3104 1 8.94096 8.93303 10.7627
3103 1 10.5223 9.17639 8.95024
42 1 14.2875 8.99245 8.80374
609 2 14.1226 10.6307 10.6366
1105 3 12.5279 8.76048 10.7825
3606 2 12.5564 10.8212 9.12482
289 2 17.8102 8.92489 8.90693
792 1 17.7967 10.4601 10.6661
608 3 16.014 10.8048 8.95197
3105 2 16.0905 8.96465 10.6518
1107 3 1.60163 12.5522 10.6999
1106 3 -0.0500071 12.3214 8.84721
1609 1 1.71995 14.2988 8.8354
2610 2 -0.248381 14.3476 10.7659
610 3 3.5471 14.2859 10.428
2107 1 3.55949 12.6911 8.83508
2612 1 7.10476 14.2607 10.7207
2611 3 5.5829 14.3311 8.80008
3107 2 7.19882 12.5291 8.91181
3106 3 5.11381 12.4584 10.7763
45 3 10.7749 12.422 8.83638
611 3 10.781 14.3523 10.5549
1108 3 8.99189 12.5012 10.7898
3611 1 8.8337 14.3191 8.92163
612 2 12.6875 14.3916 8.8957
1109 3 14.4015 12.449 9.17264
2613 1 14.2999 14.2291 10.6948
3108 1 12.4062 12.6269 10.9096
1293 2 17.9189 12.3353 9.36151
1110 3 15.8493 12.4775 10.8595
1612 3 16.3884 14.1908 9.10926
2860 1 17.8902 14.2189 10.8679
1719 1 1.81631 17.8544 8.83777
2110 2 0.0684052 16.1692 8.95634
2721 2 0.240648 17.871 10.4315
3109 2 1.94149 16.1835 10.6137
48 3 7.22224 15.9319 9.11145
659 1 3.40023 17.7991 10.7154
1111 2 5.31863 15.9374 10.7372
2724 2 7.05269 17.9192 10.8596
2722 1 5.40986 17.7745 8.8492
3110 1 3.64903 16.1353 8.77984
661 2 10.7123 18.0549 10.6632
1112 3 10.7998 16.196 8.81892
3111 3 9.04248 16.098 10.7934
3723 2 8.90682 17.8233 8.92527
663 3 12.5764 17.9888 8.97063
1113 2 12.495 16.1415 10.653
2113 1 14.366 16.135 9.09332
2727 1 14.1747 17.8847 10.9837
1725 1 16.1152 17.9028 9.04132
2047 3 17.9699 16.196 8.95684
2908 1 17.8858 17.8382 10.8265
3112 1 15.9453 16.1678 11.0451
32 2 0.0833719 1.69814 12.4243
613 2 0.0127664 0.0883989 14.3591
1114 3 1.76723 1.91235 14.4395
3595 2 1.8009 0.0255471 12.567
34 1 7.24368 1.8583 12.448
614 1 7.18402 0.00694936 14.1286
1595 2 5.34001 0.189619 12.4082
2096 1 3.73527 1.80971 12.6826
2614 3 3.70264 0.150346 14.4849
3113 2 5.50637 1.68149 14.2854
1115 2 8.76769 1.86006 14.2788
2097 3 10.6837 1.70716 12.5374
2615 1 10.6267 0.123495 14.218
3597 2 9.02002 0.0601822 12.5846
35 1 14.2215 1.8289 12.3885
615 3 14.2235 0.150169 14.1102
1596 3 12.5046 0.0502279 12.5141
3114 2 12.5916 1.91617 14.2385
282 1 18.0794 1.78667 12.6389
801 3 18.0643 -0.0223935 14.2624
1116 2 16.1124 1.9153 14.4344
3598 1 16.0545 0.208173 12.6423
618 3 0.0818905 7.09351 14.323
1598 3 1.87761 3.80788 12.6899
2099 2 0.0529782 5.46797 12.7691
2616 1 0.0437088 3.60347 14.3449
3115 3 2.01766 5.47582 14.476
3603 3 1.84093 7.27342 12.4942
37 2 3.77564 5.38573 12.4458
620 2 7.06307 7.35296 14.369
616 1 3.80371 3.70618 14.3405
1117 3 5.58686 5.41979 14.2774
1604 1 5.47383 7.11557 12.5192
2101 3 7.29555 5.47098 12.4362
2620 2 3.77254 7.22105 14.4815
2617 1 7.24196 3.66394 14.2493
3600 3 5.4855 3.49975 12.6001
38 2 10.5942 5.50741 12.5222
617 1 10.7883 3.58807 14.4272
1599 1 9.06765 3.65878 12.3801
2621 3 10.7166 7.35547 14.1412
3116 3 9.05148 5.36589 14.2622
3605 1 8.85303 7.13943 12.645
622 3 14.1626 7.18211 14.3361
1118 3 12.4475 5.17942 14.2891
1607 1 12.4604 7.13403 12.5707
2102 3 14.2893 5.44918 12.5674
2618 3 14.3571 3.68758 14.2272
3601 2 12.3113 3.55487 12.3769
806 2 17.9637 7.15391 14.3172
1601 2 16.1831 3.51636 12.5971
2036 2 17.8038 5.39312 12.5523
2866 3 17.9516 3.70127 14.3592
3117 3 16.0474 5.30792 14.0695
3609 3 16.0934 7.17845 12.5798
40 2 0.186301 9.11062 12.5024
1119 1 1.97036 9.02304 14.3503
1602 2 1.73506 10.7236 12.4116
2619 3 0.033679 10.6633 14.4544
41 3 7.31908 9.02848 12.4408
619 2 3.52356 10.8535 14.2164
2103 3 3.65674 9.03042 12.5284
2622 3 7.03955 10.8928 14.3441
3118 3 5.4062 9.11966 14.459
3604 3 5.41654 10.7643 12.5996
621 3 10.7414 10.7763 14.4381
1120 3 8.84485 8.93312 14.2881
1606 1 8.79357 10.7616 12.6111
2105 3 10.7009 9.15732 12.6074
43 3 14.1536 8.97721 12.4397
2623 3 14.1752 10.8578 14.243
3119 1 12.65 9.07814 14.2679
3607 1 12.4027 10.8917 12.508
290 3 17.9711 8.98577 12.5361
1121 1 15.9895 8.82854 14.144
1608 1 15.9959 10.7186 12.5392
2870 3 17.703 10.7287 14.2498
623 1 0.0683273 14.4224 14.3054
2106 1 0.0800874 12.5431 12.3131
3120 3 1.6533 12.4619 14.254
3610 2 1.88782 14.3458 12.4315
44 1 3.37885 12.4243 12.5367
624 1 7.24664 14.2407 14.2394
1122 3 5.35665 12.4906 14.3349
1610 3 5.32674 14.3264 12.4422
2108 3 7.04728 12.5482 12.3942
2624 3 3.54672 14.2202 14.2098
46 3 10.6379 12.6136 12.5536
2625 1 10.6484 14.097 14.2366
3121 3 8.83067 12.3857 14.216
3612 3 8.87441 14.3041 12.5659
625 2 14.215 14.2195 14.5227
1123 2 12.3872 12.4949 14.1832
1611 2 12.6326 14.3174 12.5401
2109 3 14.425 12.5911 12.6593
811 2 17.7998 14.1342 14.2291
2044 2 17.9668 12.5102 12.4832
3122 2 15.9944 12.5215 14.3932
3613 1 16.0104 14.3204 12.734
47 2 0.0173649 16.2226 12.4819
676 3 0.0511338 17.7981 14.6016
1124 3 1.92184 16.0986 14.1141
3720 2 1.95236 17.9286 12.4541
49 2 7.2438 16.0989 12.4985
678 1 7.17501 17.6252 14.2722
1721 2 5.42321 17.7478 12.4411
2111 2 3.55506 16.2167 12.4604
2740 1 3.70531 17.8602 14.1529
3123 2 5.39161 15.9111 14.1902
1125 3 8.88037 16.0393 14.2366
2112 1 10.9275 15.8763 12.7298
2741 1 10.4998 17.794 14.133
3724 2 9.05775 17.7113 12.5819
50 1 14.3336 16.0951 12.6192
680 1 14.4142 17.9041 14.5057
1724 2 12.3688 17.7479 12.7636
3124 2 12.5661 15.9631 14.5443
297 2 17.8094 16.1077 12.4302
926 1 17.9994 17.8427 14.261
1126 3 15.821 16.187 14.305
3726 1 16.1118 18.1209 12.6321
1613 2 1.76192 0.010705 16.0339
2114 3 -0.0337237 1.77376 16.167
2626 2 0.149147 0.181343 17.9233
3125 2 1.99181 1.79784 17.7023
51 1 3.80524 1.95553 15.8601
502 3 3.57927 0.0445813 17.7714
1128 1 5.36949 1.79024 17.8072
2115 1 7.12382 1.76299 16.2044
2628 3 7.26235 0.21243 17.9443
3614 2 5.60545 0.0604896 16.1822
52 2 10.8553 1.88208 15.9925
503 1 10.6757 0.0455219 18.0073
1614 3 9.07036 0.0470142 16.1133
3127 3 9.04381 1.79716 17.8687
1130 1 12.5879 1.67597 17.849
2116 2 14.2473 1.89313 15.8873
2630 1 14.4727 0.135551 17.6118
3615 1 12.6284 0.070858 16.1311
1615 2 16.1508 0.0376556 15.901
2051 1 18.021 1.81321 16.0679
2501 2 17.685 0.142693 17.7761
3129 1 15.9499 1.86391 17.6077
53 1 0.0497485 5.47159 16.2986
506 1 0.0914283 3.50238 17.9033
1132 2 1.75738 5.25663 17.8198
1618 3 1.93802 7.29571 16.1275
2636 2 0.125142 7.26131 17.8533
3616 2 1.94525 3.61074 15.9491
54 1 7.3206 5.50706 15.918
508 1 7.26631 3.61069 17.926
513 1 3.61067 7.21135 17.891
1616 2 5.66488 3.8235 16.1052
2117 3 3.59894 5.28167 16.2589
2640 2 7.04639 7.2498 17.7133
2632 1 3.59031 3.59905 17.9941
3131 2 5.42048 5.28739 17.8569
3620 1 5.29278 7.18937 16.1672
515 1 10.7633 7.12866 17.8284
1134 2 8.89628 5.24833 17.806
1620 3 8.94831 7.19747 15.9767
2118 1 10.7019 5.44229 15.9312
2633 3 10.7988 3.80338 17.8394
3617 2 8.95479 3.39183 16.0543
55 1 14.2207 5.33136 16.124
510 3 14.2233 3.52679 17.8683
1617 1 12.5414 3.51461 16.0909
2644 3 14.1772 7.21816 17.7449
3133 2 12.4675 5.50464 17.6945
3622 1 12.4478 7.34851 15.9038
303 2 17.9091 5.33518 15.9954
819 2 18.0799 3.6686 17.8175
1136 2 15.8911 5.3768 17.8811
1622 3 16.0832 7.04394 16.1033
2511 2 17.7717 7.02268 17.8599
3618 2 16.0403 3.87432 15.9891
511 3 -0.0711566 10.5094 17.9915
2119 2 0.0871235 8.81886 16.1593
3135 3 1.79497 8.98915 18.0201
3619 1 1.74609 10.7014 16.3102
56 3 3.62817 8.93553 16.1158
516 2 7.32202 10.9115 17.7932
1138 2 5.53593 9.03601 17.8117
1619 1 5.42633 10.8939 16.0624
2120 3 7.23274 8.99428 16.1271
2638 3 3.53367 10.5851 17.9824
57 3 10.8642 8.90129 15.936
2641 2 10.4496 10.7198 17.9033
3137 1 8.86372 8.93286 17.7635
3621 2 8.91378 10.8386 15.9945
519 1 14.5769 10.6171 17.885
1140 1 12.394 9.00012 17.7783
1621 1 12.4618 10.8081 16.1545
2121 3 14.2731 8.99498 16.1169
825 3 17.9415 10.7142 17.8519
2056 2 17.8298 8.71138 16.212
3139 3 16.1188 8.90527 17.9539
3623 3 16.0409 10.6132 16.0297
58 2 0.0532282 12.4354 16.0814
1142 1 1.68892 12.46 17.9956
1623 3 1.55073 14.2216 16.0747
2646 2 -0.134665 14.0787 17.8384
59 3 7.15854 12.6616 16.1123
522 3 3.41948 14.2129 17.9092
2122 3 3.46907 12.4645 16.0173
2648 2 7.17354 14.04 17.9222
3141 2 5.37091 12.5568 17.8548
3624 1 5.34703 14.3897 15.9938
523 3 10.7165 14.4726 18.0172
1144 1 9.00727 12.6581 17.6824
1624 2 8.96396 14.2974 15.9702
2123 2 10.6513 12.723 16.1647
60 1 14.5192 12.4966 16.1128
2650 2 14.3711 14.3432 17.6626
3143 1 12.4153 12.3349 17.7301
3625 2 12.3994 14.2824 16.2588
308 1 17.7833 12.6098 16.0659
1146 1 16.3232 12.447 17.8799
1625 3 16.1771 14.3807 15.9765
2521 2 17.9297 14.2424 17.8261
1738 3 1.80995 17.6715 16.0958
2124 1 0.0321187 15.7969 16.0119
2751 1 0.134281 17.6975 17.9883
3145 3 1.70287 16.013 18.0764
61 3 3.64773 16.0459 15.9218
691 1 3.6611 17.7049 17.7817
1148 2 5.35124 15.8765 17.7672
2125 2 7.05331 15.8764 16.1338
2755 2 7.08867 17.8878 17.7617
3740 3 5.49324 17.7041 16.034
62 2 10.6362 16.0885 15.9659
693 2 10.7739 17.6813 17.7635
1740 2 8.71114 17.8195 16.0297
3147 1 8.79185 15.881 17.7689
1150 2 12.5314 16.1039 17.7449
2126 1 14.4275 16.1694 16.301
2759 2 14.2487 18.0218 17.7222
3742 2 12.5095 17.8223 16.1339
1742 1 16.2153 18.1045 16.0949
2061 1 17.8713 16.0671 15.7757
2938 2 17.891 17.7843 17.6617
3149 1 16.2055 15.915 17.8601
501 1 0.188563 0.031747 21.3888
63 2 0.0830668 1.95569 19.7193
1127 3 1.70759 2.00363 21.4405
3626 1 1.71118 0.180457 19.5479
504 3 7.16682 0.0124901 21.4225
64 2 7.07671 1.95342 19.688
1626 3 5.40604 0.10208 19.7922
2127 3 3.71101 1.94764 19.738
2627 2 3.43857 0.273869 21.3935
3126 1 5.25721 1.98821 21.3343
1129 3 8.98552 2.02155 21.4568
2128 3 10.7838 1.77746 19.5615
2629 3 10.7757 0.0169925 21.4075
3627 2 8.95748 0.169678 19.8114
505 3 14.3167 0.058992 21.4149
65 2 14.3157 1.85585 19.5203
1627 3 12.6903 0.087726 19.568
3128 3 12.5561 1.79833 21.4068
815 3 18.1367 0.0678543 21.3301
313 2 17.8062 1.94289 19.6108
1131 2 16.0931 1.77063 21.4404
3628 1 16.066 0.225651 19.6996
512 1 -0.146478 7.1797 21.4971
1628 1 1.9111 3.64133 19.6779
2129 1 -0.00572746 5.50663 19.6685
2631 1 -0.0808127 3.63786 21.6111
3130 3 1.86392 5.44884 21.3636
3631 3 1.89906 6.98986 19.5964
507 2 3.56999 3.64463 21.5285
517 2 7.1275 7.15694 21.5052
66 1 3.73065 5.40283 19.6296
1133 2 5.45046 5.48411 21.4577
1632 1 5.43895 7.09432 19.6671
2130 1 7.17399 5.40971 19.6472
2639 1 3.70266 7.12816 21.4923
2634 3 7.25052 3.69601 21.4319
3629 2 5.51615 3.62113 19.6912
509 3 10.896 3.66834 21.217
67 3 10.8534 5.36141 19.592
1629 3 9.00949 3.64001 19.6628
2642 3 10.6558 7.05445 21.459
3132 2 9.01049 5.50822 21.3562
3633 1 8.66053 7.23419 19.5669
520 3 14.2074 7.2829 21.3302
1135 1 12.6945 5.41568 21.431
1634 3 12.5449 7.00643 19.6144
2131 3 14.2738 5.2439 19.4365
2635 1 14.3313 3.57791 21.3667
3630 3 12.5381 3.60364 19.4844
826 3 17.9402 7.02228 21.2722
1630 1 16.2045 3.58856 19.5694
2316 3 18.0216 5.30134 19.6399
2507 3 18.0479 3.52466 21.374
3134 3 15.8888 5.37044 21.2759
3635 1 16.1374 6.98794 19.5278
68 1 -0.0469688 8.84009 19.8722
1137 3 1.8726 8.55366 21.2519
1631 1 1.68373 10.8209 19.8059
2637 2 0.00851147 10.8732 21.2962
514 2 3.56354 10.7134 21.5076
69 1 6.98669 8.81909 19.7134
2132 3 3.71721 8.97671 19.6996
2643 2 7.23059 10.5202 21.5153
3136 3 5.27864 8.85472 21.5933
3632 2 5.44099 10.6578 19.7626
518 2 10.7423 10.7115 21.3149
1139 2 8.87674 8.88614 21.4671
1633 2 9.01741 10.8526 19.7156
2133 3 10.5307 8.80615 19.6036
70 2 14.3816 9.08631 19.6723
2645 1 14.3341 10.6859 21.4386
3138 3 12.3381 9.07371 21.4567
3634 1 12.4271 10.6353 19.4934
318 1 17.8521 8.93858 19.6494
1141 3 16.1118 8.88816 21.4624
1635 3 16.3187 10.6391 19.4643
2514 3 17.9059 10.8124 21.4592
521 2 0.110838 14.269 21.6287
2134 3 0.0263777 12.4877 19.6479
3140 1 1.77259 12.4281 21.4247
3636 3 1.74578 14.3689 19.8086
524 1 7.1042 14.1537 21.7117
71 3 3.47316 12.4107 19.5592
1143 2 5.3334 12.4566 21.3262
1636 1 5.20451 14.0609 19.6342
2135 3 7.11027 12.6872 19.6948
2647 3 3.58832 14.3761 21.4657
72 1 10.6815 12.418 19.552
2649 2 10.8109 14.4449 21.426
3142 3 9.14563 12.7054 21.6377
3637 3 8.869 14.3497 19.7777
525 1 14.4127 14.0558 21.3547
1145 2 12.456 12.3206 21.3262
1637 1 12.6482 14.349 19.7848
2136 2 14.1542 12.3075 19.6295
835 2 17.8056 14.2315 21.4961
2321 1 18.1857 12.2505 19.5649
3144 1 16.318 12.4037 21.2623
3638 3 15.9866 14.1807 19.5611
690 3 0.115989 17.8704 21.6957
73 1 -0.100937 16.0666 19.5863
1147 3 1.67905 16.0077 21.465
3751 3 1.78389 17.8487 19.908
695 3 7.25496 17.8223 21.3334
74 1 7.0114 16.0479 19.588
1502 1 5.41745 17.8965 19.4594
2137 3 3.58846 16.0908 19.6493
2754 1 3.77515 17.7439 21.5637
3146 2 5.42968 16.1018 21.4191
1149 2 9.04196 16.1301 21.4191
2138 1 10.5099 16.135 19.6777
2757 3 10.7957 17.9454 21.1535
3753 1 8.98303 17.7297 19.556
698 3 14.5358 17.8088 21.1369
75 1 14.1565 16.061 19.3037
1504 2 12.599 17.8911 19.4494
3148 3 12.4072 16.3265 21.4358
941 1 17.9732 17.6639 21.4362
323 2 17.8324 16.1609 19.6014
1151 2 15.9746 15.8506 20.9843
3755 1 16.0666 17.7723 19.4363
1638 2 1.67109 0.042921 23.2014
2139 3 0.0304397 1.80302 23.2042
2651 3 0.116405 -0.0198444 25.0571
3150 1 1.7485 1.55566 24.9518
526 3 7.01878 0.253998 24.8686
77 1 5.32732 2.03926 25.1724
76 2 3.45877 1.7478 23.316
2140 3 7.06455 1.93962 23.0037
3640 3 3.58859 0.0646968 25.056
3639 3 5.32343 0.0450654 22.9602
78 2 10.9318 1.7743 23.3862
1152 1 8.82048 1.84017 24.8122
1640 2 10.5346 -0.142888 24.8002
1639 1 8.8954 0.178003 23.0158
2142 1 14.2563 1.81781 23.2178
2141 2 12.5775 1.84162 25.072
2652 1 14.3748 0.0280769 24.8603
3641 3 12.3328 0.0164461 23.2005
1641 3 16.2577 -0.194806 23.2168
2326 3 17.9553 1.87922 23.4221
2526 2 18.0562 0.0740023 24.939
3151 2 16.1723 1.76337 24.8009
528 1 0.0744671 7.14491 25.3697
80 2 1.78073 5.44122 25.0064
79 3 0.152 5.42615 23.4104
1645 1 1.54579 7.34091 23.1298
3643 1 -0.0613275 3.6995 25.1693
3642 2 1.77167 3.64902 23.4544
527 3 3.68121 3.76101 25.1265
81 1 6.98603 5.45892 23.1731
1153 2 5.35831 5.51763 25.0654
1648 1 3.38985 7.05017 24.9401
1643 3 7.19408 3.60423 24.8281
1642 2 5.41887 3.68353 23.3367
2143 3 3.68005 5.54299 23.1637
2655 2 7.18699 7.0755 25.0162
3648 2 5.44665 7.27277 23.2315
1649 2 8.83901 7.19964 23.0351
2145 2 8.94007 5.31033 24.9134
2144 1 10.8002 5.42332 23.0727
2653 2 10.8212 3.4896 24.9841
3650 1 10.5629 7.05403 24.8937
3644 2 8.85685 3.49672 23.1348
530 1 14.2143 7.438 25.0666
82 2 14.2463 5.49179 23.1734
1644 2 12.5575 3.58718 23.0436
3152 2 12.6132 5.36425 24.8037
3652 2 12.4329 7.31457 23.0924
3646 3 14.2048 3.70245 24.8786
841 3 17.8238 7.20851 24.759
329 3 17.7304 5.3555 23.0307
83 2 16.0917 5.43226 24.9927
1651 1 15.8218 7.12328 23.0817
3893 1 17.8697 3.68619 25.0562
3645 1 16.2185 3.62041 23.1676
1154 1 1.87205 8.96577 25.1566
1646 3 0.0870495 10.6852 25.0056
2146 1 0.158448 9.09998 23.0855
3647 2 1.80495 10.5586 22.8849
84 1 3.57343 9.08063 23.4345
1647 2 5.51511 10.9825 23.5011
2148 1 7.26623 8.94749 23.28
2147 1 5.62565 8.7998 24.9029
2654 2 3.60607 10.8136 25.0239
3651 2 7.37092 10.7367 24.9759
529 1 10.8307 10.7706 25.1484
85 1 10.7141 8.98349 23.0444
3153 1 9.08922 8.89542 24.9314
3649 3 9.1031 10.734 23.1795
86 2 12.2076 8.91935 24.863
1652 1 14.1411 10.6557 25.2146
1650 1 12.463 10.6693 23.3764
2149 3 14.1662 9.14879 23.2812
1155 1 16.1447 8.95739 24.9431
1835 1 17.7613 10.6914 24.9528
2333 3 18.0572 8.99582 23.029
3653 1 16.0419 10.6164 23.4919
87 3 0.0376974 12.1993 23.2165
1653 2 1.75708 14.2266 23.3236
2150 1 1.79983 12.3647 24.8592
2656 3 0.0342626 14.2767 24.9203
531 1 7.20381 14.2546 24.7306
88 2 7.17475 12.4354 23.1563
2151 2 3.7457 12.4352 23.3166
3154 2 5.3609 12.6616 24.9651
3655 1 3.18125 14.1403 24.9823
3654 2 5.34797 14.3235 23.1746
89 2 9.0959 12.382 24.918
1655 1 10.7247 14.4588 24.914
1654 2 9.12239 14.246 23.3779
2152 1 10.8439 12.4762 23.1815
90 2 14.3103 12.5942 23.07
1156 3 12.5471 12.5005 25.1504
2657 2 14.1854 14.2131 24.9718
3656 1 12.5282 14.3173 23.0853
337 2 17.7825 12.4665 23.1339
1656 1 16.2772 14.2443 23.2598
2153 1 15.9833 12.6229 25.0501
2531 1 17.8444 14.2793 25.0274
1513 1 1.95766 17.7906 23.2982
2154 1 0.0977168 16.0387 23.2038
2776 3 0.231668 17.8773 24.9297
3155 2 1.89196 15.9165 24.9304
715 2 7.20963 17.8057 24.9359
92 1 5.53373 15.8581 25.103
91 2 3.55442 16.0968 23.3635
2155 1 6.9964 16.132 23.315
3767 1 3.67569 17.694 25.1163
3766 2 5.3567 17.8071 23.1105
93 2 10.5882 16.018 23.0797
1157 3 8.84312 16.003 24.9354
1515 2 8.88963 17.6711 23.3393
1516 1 10.567 17.6834 24.8693
2157 3 14.4867 15.8988 23.0648
2156 2 12.608 16.1349 24.7779
2778 2 14.3965 17.9466 24.8277
3769 1 12.6526 17.8545 23.2313
1519 1 16.0509 17.7392 23.0862
2341 2 17.8814 15.8307 23.1893
2963 1 18.0016 17.9511 25.0293
3156 2 16.1616 16.1848 24.9122
532 3 0.183022 0.135529 28.59
94 2 0.13923 1.91626 26.7838
1158 3 1.82034 1.92843 28.5796
3657 3 1.96889 0.0901955 26.703
533 3 5.30439 0.0751734 26.8196
534 2 7.22185 -0.150173 28.5025
1159 1 3.45954 1.77574 26.7088
2159 2 7.28795 1.72464 26.6509
2658 2 3.57656 -0.0207851 28.4504
3157 3 5.56078 1.97573 28.2495
1160 3 9.04706 1.68709 28.5376
1658 1 8.92084 -0.172103 26.8891
2659 2 10.7458 -0.028166 28.5593
3158 3 10.685 1.88675 26.7783
535 1 14.1258 0.0702848 28.454
97 3 14.289 1.82597 26.8185
2660 2 12.7071 0.0333961 26.5599
3159 2 12.445 1.74409 28.4372
845 1 17.945 -0.000356059 28.3723
344 2 17.9566 1.77029 26.7016
1161 3 16.2511 1.74279 28.4042
3660 3 16.0475 0.0642337 26.6777
536 2 1.802 3.66215 26.7076
540 1 -0.289964 7.32285 28.3968
1162 2 0.0428323 5.37552 26.9689
1664 2 1.77041 7.26749 27.0415
2661 2 -0.0758189 3.71122 28.4882
3160 2 1.94237 5.41306 28.6295
537 1 3.83993 3.46422 28.4022
543 1 6.95497 7.15263 28.7791
1163 2 5.28407 5.37283 28.6329
1661 2 5.59322 3.79092 26.7312
2162 1 3.37809 5.30919 26.8763
2668 1 3.64661 7.19142 28.7319
2667 1 5.49442 7.19423 26.8028
2663 1 7.34685 3.51367 28.4571
3161 1 7.15685 5.37566 26.8584
538 1 10.7859 3.47403 28.6928
99 1 10.661 5.43945 26.6307
2669 2 10.7507 7.23788 28.6178
2662 2 8.96396 3.61996 26.8316
3162 3 9.02228 5.46811 28.6591
3668 2 8.94858 7.2012 26.9277
545 2 12.3486 7.15896 26.8643
546 1 14.372 7.04868 28.2797
1165 2 14.1248 5.29684 26.494
1164 3 12.6158 5.32669 28.5334
2664 1 14.1714 3.69911 28.4151
3663 2 12.4979 3.76844 26.6273
853 2 17.8956 7.15234 28.5915
539 2 16.0592 3.48733 26.5996
1349 2 17.6901 5.47073 26.9405
1670 2 15.9891 7.11974 26.7411
2536 1 17.795 3.55598 28.377
3163 2 16.0484 5.39366 28.4117
1166 2 1.89086 9.0626 28.5771
2165 2 -0.057289 8.81733 26.9374
2666 3 0.0406971 10.7369 28.4967
2665 2 1.8916 10.8341 26.8738