ITEM: TIMESTEP
5000
ITEM: NUMBER OF ATOMS
4000
ITEM: BOX BOUNDS pp pp pp
8.8980573475591740e-02 3.5645079426524333e+01
8.8980573475591740e-02 3.5645079426524333e+01
8.8980573475591740e-02 3.5645079426524333e+01
ITEM: ATOMS id type x y z
563 1 0.0436085 0.275337 0.170747
1064 3 1.95263 1.87483 0.200008
1563 2 1.87069 0.00919308 1.75326
2064 2 -0.126822 1.87145 1.89279
1 2 3.49807 1.93806 1.87862
565 1 7.09828 0.131802 0.178921
2065 3 7.18232 1.85213 1.73868
2565 1 3.7041 0.26212 0.0868724
3064 2 5.43375 1.85144 0.0884136
3564 2 5.16966 0.307771 1.9606
2 2 10.8157 1.92557 1.8552
1066 3 9.11442 1.75979 0.202722
1564 3 9.00964 0.0143622 1.92782
2566 1 10.9597 0.0871247 -0.115163
567 1 14.1915 0.0257341 -0.00912058
2066 3 14.3718 1.80536 1.79074
3066 1 12.4417 1.80691 0.057493
3565 1 12.5202 0.0705833 1.94623
751 2 17.8828 0.274312 -0.0467379
1068 3 16.0012 1.76683 0.132599
1565 2 16.2502 -0.0442407 1.64969
2001 3 17.8718 2.03332 1.73811
3 1 0.0306443 5.50751 1.79675
573 3 0.23158 7.258 -0.0292207
1568 3 1.78467 7.15487 1.72428
2569 2 0.115962 3.79642 0.138106
3068 1 1.83546 5.43496 -0.0960037
3566 1 1.99569 3.65193 1.78759
4 1 7.02951 5.38303 1.98908
569 3 3.74054 3.60136 0.121391
577 3 7.05889 7.1317 0.159844
1070 1 5.32324 5.41534 0.0404176
1566 2 5.41808 3.45212 1.83244
2067 2 3.54581 5.55689 1.79478
2576 2 3.65423 7.31791 0.0149035
2571 3 7.3962 3.50811 0.0991449
3570 2 5.31919 7.10007 1.74876
570 3 10.6721 3.67131 0.0149174
1570 1 9.03078 7.13212 1.77503
2068 2 10.8034 5.38538 1.78353
2578 3 10.7239 7.13208 9.22606e-06
3070 3 8.84641 5.43733 0.0576757
3567 1 8.94249 3.63945 1.96268
5 2 14.3011 5.60732 1.88951
581 2 14.3691 7.21841 0.0400748
1072 3 12.5924 5.36074 0.208369
1567 3 12.4546 3.69883 1.89564
2573 1 14.2504 3.60681 -0.0308773
3572 3 12.4742 7.2047 1.98177
253 2 17.8305 5.31345 1.846
761 2 17.7355 7.17757 0.0797218
1572 1 15.9781 7.31447 1.93705
2819 1 17.9513 3.83605 0.0338736
3072 3 15.9516 5.54037 0.234841
3568 2 16.0058 3.78571 1.82785
1074 1 1.81586 9.04583 0.255188
2069 2 0.036852 9.11445 1.78265
2574 3 0.186539 10.839 0.136409
3569 1 1.83298 10.7041 1.85608
6 1 3.40011 9.0178 1.86776
575 2 3.66835 10.8491 -0.0151882
1569 1 5.41576 10.8807 1.92194
2070 1 7.32143 9.04588 1.90597
2579 2 7.34719 10.8387 -0.0992275
3074 3 5.4696 9.20814 0.0193552
7 3 10.6823 8.89095 2.0198
578 1 10.6565 10.7085 -0.0938751
1076 3 9.09348 9.03908 0.0884839
3571 1 8.91731 10.8313 1.76091
1571 3 12.4231 10.8192 1.58758
2071 2 14.2526 8.99403 1.73894
2582 1 14.2178 10.7374 0.120567
3076 2 12.4072 8.93461 -0.0306011
1078 2 16.0202 9.08868 0.208559
2006 2 17.9276 9.08979 1.77702
2825 3 17.6728 10.8716 0.0686983
3573 2 16.1588 10.6944 2.09635
8 2 0.0774645 12.6632 1.78978
583 1 0.0976972 14.2071 0.1033
1573 1 1.93254 14.3632 1.81041
3078 1 2.17995 12.4059 0.12673
9 1 7.21552 12.4572 1.80968
585 3 7.15788 14.4848 0.125431
1080 2 5.55331 12.3995 0.145149
2072 2 3.66835 12.5894 1.95469
2585 3 3.9459 14.407 0.0871239
3574 1 5.34028 14.3168 2.00643
1574 1 9.13882 14.19 1.65156
2073 3 10.7909 12.6267 1.94404
2586 1 10.7524 14.3464 0.0346328
3080 2 9.05681 12.5418 0.0319108
10 2 14.4081 12.5337 1.8643
587 3 14.3238 14.4087 0.0614239
1082 3 12.4119 12.5744 -0.0222395
3575 2 12.4131 14.222 1.83825
258 3 18.0079 12.505 1.84721
771 3 17.7423 14.3062 0.172466
1575 2 16.1117 14.0195 1.98089
3082 2 16.0132 12.7372 -0.0638521
626 1 0.063939 18.0193 0.255406
1084 1 2.0594 16.1376 0.0587846
1688 3 1.9487 17.9547 1.75166
2074 2 0.130953 16.058 1.82831
11 2 3.77092 16.1327 1.88084
630 2 7.29337 17.7438 0.283634
2075 3 7.52557 15.9514 1.91219
2691 2 3.81813 17.8014 0.187661
3084 2 5.43701 16.1092 0.180252
3690 1 5.67177 17.6916 1.91244
12 2 10.7441 15.9303 1.90245
1086 2 8.95616 16.0408 0.202035
1690 2 9.17507 17.7406 1.85665
2693 2 10.7989 17.7388 0.0419565
634 1 14.374 17.7288 0.0313557
2076 2 14.3447 15.7523 1.96872
3086 3 12.5427 16.103 0.149909
3692 2 12.4806 18.0001 1.80815
876 3 17.9479 17.9039 0.00820436
1088 3 16.0032 16.0828 0.141507
1692 2 16.3157 17.6793 1.93099
2011 1 17.8064 15.9133 2.06991
13 1 0.0878549 1.75874 5.38789
588 3 -0.145981 -0.00788496 7.2148
1089 1 1.762 1.89873 7.13762
2564 2 0.138957 0.0760503 3.5796
3063 1 1.94221 1.97976 3.45806
3576 3 1.81967 -0.051247 5.51474
14 3 7.18133 1.87566 5.49936
564 2 3.58126 0.0396227 3.92587
1065 2 5.39695 1.94217 3.5626
1577 1 3.61706 0.149901 7.0203
1576 2 5.33992 0.109152 5.30242
2078 2 5.48822 1.69462 7.33278
2077 2 3.54071 1.84835 5.2992
2589 1 7.11594 -0.0543557 7.17777
2567 1 7.07743 0.147973 3.6367
566 1 10.5902 0.146747 3.58956
2079 3 10.6108 1.91331 5.47661
3065 2 8.89979 1.86921 3.50043
3088 3 8.91481 1.85719 7.27715
3578 1 10.7656 -0.0411073 7.06875
3577 3 8.84864 0.0968302 5.60136
15 2 12.5974 1.95023 7.13559
16 1 14.2786 1.78096 5.38202
589 3 14.2108 0.230133 7.13397
1067 2 12.4355 1.8254 3.68733
1578 3 12.4916 0.166522 5.48697
2568 3 14.44 0.240579 3.66515
263 3 17.9521 1.98331 5.44731
776 1 17.8475 0.225268 7.15142
1090 3 15.9768 1.83764 7.16244
2815 2 17.9334 0.0149754 3.86094
3067 3 16.2385 1.75868 3.3699
3579 2 16.2781 0.021315 5.43786
568 3 0.0857015 3.50716 3.62379
1069 1 1.71942 5.30399 3.56767
1580 3 0.11243 3.61089 7.31092
1579 1 1.88729 3.60006 5.5505
2081 1 1.83778 5.51481 7.08125
2080 2 -0.0393855 5.24848 5.42937
2591 3 0.0220375 7.15126 7.37463
2575 3 -0.00190174 7.17989 3.53466
3583 1 1.72206 7.10118 5.33337
17 3 3.54116 5.45439 5.46331
571 3 7.00283 3.74724 3.57191
592 1 6.87147 7.0063 7.21296
576 3 3.57009 7.13009 3.54736
1585 2 5.50537 7.15289 5.10093
2082 3 7.09746 5.3705 5.5363
2590 1 3.63606 3.44507 7.42943
2580 1 7.23514 7.1729 3.50507
2570 3 3.52901 3.80491 3.61802
3069 1 5.22968 5.40999 3.75686
3089 2 5.34546 5.49668 7.16708
3586 3 3.70775 7.08696 7.05784
3581 3 7.22625 3.57789 7.42214
3580 3 5.29415 3.44158 5.73738
18 1 10.7532 5.46423 5.54108
19 1 8.85166 5.19518 7.12153
590 1 10.7712 3.68457 7.1117
579 1 10.7675 6.95885 3.70493
1071 3 8.91074 5.26436 3.6609
1587 1 10.8098 7.3192 7.10145
1581 2 8.89085 3.57993 5.49187
2572 3 10.741 3.72255 3.78637
3587 3 8.78222 7.12645 5.4184
572 3 14.2271 3.58898 3.63391
1091 1 12.6184 5.49823 7.43482
1589 2 12.4033 7.32023 5.47502
1583 2 14.3828 3.75732 7.11609
2083 1 14.3577 5.35291 5.4692
2593 1 14.1748 7.30001 7.0288
2583 3 14.2465 7.24884 3.74504
3071 3 12.66 5.44764 3.67866
3582 3 12.6381 3.60983 5.4544
757 2 17.7316 3.64483 3.57932
1073 3 15.9885 5.35295 3.78081
1768 3 17.8887 3.63412 7.32187
1582 1 16.1529 3.55762 5.29397
2084 3 16.0259 5.47486 7.09495
2017 2 17.7729 5.28572 5.24907
2841 3 17.8879 7.27263 7.3424
2826 3 17.89 7.33411 3.66532
3589 2 16.0372 7.15729 5.37946
20 2 0.143625 8.81529 5.47063
574 2 0.019656 10.6772 3.66732
1584 1 1.83803 10.433 5.33301
3073 3 1.86216 8.92886 3.53503
3090 1 1.80716 8.97825 7.14477
3584 2 0.0636836 10.5243 7.36384
21 2 5.55582 8.91017 7.11883
22 3 7.11196 9.12812 5.21346
591 2 3.8238 10.4681 7.19057
580 1 7.17476 10.8749 3.59243
1075 3 5.3395 8.92447 3.57099
1588 1 7.0618 10.8751 7.12878
2085 1 3.49473 8.91603 5.43422
2577 3 3.63197 10.6415 3.5539
3585 3 5.4633 10.7453 5.33766
1092 2 8.66178 8.85883 7.1305
1586 3 8.83318 10.6909 5.35931
2086 1 10.5559 9.03503 5.53179
2592 2 10.73 10.6426 7.19921
2581 3 10.7908 10.6263 3.60377
3075 3 8.77792 8.94019 3.7249
23 2 14.381 9.05031 5.47057
582 3 14.1216 10.6979 3.6274
1077 1 12.3668 8.88408 3.80485
2087 1 12.5935 9.15117 7.23548
3590 1 14.2661 10.6712 7.06612
3588 1 12.443 10.6457 5.62059
270 2 17.9132 8.94348 5.37621
764 2 17.8963 10.6001 3.63702
1590 3 16.0815 10.6359 5.61457
3091 2 15.9368 9.01766 7.3146
3077 3 15.9238 8.97014 3.65417
3835 2 17.8872 10.556 7.22941
24 1 1.90448 12.119 7.03683
593 2 0.166532 14.2606 7.08805
1079 3 1.84049 12.3688 3.56692
2088 2 0.151864 12.4031 5.48485
2584 2 0.25224 14.2432 3.69457
3591 1 1.80202 14.2048 5.47252
25 1 3.64758 12.5732 5.24586
584 3 3.55067 14.2498 3.79393
1093 1 5.23512 12.5294 7.2312
1592 3 3.75276 14.1339 6.99259
1591 3 5.5678 14.3224 5.44127
2089 2 7.0981 12.6591 5.54593
2594 1 7.14376 14.3892 7.27048
2587 1 7.12121 14.0776 3.4619
3079 2 5.26286 12.4955 3.70424
26 2 10.7447 12.3367 5.44299
586 2 10.5616 14.309 3.63335
1081 2 9.0844 12.402 3.43276
2090 1 8.91244 12.574 7.07451
3593 2 10.8509 14.1193 7.10015
3592 1 8.85969 14.2113 5.55854
594 1 14.2718 14.1325 7.07001
1593 1 12.4165 14.0822 5.32692
2091 2 14.31 12.2394 5.54439
2588 3 14.1297 14.2372 3.65478
3092 2 12.5725 12.314 7.08443
3081 3 12.4731 12.2154 3.62617
27 2 16.2378 12.329 7.25692
781 1 17.8972 14.4172 7.27035
1083 2 16.153 12.4447 3.80067
2025 2 17.9053 12.3517 5.57165
2835 2 17.8163 14.216 3.62139
3594 2 16.0338 14.0677 5.49994
28 1 0.15872 16.0361 5.55301
651 2 0.130373 17.9125 7.08291
1094 2 1.94308 16.1119 7.1123
2690 3 0.13314 17.7924 3.66174
3083 1 1.90645 15.9794 3.65278
3701 2 1.7103 17.8268 5.51247
29 2 7.31632 15.9212 5.42275
629 3 3.83385 17.8092 3.59622
1085 3 5.53003 16.0494 3.55007
1704 1 3.6164 17.8634 7.01719
1703 3 5.45811 17.7503 5.46278
2093 3 5.39016 16.1106 7.11786
2092 2 3.76975 16.1395 5.39247
2715 1 7.20443 17.7997 7.28944
2695 3 7.27733 17.8097 3.46335
632 2 10.8193 17.6011 3.51517
2094 1 11.2313 16.053 5.62726
3093 2 8.83098 16.0261 7.25964
3085 1 9.05923 15.9247 3.77117
3704 3 10.7976 17.8445 7.29618
3703 3 8.97754 17.8027 5.28127
30 2 12.6918 16.032 7.31842
31 3 14.4012 16.0372 5.47886
653 3 14.2956 17.6701 7.35196
1087 1 12.6262 16.1046 3.52001
1706 2 12.7018 17.9148 5.44136
2698 1 14.6744 17.9135 3.3918
278 2 17.7057 15.9422 5.51081
901 1 17.7755 17.8172 7.1319
1095 3 16.0979 15.9699 7.31465
2878 2 17.7779 17.5766 3.76149
3087 2 16.0224 15.935 3.76538
3707 3 16.0202 17.7248 5.45248
1594 2 1.7416 0.0356074 8.87276
2095 1 -0.112832 1.94257 9.14003
2595 2 0.139297 0.0594206 10.6978
3094 1 1.65204 1.75032 10.7144
33 1 7.21081 1.70342 9.03047
595 1 3.31688 0.0775185 10.802
1096 2 5.47706 1.76113 10.8403
2597 1 7.19002 0.193259 10.6601
2596 2 5.34504 0.0739597 9.13169
3095 2 3.53128 1.9956 9.43337
596 2 10.781 -0.122245 10.6859
1097 2 10.6825 1.84349 9.03646
3096 2 8.83662 1.77568 10.769
3596 3 9.06732 0.121816 8.88968
597 3 12.3312 -0.106847 8.95875
1098 3 12.3624 1.82728 10.713
2098 1 14.3 1.99261 9.09084
2598 3 14.2081 0.281287 10.6565
1597 3 16.077 0.122961 8.9516
2032 3 17.8343 1.91575 8.97364
2845 2 17.6742 0.239517 10.7266
3097 2 16.0251 2.12235 10.9153
598 3 -0.129467 3.78798 10.8771
1099 1 1.76229 5.55265 10.924
2603 1 0.0506299 7.22861 10.7449
2599 3 1.88207 3.53664 9.12848
3098 3 0.0582841 5.37593 8.99439
3602 1 1.92937 7.07568 8.96204
36 3 3.635 5.3576 9.03837
605 3 3.70585 7.22596 10.879
604 1 5.14632 7.17283 8.83192
600 1 7.29821 3.65251 10.797
1100 3 7.16742 5.37856 8.96965
2606 3 7.32488 7.19004 10.6286
2600 1 3.71969 3.8251 10.9376
3099 3 5.51438 5.27088 10.6688
3599 1 5.3908 3.34552 9.01804
606 1 10.7295 7.181 10.5329
599 2 9.03605 3.50065 8.91165
1101 1 9.14049 5.34378 10.3938
1605 2 8.8688 7.14754 8.57259
2100 2 10.7876 5.43386 8.77701
2601 1 10.7702 3.73573 10.7032
601 3 14.2627 3.67345 10.8229
1600 3 12.5111 3.49674 8.88724
2609 1 14.4075 7.17749 10.6364
2608 2 12.717 7.30313 9.0211
3101 3 14.6142 5.36625 9.0662
3100 2 12.3995 5.58643 10.6774
786 3 17.9364 3.44674 10.8431
1102 3 16.2142 5.25713 10.7735
2853 1 17.966 7.20564 10.7991
2602 1 16.2515 3.65545 8.89866
3348 3 18.1161 5.33613 9.17536
3608 1 16.1353 7.06352 8.92572
39 2 0.121243 8.91913 9.01435
603 1 0.231493 10.7925 10.7177
602 2 1.85317 10.5937 8.93603
3102 2 1.94084 9.08865 10.6909
607 1 7.27043 10.7604 10.8551
1104 2 5.34798 8.87278 10.7269
1103 2 3.52555 8.83829 8.87802
1603 3 5.27071 10.7668 9.04074
2104 3 7.19153 9.01146 8.96624
2604 2 3.65807 10.7545 10.7845
2607 3 10.7111 10.5727 10.8698
2605 3 8.87304 10.7537 8.83584
3104 1 8.88137 8.90597 10.7749
3103 1 10.8391 8.9872 8.95071
42 1 14.2931 8.98454 9.07891
609 2 14.2323 10.7875 10.6463
1105 3 12.6966 8.86001 10.7388
3606 2 12.4915 10.8228 8.99048
289 2 17.8292 9.01738 8.95627
792 1 17.9918 10.7415 10.7855
608 3 16.1303 10.7974 8.96595
3105 2 16.2628 8.94384 10.8401
1107 3 1.74886 12.5446 10.6338
1106 3 0.321486 12.4843 8.78252
1609 1 1.88176 14.3955 8.72776
2610 2 0.152243 14.3425 10.6368
610 3 3.67086 14.3483 10.6411
2107 1 3.62081 12.6575 8.91553
2612 1 7.26913 14.1758 10.8017
2611 3 5.54238 14.4385 9.07806
3107 2 7.06294 12.5387 9.05075
3106 3 5.42882 12.543 10.7487
45 3 10.7777 12.5719 8.75315
611 3 10.8231 14.3495 10.7052
1108 3 8.93752 12.41 10.8931
3611 1 9.07151 14.273 9.02819
612 2 12.6534 14.1569 9.06486
1109 3 14.2716 12.4808 8.90173
2613 1 14.2949 14.3004 10.7471
3108 1 12.4667 12.4033 10.7078
1293 2 18.0252 12.4771 8.93293
1110 3 16.2247 12.5091 10.5955
1612 3 16.0567 14.3191 8.93999
2860 1 17.8467 14.1243 10.675
1719 1 1.82236 17.8856 8.96305
2110 2 0.181169 16.1386 8.90772
2721 2 0.198238 17.9957 10.5701
3109 2 1.94057 16.104 10.6177
48 3 7.3653 16.1502 8.86322
659 1 3.63798 17.7664 10.7081
1111 2 5.59888 16.0534 10.6229
2724 2 7.34263 17.85 10.8251
2722 1 5.32463 17.758 8.84106
3110 1 3.7017 16.1588 8.89493
661 2 10.7403 17.7263 10.9027
1112 3 10.8441 15.9794 8.97792
3111 3 9.04647 15.9162 10.9209
3723 2 9.11521 17.824 8.96937
663 3 12.4005 17.9125 8.87928
1113 2 12.6524 16.1859 10.8382
2113 1 14.2765 15.913 9.08996
2727 1 14.3964 17.826 10.4356
1725 1 16.1536 17.7932 8.98957
2047 3 17.8402 16.0954 9.03679
2908 1 17.7468 17.743 10.8065
3112 1 16.2578 16.0754 10.8167
32 2 -0.0920124 1.84856 12.4562
613 2 0.150246 -0.159626 14.313
1114 3 1.78499 1.83891 14.1779
3595 2 1.62519 0.0258594 12.4743
34 1 7.18933 1.88017 12.7684
614 1 7.08574 -0.154749 14.1996
1595 2 5.50779 0.161067 12.5988
2096 1 3.56036 1.79548 12.4282
2614 3 3.57898 0.110168 14.3237
3113 2 5.33263 1.96377 14.3101
1115 2 8.88333 1.98281 14.4548
2097 3 10.6549 1.91185 12.5029
2615 1 10.7693 0.187329 14.4755
3597 2 9.1156 0.156592 12.696
35 1 14.1945 1.84591 12.4931
615 3 14.2043 0.058918 14.3609
1596 3 12.42 0.233524 12.6482
3114 2 12.4757 2.03498 14.4026
282 1 17.8798 1.75607 12.7807
801 3 17.8895 0.0955552 14.4174
1116 2 16.1251 1.83989 14.27
3598 1 15.9717 0.0663895 12.672
618 3 -0.0138935 7.23591 14.3777
1598 3 1.70041 3.63455 12.5088
2099 2 -0.099095 5.52163 12.6586
2616 1 0.100651 3.66613 14.502
3115 3 1.9335 5.51687 14.3107
3603 3 1.85196 7.11328 12.6313
37 2 3.5455 5.46121 12.4665
620 2 7.19249 7.1201 14.321
616 1 3.61189 3.64401 14.0728
1117 3 5.28508 5.38134 14.2059
1604 1 5.43335 7.26592 12.7997
2101 3 7.20318 5.44212 12.5252
2620 2 3.7152 7.2579 14.4288
2617 1 7.19065 3.70607 14.2148
3600 3 5.53688 3.55889 12.4873
38 2 10.7675 5.3861 12.3134
617 1 10.7864 3.64962 14.1314
1599 1 8.93355 3.74511 12.3625
2621 3 10.7344 7.14784 14.4345
3116 3 8.9721 5.31475 14.2048
3605 1 8.89569 7.08989 12.3347
622 3 14.3303 7.14461 14.3688
1118 3 12.5504 5.4637 14.4705
1607 1 12.4108 7.03907 12.5611
2102 3 14.2729 5.37432 12.5918
2618 3 14.3347 3.59002 14.3909
3601 2 12.531 3.71718 12.5056
806 2 17.914 6.9382 14.5052
1601 2 15.9656 3.5849 12.5553
2036 2 18.0917 5.52167 12.4832
2866 3 18.0203 3.60951 14.2662
3117 3 16.0965 5.32262 14.1726
3609 3 16.2178 7.08291 12.513
40 2 0.132681 9.05657 12.5555
1119 1 1.72946 9.05519 14.2744
1602 2 1.97602 10.7305 12.5463
2619 3 0.0530136 10.9324 14.3368
41 3 7.09342 8.9059 12.4277
619 2 3.54673 10.7849 14.3731
2103 3 3.65468 8.82357 12.4906
2622 3 7.15756 10.4406 14.3157
3118 3 5.33727 8.8548 14.2885
3604 3 5.38447 10.6357 12.476
621 3 10.6631 10.5934 14.1789
1120 3 8.97931 8.75113 14.2511
1606 1 8.85148 10.5642 12.6103
2105 3 10.6962 8.84835 12.5538
43 3 14.4735 8.89527 12.4207
2623 3 14.6315 10.6336 14.0633
3119 1 12.6246 9.03722 14.1068
3607 1 12.664 10.5982 12.5388
290 3 17.9083 9.00867 12.5968
1121 1 16.2031 8.83641 14.2586
1608 1 16.3553 10.8234 12.2824
2870 3 17.8307 10.5435 14.3239
623 1 0.0976736 14.365 14.2414
2106 1 0.169813 12.6707 12.5804
3120 3 1.97995 12.6962 14.3347
3610 2 1.80819 14.3266 12.3881
44 1 3.6808 12.4042 12.3597
624 1 6.91016 14.2905 14.4539
1122 3 5.38564 12.449 14.1889
1610 3 5.35135 14.5258 12.3137
2108 3 7.04844 12.5572 12.4337
2624 3 3.90492 14.3583 14.2093
46 3 10.6003 12.4923 12.5601
2625 1 10.7196 14.1468 14.3381
3121 3 8.82899 12.3455 14.2308
3612 3 8.73086 14.2021 12.636
625 2 14.5603 14.1749 14.2571
1123 2 12.6409 12.5327 14.3585
1611 2 12.4491 14.4234 12.5718
2109 3 14.4028 12.415 12.4534
811 2 17.9737 14.4294 14.2463
2044 2 17.893 12.4826 12.5381
3122 2 16.2047 12.4888 14.3422
3613 1 16.0345 14.1961 12.5099
47 2 0.215441 16.1642 12.4664
676 3 0.0471695 17.8965 14.3911
1124 3 1.98033 15.9542 14.1447
3720 2 1.89214 17.7679 12.5929
49 2 7.03508 16.1261 12.398
678 1 7.12028 17.8698 14.3674
1721 2 5.40916 17.8216 12.385
2111 2 3.61632 16.2064 12.3672
2740 1 3.66252 17.8596 14.253
3123 2 5.35632 16.2428 14.191
1125 3 8.93546 16.1287 14.1949
2112 1 10.7634 15.9402 12.4126
2741 1 10.9883 17.7264 14.3681
3724 2 8.94603 17.7585 12.683
50 1 14.5746 16.0314 12.3998
680 1 14.2702 17.6774 14.2105
1724 2 12.5484 17.7739 12.419
3124 2 12.7648 16.0987 14.0966
297 2 18.1569 16.0124 12.4898
926 1 17.8541 17.7979 14.301
1126 3 16.1533 16.2247 14.2293
3726 1 16.2942 17.8187 12.5012
1613 2 1.90247 -0.0392534 15.9371
2114 3 0.150032 1.86326 16.2499
2626 2 0.0272371 0.0685161 18.2582
3125 2 1.81605 1.83526 17.836
51 1 3.54426 1.84114 16.0701
502 3 3.66747 0.176216 17.9604
1128 1 5.29148 1.80293 17.9951
2115 1 7.18224 2.0062 16.2263
2628 3 7.04258 0.119244 17.9308
3614 2 5.30727 0.0748933 16.0681
52 2 10.7169 2.04695 16.0126
503 1 10.7768 0.402966 17.6885
1614 3 8.80855 0.221347 16.0029
3127 3 9.06508 1.86826 17.9943
1130 1 12.665 1.84413 17.903
2116 2 14.3281 1.96043 16.1619
2630 1 14.3823 0.216621 17.7525
3615 1 12.345 0.199479 16.058
1615 2 16.2884 0.0985967 16.1118
2051 1 17.9711 1.87594 16.0456
2501 2 17.8659 0.0258412 17.8745
3129 1 16.0216 1.83481 17.8721
53 1 0.0886369 5.30737 16.1891
506 1 0.118124 3.5721 17.8223
1132 2 1.88171 5.39861 17.8583
1618 3 1.72936 7.19058 16.075
2636 2 0.217125 7.13834 17.9237
3616 2 1.95962 3.3575 16.1124
54 1 7.16901 5.50817 15.8966
508 1 7.2008 3.51466 17.8501
513 1 3.56571 7.35055 17.9648
1616 2 5.39584 3.53769 16.1214
2117 3 3.65132 5.50268 16.2087
2640 2 7.25682 7.13921 17.9876
2632 1 3.59312 3.64963 17.9426
3131 2 5.47318 5.41484 17.9409
3620 1 5.35553 7.25965 16.1131
515 1 10.8211 7.17354 17.8637
1134 2 8.99929 5.42618 17.9541
1620 3 9.0159 6.99278 16.1758
2118 1 10.6765 5.37138 16.1223
2633 3 11.0868 3.70738 17.9078
3617 2 8.75114 3.86399 16.0553
55 1 14.3567 5.20325 16.118
510 3 14.2324 3.6339 17.8682
1617 1 12.4682 3.64064 16.0095
2644 3 14.2562 6.98462 17.8646
3133 2 12.6143 5.47142 17.6751
3622 1 12.6146 7.22608 16.1446
303 2 17.7522 5.23163 16.1469
819 2 17.8964 3.58415 18.0348
1136 2 16.1639 5.29452 17.87
1622 3 16.0121 7.35297 16.0387
2511 2 17.7174 7.01055 17.8132
3618 2 16.1806 3.62363 16.3848
511 3 0.202819 10.9222 17.9213
2119 2 0.265958 9.02351 16.0984
3135 3 1.89606 8.98771 17.884
3619 1 1.91698 10.7287 16.0126
56 3 3.6821 9.00985 16.1529
516 2 7.18353 10.7239 17.7371
1138 2 5.38012 8.97719 17.8957
1619 1 5.33176 10.7155 16.2269
2120 3 7.30559 8.96319 16.0808
2638 3 3.4954 10.7671 17.7185
57 3 10.7457 9.01617 16.1183
2641 2 10.8692 10.9159 18.0021
3137 1 8.98444 8.92708 17.7952
3621 2 8.97373 10.7098 16.1049
519 1 14.3419 10.7539 17.8995
1140 1 12.5335 9.1815 18.0589
1621 1 12.6209 10.6699 16.0868
2121 3 14.3995 8.93671 16.1455
825 3 17.8125 10.6585 18.0614
2056 2 17.8783 8.88946 16.0357
3139 3 16.0872 8.84337 17.9844
3623 3 16.0712 10.6513 16.1958
58 2 0.171516 12.64 16.0655
1142 1 1.77568 12.6466 17.818
1623 3 1.98103 14.2857 16.1911
2646 2 0.0775095 14.4161 17.93
59 3 7.10022 12.2867 15.935
522 3 3.69094 14.4064 17.8295
2122 3 3.69922 12.4922 16.0814
2648 2 7.1915 14.2183 17.944
3141 2 5.34052 12.6572 17.7673
3624 1 5.37921 14.2879 15.9807
523 3 10.728 14.1072 17.7471
1144 1 8.93823 12.5544 17.5485
1624 2 8.8795 14.2064 15.8503
2123 2 10.738 12.5408 15.9026
60 1 14.3572 12.4083 15.8929
2650 2 14.3779 14.3876 17.8457
3143 1 12.5543 12.5135 17.7464
3625 2 12.5366 14.3088 15.8717
308 1 17.7788 12.3822 15.9823
1146 1 16.0792 12.6999 17.8148
1625 3 16.1555 14.2556 15.9956
2521 2 17.98 14.4004 17.9317
1738 3 1.82007 17.9535 16.0294
2124 1 0.0486539 15.9359 16.0644
2751 1 -0.0921586 17.8877 17.8457
3145 3 1.79585 16.1978 17.7886
61 3 3.65524 16.1868 16.0444
691 1 3.65048 17.8888 17.8303
1148 2 5.39086 16.0106 17.8837
2125 2 7.15668 16.0433 16.2537
2755 2 7.30504 17.8598 17.7828
3740 3 5.37105 17.9202 16.001
62 2 10.6603 16.0097 15.9514
693 2 10.6262 17.8682 17.8086
1740 2 8.9627 17.669 16.0323
3147 1 9.08674 15.9085 17.6709
1150 2 12.6735 15.9898 17.9649
2126 1 14.1798 16.0456 15.9919
2759 2 14.3016 17.7368 17.9874
3742 2 12.3916 17.7785 16.2538
1742 1 15.9624 17.5815 16.0474
2061 1 17.8312 16.1557 15.98
2938 2 17.83 17.7891 17.8775
3149 1 16.2762 16.0127 17.8666
501 1 0.104536 0.0889326 21.6785
63 2 0.160518 1.88703 19.7435
1127 3 1.80171 1.87943 21.5819
3626 1 1.84901 0.259468 19.8625
504 3 7.09927 0.183253 21.5661
64 2 7.1441 1.95738 19.6192
1626 3 5.42495 -0.0220954 19.8096
2127 3 3.56777 1.89044 19.8187
2627 2 3.8017 -0.0207139 21.6334
3126 1 5.48447 1.86501 21.4671
1129 3 8.96241 1.9582 21.4766
2128 3 10.7944 1.90733 19.6065
2629 3 10.6788 -0.00275052 21.2374
3627 2 8.91959 0.235895 19.7617
505 3 14.2962 0.200231 21.524
65 2 14.2151 1.96319 19.6594
1627 3 12.5579 0.0377765 19.6648
3128 3 12.4595 1.92342 21.4201
815 3 17.7036 0.0298188 21.5153
313 2 17.8024 1.53992 19.6719
1131 2 15.9752 2.00775 21.2829
3628 1 16.0132 -0.0827096 19.6839
512 1 -0.0108572 7.1131 21.2967
1628 1 1.88628 3.47202 19.7489
2129 1 0.20236 5.36952 19.5371
2631 1 0.238444 3.53379 21.3237
3130 3 1.93205 5.31487 21.2863
3631 3 1.80455 7.27183 19.6345
507 2 3.68188 3.6689 21.5342
517 2 7.1045 7.19738 21.4951
66 1 3.59855 5.30356 19.5446
1133 2 5.35522 5.42759 21.5022
1632 1 5.25443 7.09194 19.557
2130 1 7.13096 5.44215 19.6198
2639 1 3.79388 7.29815 21.4543
2634 3 7.31972 3.63625 21.3467
3629 2 5.23229 3.84346 19.6468
509 3 10.8655 3.81657 21.4826
67 3 10.7999 5.54205 19.6123
1629 3 9.09001 3.71853 19.4964
2642 3 10.6992 7.50454 21.3949
3132 2 9.16593 5.64554 21.5218
3633 1 8.94897 7.1091 19.6522
520 3 14.4416 7.16658 21.5674
1135 1 12.5088 5.50167 21.5116
1634 3 12.7756 7.43932 19.6837
2131 3 14.2794 5.40041 19.6697
2635 1 14.288 3.74972 21.3864
3630 3 12.4957 3.58227 19.8475
826 3 18.1254 7.17068 21.5255
1630 1 16.148 3.56505 19.5147
2316 3 17.9213 5.52621 19.6254
2507 3 17.8868 3.62318 21.2968
3134 3 16.2387 5.39676 21.3833
3635 1 15.9767 6.90005 19.5784
68 1 0.0121463 9.0087 19.6108
1137 3 1.55419 9.13932 21.4307
1631 1 1.85549 10.8669 19.6526
2637 2 0.0330014 10.7657 21.4746
514 2 3.72253 10.8095 21.5791
69 1 7.11223 8.99083 19.5161
2132 3 3.73185 9.15723 19.8479
2643 2 7.23725 10.9224 21.5978
3136 3 5.42235 9.04445 21.5461
3632 2 5.52768 10.6951 19.4748
518 2 10.9512 10.6798 21.4823
1139 2 8.80284 8.93928 21.3778
1633 2 9.13544 10.6476 19.7505
2133 3 10.7671 9.003 19.5813
70 2 14.4833 8.97976 19.5091
2645 1 14.4111 10.719 21.4963
3138 3 12.7155 9.07624 21.4405
3634 1 12.5372 11.1283 19.5419
318 1 18.0066 8.86067 19.5138
1141 3 16.1602 8.9102 21.2028
1635 3 16.1042 10.7732 19.7341
2514 3 17.9769 10.638 21.3243
521 2 -0.0231871 14.4133 21.5571
2134 3 0.0841971 12.6657 19.7671
3140 1 1.91562 12.5197 21.4659
3636 3 1.91169 14.4466 19.5356
524 1 7.19141 14.3579 21.5516
71 3 3.69882 12.7102 19.6984
1143 2 5.41054 12.6275 21.4586
1636 1 5.4763 14.1839 19.5257
2135 3 7.25409 12.6008 19.7091
2647 3 3.51836 14.2344 21.5118
72 1 10.5505 12.5743 19.8689
2649 2 10.8694 14.5342 21.5569
3142 3 9.14064 12.3883 21.648
3637 3 9.09089 14.27 19.5931
525 1 14.3247 14.3589 21.5986
1145 2 12.6993 12.5064 21.5383
1637 1 12.6506 14.2456 19.6207
2136 2 14.5268 12.6046 19.5923
835 2 17.8243 14.2553 21.477
2321 1 17.8882 12.5356 19.7299
3144 1 16.2014 12.4257 21.5648
3638 3 16.0865 14.2393 19.737
690 3 0.0682478 17.8932 21.5124
73 1 -0.00621468 16.188 19.6259
1147 3 1.91755 16.148 21.4343
3751 3 1.77141 17.8932 19.6408
695 3 7.36404 17.8166 21.4897
74 1 7.20565 16.0937 19.5874
1502 1 5.63935 17.8597 19.6228
2137 3 3.81682 16.1905 19.7972
2754 1 3.86787 17.7142 21.3741
3146 2 5.50062 15.8489 21.4779
1149 2 9.11432 15.9811 21.4284
2138 1 10.7317 15.9669 19.4609
2757 3 10.7141 17.8692 21.4592
3753 1 8.81964 17.8635 19.5452
698 3 14.4092 17.9188 21.5877
75 1 14.3185 15.9201 19.6253
1504 2 12.5066 17.8197 19.7181
3148 3 12.642 16.2216 21.4766
941 1 17.8123 17.8978 21.4554
323 2 17.8846 16.1005 19.8124
1151 2 16.0143 16.0307 21.5213
3755 1 16.3141 17.8116 19.6271
1638 2 1.83522 0.0959088 23.2552
2139 3 0.107498 1.93698 23.3133
2651 3 0.0362159 0.0745281 24.8778
3150 1 1.85395 1.83052 24.8815
526 3 7.20694 0.127139 24.9112
77 1 5.46749 1.94573 24.9691
76 2 3.72872 1.90772 23.0838
2140 3 7.08206 1.94273 23.2304
3640 3 3.67121 0.198283 25.0432
3639 3 5.36457 -0.11423 23.4322
78 2 10.6553 1.99096 23.2486
1152 1 8.97887 1.93484 24.9124
1640 2 10.608 0.158913 25.0045
1639 1 9.16248 0.113156 23.1716
2142 1 14.4712 2.00284 23.1671
2141 2 12.3883 1.7294 24.9045
2652 1 14.2384 -0.0132408 24.9104
3641 3 12.4263 0.171235 23.1778
1641 3 15.939 0.0411916 23.2775
2326 3 17.698 2.00149 22.997
2526 2 17.8347 0.283253 24.7882
3151 2 16.0747 1.91912 24.9086
528 1 0.0876066 7.16428 25.0086
80 2 1.84872 5.37448 24.9979
79 3 -0.00115065 5.41789 23.1999
1645 1 1.77115 7.18936 23.2051
3643 1 0.0603426 3.67565 25.0583
3642 2 1.85746 3.6256 23.2237
527 3 3.76178 3.42157 25.0728
81 1 7.16182 5.52842 23.1241
1153 2 5.29378 5.41655 24.8764
1648 1 3.5661 7.06456 24.811
1643 3 7.25379 3.77645 24.89
1642 2 5.32648 3.76449 23.2666
2143 3 3.48128 5.45187 23.1407
2655 2 7.16373 7.07218 24.9694
3648 2 5.35147 7.11915 23.2979
1649 2 8.9383 7.23377 23.3025
2145 2 8.95284 5.64769 24.9439
2144 1 10.884 5.47877 23.3044
2653 2 10.9141 3.63564 24.9626
3650 1 10.7402 7.29193 24.9744
3644 2 9.03579 3.87623 23.2686
530 1 14.24 7.10457 25.122
82 2 14.4015 5.55805 23.3647
1644 2 12.5521 3.6618 23.211
3152 2 12.5623 5.5552 25.1295
3652 2 12.4479 7.21738 23.3301
3646 3 14.2508 3.56373 25.1372
841 3 17.8585 7.18811 24.9368
329 3 17.9525 5.54929 23.1366
83 2 15.9913 5.427 25.074
1651 1 16.1219 7.05829 23.2939
3893 1 17.9108 3.63046 24.9095
3645 1 16.1379 3.7503 23.3957
1154 1 1.91604 8.99007 25.0989
1646 3 0.114565 10.7895 25.0037
2146 1 -0.0768406 8.987 22.9699
3647 2 1.75743 10.7456 23.2498
84 1 3.6011 8.94692 23.1261
1647 2 5.45872 10.8337 23.3565
2148 1 7.15998 8.97037 23.256
2147 1 5.38226 9.03249 24.7845
2654 2 3.64299 10.9566 25.0062
3651 2 7.31207 11.0012 24.7735
529 1 10.8311 10.7835 24.9932
85 1 10.8217 9.14707 23.4538
3153 1 8.69023 9.03592 25.1006
3649 3 9.03492 10.7612 23.1686
86 2 12.8458 8.86802 24.899
1652 1 14.2969 10.752 25.1924
1650 1 12.621 10.6363 23.248
2149 3 14.4457 8.83588 23.2712
1155 1 16.085 9.16816 24.8821
1835 1 17.8723 10.9012 24.852
2333 3 17.8795 8.82671 23.1805
3653 1 16.2247 10.5921 23.0223
87 3 0.0487623 12.4645 23.1987
1653 2 1.82285 14.3341 23.1637
2150 1 1.82857 12.6856 25.1236
2656 3 0.0531292 14.2619 24.8229
531 1 7.28524 14.2535 24.8199
88 2 7.20716 12.595 23.1002
2151 2 3.89707 12.6259 23.2481
3154 2 5.60293 12.6558 25.003
3655 1 3.7618 14.3943 24.7917
3654 2 5.57973 14.327 23.2883
89 2 9.164 12.5071 24.8902
1655 1 10.7737 14.3682 24.911
1654 2 9.16326 14.4051 23.1878
2152 1 11.0102 12.6358 23.0203
90 2 14.3452 12.4646 23.3787
1156 3 12.5575 12.5801 24.8751
2657 2 14.3723 14.4649 25.1363
3656 1 12.6963 14.3266 23.375
337 2 18.0675 12.5895 23.3579
1656 1 15.9525 14.182 23.388
2153 1 16.1269 12.5354 25.1707
2531 1 18.278 14.3782 25.1395
1513 1 1.97255 17.8175 23.2496
2154 1 0.187908 16.1966 23.2112
2776 3 0.17271 17.8455 24.867
3155 2 1.78173 16.0324 24.9959
715 2 7.28245 17.643 24.9066
92 1 5.45066 16.0911 25.0721
91 2 3.63389 16.2089 23.3171
2155 1 7.16978 16.1444 22.9694
3767 1 3.56443 17.7051 25.018
3766 2 5.47193 17.7609 23.033
93 2 10.956 16.0575 23.2352
1157 3 8.92776 15.9387 24.9914
1515 2 9.11204 17.6085 23.2011
1516 1 10.9423 17.8504 25.1284
2157 3 14.3539 15.9347 23.3433
2156 2 12.5542 16.0787 25.1568
2778 2 14.3789 18.0387 25.1304
3769 1 12.6754 17.6838 23.3534
1519 1 16.3806 17.8045 23.4229
2341 2 17.8283 15.9442 23.2445
2963 1 17.7919 17.8135 25.1616
3156 2 16.2355 16.1361 25.2808
532 3 0.187318 0.192672 28.5409
94 2 0.14858 1.72382 26.6681
1158 3 1.78002 2.05384 28.4186
3657 3 1.95562 0.0685472 26.7748
533 3 5.42978 0.166179 26.8859
534 2 7.18985 0.0572524 28.5573
1159 1 3.81255 1.84389 26.8997
2159 2 7.16362 1.78361 26.6526
2658 2 3.48604 0.180896 28.6389
3157 3 5.54255 1.85285 28.4261
1160 3 8.9836 1.87743 28.6535
1658 1 9.07679 0.0887441 26.9527
2659 2 10.7639 0.206837 28.7891
3158 3 10.7094 1.97241 26.8091
535 1 14.3248 0.120232 28.4078
97 3 14.1909 1.79693 26.7237
2660 2 12.531 -0.0107355 26.9061
3159 2 12.5439 1.87856 28.482
845 1 17.7481 0.20788 28.5366
344 2 17.7912 1.98497 26.9266
1161 3 16.0567 1.86188 28.6057
3660 3 16.1284 0.212214 26.7365
536 2 2.01035 3.59196 26.659
540 1 0.289733 7.47352 28.36
1162 2 0.051883 5.25944 26.7825
1664 2 1.96642 7.10871 26.634
2661 2 0.00835763 3.64113 28.5886
3160 2 1.81414 5.33211 28.3443
537 1 3.69501 3.5681 28.5066
543 1 7.07763 7.09877 28.3971
1163 2 5.44967 5.48799 28.5075
1661 2 5.45123 3.63544 26.9197
2162 1 3.59001 5.23133 26.6085
2668 1 3.62648 7.35209 28.4586
2667 1 5.21878 7.00841 26.6333
2663 1 7.17376 3.71132 28.603
3161 1 7.30021 5.35626 26.7684
538 1 10.6362 3.67211 28.5772
99 1 10.6187 5.544 26.8259
2669 2 10.6747 7.15732 28.5746
2662 2 9.09686 3.70904 26.5939
3162 3 8.91752 5.34502 28.5368
3668 2 8.88867 7.13665 26.8994
545 2 12.588 7.16394 26.7922
546 1 14.3941 7.03604 28.4109
1165 2 14.4084 5.40727 26.8018
1164 3 12.3555 5.33984 28.4168
2664 1 14.1283 3.80695 28.5312
3663 2 12.3684 3.69989 26.7372
853 2 17.9187 7.16998 28.6265
539 2 15.9978 3.59244 26.934
1349 2 17.7713 5.51813 26.8476
1670 2 16.1718 7.28553 26.7777
2536 1 17.7505 3.62302 28.5203
3163 2 16.0821 5.40642 28.581
1166 2 1.99317 9.14272 28.3695
2165 2 0.0340043 9.03004 26.7459
2666 3 -0.0404616 10.8908 28.5392
2665 2 1.87538 10.8585 26.597
541 2 3.85961 10.9264 28.5444