ITEM: TIMESTEP
5000
ITEM: NUMBER OF ATOMS
4000
ITEM: BOX BOUNDS pp pp pp
1.5427471475991084e-01 3.5579785285240177e+01
1.5427471475991084e-01 3.5579785285240177e+01
1.5427471475991084e-01 3.5579785285240177e+01
ITEM: ATOMS id type x y z
1 3 0.102542 1.85716 1.97859
1563 1 0.0752871 0.157484 0.246479
2064 2 1.97396 1.82464 0.169959
3561 3 1.84492 0.227177 1.98723
564 3 3.54867 2.03071 1.96356
565 3 7.1649 1.78716 1.9097
1565 3 7.14171 0.256561 0.140532
2065 1 3.55765 0.0533865 0.269803
3061 1 5.47325 1.99945 0.234841
3562 2 5.34213 0.106438 1.91223
566 1 10.8852 1.94988 1.93065
1070 1 10.7173 0.0658946 0.273532
3063 1 9.04122 0.136418 1.93712
3062 2 8.9461 1.90785 0.222022
567 1 14.3891 1.82441 2.00529
2566 3 14.432 -0.00751873 0.111966
3064 3 12.5693 1.87284 0.128028
3563 1 12.5636 0.182046 1.85483
2 2 17.7645 0.232214 0.10871
3 1 16.2363 0.107958 1.9257
3066 1 17.7984 2.07182 1.80023
3065 1 16.1769 2.06831 0.166932
4 1 1.79201 5.45749 0.254589
5 1 1.832 3.74471 2.02773
6 2 2.06012 7.34195 2.07883
1071 2 0.0861737 5.53222 1.90548
3067 2 0.0992104 3.53895 0.30516
3565 3 0.15586 7.28 0.0867091
7 3 5.44638 5.45057 0.32235
8 2 3.626 7.22717 0.206616
1072 1 7.25875 5.44154 1.9868
1075 2 5.49773 7.24793 1.91295
1074 3 3.60183 5.49215 1.76991
1567 2 7.30063 7.22546 0.176637
2570 2 7.27378 3.80608 0.329601
2569 1 3.71615 3.64709 0.0608312
3569 3 5.42384 3.68864 2.00861
9 2 9.10012 5.47621 0.0475475
10 3 8.91451 3.67354 2.00615
1077 3 10.8231 7.2108 0.153971
1076 2 10.7446 5.4554 2.0219
1568 2 9.04296 7.26409 1.9848
3068 1 10.7092 3.57119 -0.0976354
11 2 12.5164 5.57682 0.143447
12 3 14.2662 3.67595 0.075587
570 1 12.5444 3.78385 1.84794
1571 2 14.3768 7.41013 0.155464
1570 2 14.3807 5.64909 1.89848
1569 2 12.4236 7.42278 1.89022
572 1 15.9438 3.76448 1.91433
1081 1 15.9768 7.28904 1.82565
1079 2 17.7576 5.51144 1.97835
1078 2 16.1033 5.58599 0.210104
1573 1 17.9355 3.89634 0.113805
2070 3 17.8816 7.22762 0.229286
575 1 1.87284 10.8163 1.8452
1082 3 1.94182 8.93418 0.269556
1574 3 0.212026 8.94629 1.91437
3070 2 0.204795 10.633 0.109877
576 2 3.61277 10.5912 0.173728
1085 2 5.49268 9.02758 0.0574591
1083 3 5.50909 10.823 1.87964
1577 1 7.26494 10.8412 -0.00291113
1576 2 7.08916 9.06351 1.92072
1575 3 3.71146 9.21345 1.9394
14 3 10.7219 10.9371 0.0210701
1087 3 8.96033 10.874 1.86193
1086 2 9.04565 9.00205 0.196581
2071 1 10.6732 9.03507 1.88648
580 1 12.3728 10.7999 1.83866
1088 2 14.3914 10.899 0.175533
2073 1 12.6223 9.05215 -0.0651045
2074 3 14.164 9.1014 1.99956
15 3 17.8065 9.10715 1.95373
1581 1 16.1793 10.8155 1.88046
2076 2 17.9119 10.8876 0.250073
2075 2 16.0897 9.15136 0.229476
2079 1 2.04768 12.4743 0.0976416
2078 2 1.88874 14.3328 1.75466
2077 2 0.199285 12.4164 1.78763
2572 3 0.193074 14.2248 0.191481
2082 1 5.36932 14.3057 1.8794
2081 2 3.61791 12.537 1.90075
2080 1 5.38828 12.584 0.217041
2576 1 7.23026 14.3729 0.163075
2575 3 7.24336 12.6423 1.96881
3071 2 3.52075 14.3286 0.183908
1583 3 9.00693 14.3633 1.88182
2084 1 10.9182 14.3733 0.217081
2579 1 10.8865 12.6293 1.88555
3073 1 9.01565 12.6317 0.0251398
2085 2 12.5525 14.308 1.99473
2580 1 14.0744 12.6408 1.97792
3074 2 12.5331 12.6544 0.11566
3574 3 14.25 14.3417 0.108912
581 2 17.8208 12.5214 2.08971
1089 1 17.7854 14.4786 0.382468
2583 3 15.9611 14.2798 2.0076
3075 2 16.1455 12.5952 0.133949
16 1 0.0841401 17.9471 0.210962
2086 1 1.88614 17.7693 1.83005
2584 1 0.145274 16.0953 1.93542
3076 2 1.81691 16.1873 0.0503909
17 2 5.40495 15.9321 0.136839
1090 2 3.62981 17.8754 0.158943
2585 1 7.25325 17.9344 0.0918687
3079 1 5.3313 17.754 1.80918
3078 2 7.20225 16.1124 1.85343
3077 1 3.55598 16.0085 1.83301
18 2 8.94152 16.124 0.105375
1585 1 10.7685 17.9279 0.075691
3080 3 10.7413 16.171 1.87728
3578 2 8.74616 17.8189 1.89603
19 3 12.6846 16.0883 0.121729
2088 1 14.3546 17.9364 0.265608
3081 3 14.2681 16.0458 1.99038
3581 3 12.5204 17.8879 1.91079
20 1 15.9731 16.1313 0.106252
1586 1 17.8966 16.0706 2.07089
3083 1 16.1401 17.7916 1.85547
3082 1 18.0479 17.7881 0.184864
584 3 1.96464 1.88548 7.11824
1564 2 0.0762445 0.233932 3.93998
2588 3 1.85617 0.0387332 5.41005
2563 3 1.86728 1.9838 3.80576
3084 2 0.137164 0.165509 7.44498
3583 1 0.237286 1.99365 5.46809
22 1 5.48792 1.81559 7.23961
1069 2 3.66138 0.133507 3.73028
1566 1 7.01921 0.161656 3.70653
2089 2 5.44592 0.259795 5.40488
2590 3 3.71246 0.127434 7.17181
2564 1 5.37191 1.8899 3.50999
3085 1 7.13567 0.126725 7.06892
3585 1 3.6515 1.96477 5.34561
3584 1 7.13071 1.97187 5.39758
586 1 9.10573 1.81099 7.371
2066 3 10.8151 0.118615 3.77772
2593 2 8.94448 0.15023 5.42675
2565 3 9.03455 1.93078 3.74426
3086 3 10.829 0.139118 7.24686
3586 3 10.8504 1.96715 5.50972
23 1 12.7413 1.79534 7.2497
24 2 14.4835 0.0284128 7.23133
25 3 14.415 1.86129 5.47399
2568 1 14.1303 0.0811729 3.77266
2567 1 12.5866 1.93585 3.72663
3087 2 12.5448 0.0903177 5.59774
568 1 17.9556 0.124925 3.70107
588 1 16.0687 1.88453 7.28978
1587 2 17.8076 0.22037 7.31603
3088 1 16.0769 0.139715 5.41295
3588 2 17.8272 2.01089 5.51803
3564 3 16.018 1.8161 3.66347
27 2 1.90293 5.4466 7.23341
28 1 1.91364 7.25815 5.55502
589 2 0.201588 5.45523 5.47272
2067 3 0.165569 3.85344 3.5791
3090 1 1.98362 3.82093 5.39376
3590 3 0.207674 7.2403 7.27198
3589 2 0.20422 3.63877 7.08907
3567 2 0.176775 7.3051 3.7102
3566 2 1.85349 5.52989 3.57518
29 3 3.69423 3.66323 7.27037
593 2 3.63376 7.23637 7.32991
592 3 7.21392 5.40038 5.48397
591 3 7.09335 7.19245 7.33369
590 1 3.6709 5.51291 5.55362
1095 2 5.39574 5.33957 7.15493
1094 3 5.43433 7.13908 5.37589
1073 1 3.77931 7.25642 3.63102
2068 1 7.26984 7.24989 3.70943
2069 3 3.63249 3.92137 3.59637
3593 1 5.39995 3.73023 5.42468
3592 2 7.2046 3.55473 7.23888
3570 1 5.5457 5.53456 3.49525
3568 2 7.12724 3.54963 3.63099
31 3 9.09498 3.73353 5.49071
569 1 10.6392 7.31025 3.63541
594 1 10.8444 5.46569 5.634
1097 2 9.04912 5.30209 7.39381
1590 3 9.02748 7.10246 5.6952
1589 1 10.7785 7.25115 7.29633
3594 1 10.8389 3.60636 7.44318
3572 3 10.8789 3.64442 3.81289
3571 3 8.82591 5.43239 3.73449
33 3 12.6336 3.68139 5.6204
35 1 14.4206 3.70047 7.25782
571 2 12.5617 5.528 3.58531
595 3 14.339 7.19011 7.22083
1100 1 14.3757 5.5821 5.40086
1099 1 12.5628 5.56855 7.29587
1592 3 12.5495 7.29022 5.50101
1572 3 14.1293 7.25513 3.65003
3069 2 14.3339 3.76257 3.79831
573 2 16.0889 5.39255 3.74514
1080 3 17.9099 3.70211 3.60457
1595 3 15.9639 7.45414 5.40142
1594 3 16.0318 5.35039 7.28538
2094 3 17.8867 7.17405 7.10031
2092 3 17.9092 3.73276 7.25157
2571 2 17.7406 7.28063 3.68937
3092 3 17.7944 5.35029 5.57723
3595 1 16.203 3.6394 5.53164
13 2 0.199584 10.7922 3.74476
597 2 0.0481803 10.6444 7.35286
596 2 1.84967 10.8329 5.51883
574 1 1.97079 9.06847 3.73262
1102 3 1.96919 9.02269 7.32554
1101 2 0.177671 8.96826 5.52502
38 3 3.70893 10.7405 7.22194
578 1 3.65425 10.8817 3.84038
577 3 5.50999 8.97972 3.74468
1106 1 7.22611 10.8174 7.17477
1104 2 5.4183 10.7955 5.37739
1103 2 3.58137 9.03138 5.5352
1084 2 7.30701 10.7035 3.56875
1597 3 7.12995 8.91736 5.46711
1596 1 5.48623 8.99401 7.27848
39 1 10.7568 10.5805 7.21584
599 2 8.89082 10.7848 5.45928
579 1 10.71 10.7222 3.80974
1107 3 8.81592 8.96848 7.36467
1578 1 8.95374 8.90687 3.66822
2097 1 10.706 8.99749 5.47002
1108 3 12.4082 10.8504 5.52943
1598 1 12.5562 9.02113 7.32391
1579 1 12.4938 9.0604 3.62938
2072 2 14.2751 10.7926 3.75996
2099 3 14.3456 10.7932 7.23149
2098 1 14.2655 9.09842 5.46496
1599 2 16.0734 9.12356 7.1418
1580 3 15.9742 8.97926 3.71869
2100 2 15.9297 10.8792 5.4092
3093 3 17.9387 10.7467 7.08836
3597 2 17.8738 8.94952 5.47797
3573 2 17.5922 10.8273 3.89495
1110 3 0.0951201 14.3235 7.15152
1582 2 1.77776 12.5042 3.80191
2103 1 1.67047 12.464 7.29337
2102 3 1.88153 14.307 5.61869
2101 1 0.0357857 12.4323 5.50506
2573 3 0.22189 14.354 3.54118
1112 2 7.26805 14.3004 7.17739
1600 2 5.51127 12.5606 7.19985
2104 2 5.28067 14.3941 5.48295
2083 3 3.56682 14.3213 3.75255
2601 2 7.25971 12.531 5.42137
2600 1 3.64542 12.5653 5.47705
2599 1 3.66687 14.302 7.43617
2577 2 7.12677 14.5075 3.70078
2574 2 5.47813 12.5875 3.72125
2604 2 8.99282 14.5507 5.35289
2603 1 10.7499 14.4797 7.20166
2602 1 10.7519 12.6997 5.55352
2578 3 9.0241 12.7567 3.73065
3097 1 8.95097 12.5946 7.21708
3072 1 10.7866 14.3686 3.69633
602 2 14.393 14.2623 7.1151
1603 1 12.5697 12.6457 7.21366
2605 1 14.1994 12.4686 5.38903
2581 3 12.5259 12.5548 3.72991
3098 1 12.4934 14.3981 5.37456
3575 1 14.1504 14.3911 3.84976
1114 2 17.8319 12.6964 5.45707
1584 2 17.7785 14.4225 3.66364
2582 2 16.011 12.5028 3.70615
3100 2 16.0018 14.4677 5.37422
3099 1 16.0928 12.6831 7.20608
3599 2 17.9638 14.314 7.15073
582 2 0.117507 17.8343 3.82684
1605 2 1.84084 17.8385 5.46148
1604 1 1.6507 16.0528 7.2265
3104 2 0.0219039 15.9706 5.40959
3103 1 0.07743 17.886 7.1931
3576 2 1.80907 16.0785 3.53243
2087 3 3.59744 17.765 3.54816
2607 3 5.25046 17.8503 5.46815
2586 1 7.08896 17.8401 3.69151
3107 1 7.27549 17.8545 7.09414
3106 1 5.39849 16.2893 7.19712
3105 1 3.61875 17.7414 7.34717
3602 3 3.55887 16.0199 5.55151
3601 2 7.22369 16.1867 5.54855
3577 3 5.3751 16.0521 3.75506
1091 2 10.82 17.7924 3.67351
2107 2 8.99834 16.1791 7.1662
2608 3 9.00782 17.8564 5.43686
3109 1 10.9149 18.0082 7.06246
3603 2 10.8499 16.1463 5.43458
3579 1 8.9548 16.1209 3.62534
41 3 14.2721 16.2147 5.47914
2610 1 12.5659 18.1025 5.32405
2609 1 14.4535 17.6904 7.34878
2587 2 14.3717 17.9097 3.74529
3604 2 12.5068 16.0564 7.30847
3580 1 12.5243 16.2011 3.69858
583 2 16.0616 16.1215 3.83282
1606 3 17.8891 17.8829 7.2972
2109 1 16.1322 16.1082 7.1602
3112 2 16.0337 17.8873 5.5596
3110 2 17.8531 16.1908 5.5444
3582 1 17.8083 17.8834 3.71608
21 3 0.264204 1.96704 9.08096
604 3 0.0632332 0.0205262 10.652
2110 1 1.95252 1.77837 10.9016
2589 2 2.0255 0.169166 9.06467
585 3 7.33307 1.78296 8.99881
1092 3 5.44217 0.0889194 9.07466
1608 2 7.29644 0.203573 10.7293
1607 3 3.80158 0.118948 10.6708
2111 3 5.51048 1.86668 10.8567
2591 1 3.58447 1.97448 9.08432
1116 3 10.8108 0.15489 10.8295
2612 1 9.01951 1.89641 10.8733
2592 1 10.9521 1.81502 9.05536
3587 1 9.08835 0.00588354 9.02436
587 3 14.3251 1.69722 8.99374
1609 2 14.258 0.179394 10.7728
2090 3 12.4845 0.0746375 9.03564
2613 2 12.4997 1.89202 10.7701
26 2 16.2052 0.172499 9.05834
2594 3 17.8436 2.05177 8.92615
3116 3 16.0065 1.97603 10.7903
3115 1 17.9793 0.163186 10.9174
1093 1 1.99394 7.17074 9.1305
2091 3 1.84105 3.78411 8.89872
2615 2 0.0651547 3.67946 10.8536
3118 2 0.223825 7.14316 10.7791
3117 3 1.92298 5.39604 10.7723
3089 3 0.0836685 5.56139 8.89816
30 3 5.50429 3.56512 8.87843
45 3 7.29533 7.14307 10.8028
1096 2 3.71019 5.4409 8.99799
2112 3 7.13498 3.78284 10.8379
2616 3 3.80391 3.67538 10.6341
3091 3 7.27764 5.3372 8.99208
3608 2 3.83669 7.08751 10.7406
3607 2 5.42914 5.39999 10.9052
3591 2 5.46317 7.12811 8.99012
46 2 10.9092 7.18565 10.8222
1098 3 10.6934 5.38356 9.06875
1591 2 9.05649 3.49798 9.02251
1588 3 9.02408 7.30254 8.96034
2113 1 10.799 3.67239 10.8332
3609 2 9.1182 5.46066 10.7064
32 3 12.4661 7.26948 9.07639
34 2 12.5671 3.71358 9.11124
36 3 14.3456 5.48005 8.90025
609 2 14.4429 7.24045 10.8947
3119 3 14.3635 3.82128 10.7594
3611 2 12.5985 5.49251 10.7229
1120 1 17.9037 3.66123 10.8303
1615 2 17.9379 7.26667 10.7888
1593 1 18.0025 5.47368 8.93923
2093 2 16.1149 7.2035 8.97315
2595 1 16.0701 3.62603 9.05447
3612 1 16.1218 5.60885 10.8296
48 2 1.81571 8.86055 10.7946
2095 3 0.196573 9.07388 9.13382
2596 3 1.95097 10.6714 9.06505
3120 3 0.223056 10.8011 10.9199
37 3 3.76882 8.9319 9.23031
49 2 5.49006 9.09213 10.8577
612 2 7.24914 10.7812 10.7804
1105 1 5.36154 10.7584 9.18425
2096 2 7.20745 8.8886 9.17763
3121 2 3.64845 10.7076 10.9058
613 3 8.98185 8.97059 10.7689
598 2 10.8445 9.02842 9.24753
3613 2 10.7588 10.8831 10.8435
3596 3 9.05577 10.6765 8.99708
50 3 14.3167 10.8439 10.6846
614 1 12.5496 9.01487 10.809
2598 3 12.5627 10.8665 9.01743
2597 2 14.2947 9.06156 8.93235
51 1 17.8752 10.9607 10.6529
600 3 17.9258 9.01093 8.99012
1122 3 16.1392 8.98893 10.7083
1109 1 16.1659 10.8403 8.96987
616 3 0.248092 14.2928 10.7444
601 1 0.103544 12.4273 8.98961
1123 2 2.0279 12.4714 10.9052
3094 3 1.85908 14.4392 9.04656
1124 1 5.4503 12.4965 10.8193
1111 1 5.52361 14.2548 8.96469
1619 1 7.42883 14.1723 10.8214
1618 3 3.62534 14.3846 10.7672
1601 1 7.19032 12.5071 8.95841
3095 3 3.66589 12.6149 9.12101
617 1 10.7463 14.4049 10.7099
1125 1 9.00257 12.3894 10.7835
3096 1 9.09605 14.3469 8.88941
3598 2 10.5587 12.5105 8.96952
1126 3 14.3169 14.4056 10.8952
1113 2 12.4013 14.3019 8.97756
1620 3 12.5716 12.6471 10.7553
1602 2 14.3524 12.7466 8.93462
1621 3 15.9529 12.7356 10.8613
3126 2 17.7694 14.2617 10.8113
3102 2 16.2381 14.3792 8.9513
3101 2 18.0068 12.6303 8.828
1623 3 0.0911957 17.8822 10.9043
2119 1 1.94495 16.2034 10.8298
2606 3 1.98913 17.7721 8.97772
3600 2 0.111245 16.155 9.01385
40 3 7.26227 16.1325 8.95025
619 1 3.73872 17.8681 10.8442
1127 2 7.21072 17.9639 10.6504
2120 3 5.44993 16.0852 10.6484
2106 1 3.76596 15.9914 9.04871
2105 2 5.42859 17.9382 9.13442
1624 3 10.8024 17.8498 10.7628
2108 3 10.7449 16.2231 9.02502
2625 3 8.90162 16.1389 10.9174
3108 3 8.96256 17.8112 9.01086
603 2 14.2442 15.995 8.98836
1115 3 12.6045 17.9545 8.97136
2626 1 12.538 16.1551 10.7723
3620 1 14.306 17.8269 10.7239
2628 2 16.1293 16.1517 10.8808
2611 2 17.9386 16.0919 9.08391
3127 3 17.8644 17.7619 10.8708
3111 2 16.0887 17.7825 9.08596
42 3 0.132042 1.75575 12.6093
2121 1 0.285615 0.0241404 14.4494
2629 2 1.9901 2.04249 14.3815
3113 2 1.99715 0.142452 12.6026
43 2 3.6928 1.85347 12.4536
605 1 7.31412 1.84976 12.665
1625 2 7.27338 0.157711 14.3533
2123 3 3.77296 0.100804 14.3035
3128 2 5.56691 1.89048 14.3958
3605 2 5.56272 0.109919 12.5269
606 1 10.8384 1.98807 12.4624
1627 1 10.8336 0.253617 14.4175
3129 2 9.16931 1.90832 14.2755
3606 1 8.97987 0.105125 12.6017
1117 1 14.2364 1.83114 12.6405
2632 2 14.0459 0.193329 14.3824
3131 2 12.5405 2.02173 14.4778
3114 3 12.5776 0.161475 12.4379
44 2 16.0673 0.146959 12.4432
501 3 17.7718 0.208858 14.2553
2614 3 17.8301 1.90296 12.5209
3132 2 15.9135 1.89148 14.2908
607 2 2.08848 3.66217 12.6724
1119 1 1.8482 7.18501 12.4268
1118 2 0.177724 5.38324 12.4388
2634 1 0.21432 7.14114 14.3838
2633 1 0.0874689 3.66949 14.3971
3624 3 1.95133 5.32263 14.3899
60 2 7.27706 7.24964 14.4698
608 2 5.43944 3.65025 12.5308
1612 3 7.29845 5.5289 12.684
1611 3 5.47785 7.35437 12.7685
1610 1 3.78065 5.31398 12.7174
2128 3 7.21271 3.77855 14.3601
2126 2 3.96985 3.64884 14.4853
3136 3 3.60558 7.22274 14.3456
3626 2 5.48997 5.50148 14.3442
1613 1 10.8571 5.51728 12.5097
2114 1 9.01872 7.20674 12.5652
3137 3 10.7682 3.74629 14.3029
3629 3 9.09826 5.46767 14.3394
3628 2 10.9736 7.25692 14.3761
3610 2 9.06268 3.7465 12.3977
610 2 12.4541 3.65588 12.6097
1614 2 14.4142 5.52583 12.4705
2617 2 12.5377 7.2589 12.4496
3138 3 14.3871 3.80294 14.3725
3631 1 14.3934 7.25912 14.2912
3630 1 12.5113 5.39662 14.3935
47 3 17.9023 5.5612 12.5995
65 3 16.2402 5.51809 14.1796
1138 2 17.8782 3.66501 14.3094
1121 3 16.0818 3.79606 12.4494
2618 2 16.1369 7.29963 12.5433
3140 2 17.984 7.41672 14.4176
67 3 1.91144 9.03584 14.399
611 3 1.95805 10.6041 12.6157
2115 3 0.176228 8.95158 12.7254
2636 1 0.0622638 10.8373 14.2413
69 2 7.26736 10.844 14.4064
70 2 5.47921 9.07703 14.3854
1616 1 5.48948 10.9599 12.5063
2116 1 3.79127 9.04481 12.572
2619 1 7.36862 9.10934 12.5258
3633 1 3.63349 10.7282 14.4062
71 2 9.03162 8.99521 14.3587
2117 3 9.06184 10.7301 12.509
2620 3 10.8823 9.00568 12.5361
3141 1 10.8535 10.7051 14.251
510 2 12.5519 9.0438 14.3873
1617 3 12.588 10.8607 12.6229
3122 1 14.3349 9.23415 12.7203
3635 1 14.3671 10.9041 14.3779
511 2 16.0757 8.97844 14.2863
615 1 17.8715 9.01504 12.5446
1639 2 17.9324 10.7835 14.4675
2118 1 16.27 10.8994 12.483
513 2 0.0636875 14.3054 14.4689
514 3 1.82188 12.5436 14.388
2621 2 0.230945 12.5794 12.5081
3123 3 1.84723 14.4243 12.6535
72 2 7.31119 14.2579 14.3101
515 3 5.37909 12.746 14.2761
516 2 3.60218 14.4279 14.4131
3125 3 7.26278 12.5634 12.5402
3124 1 3.55156 12.5659 12.6586
3614 2 5.44775 14.294 12.4171
73 3 10.7882 14.4048 14.1866
1145 1 9.07371 12.5324 14.286
3616 3 10.7839 12.5934 12.5175
3615 2 8.97954 14.3852 12.5001
1147 2 12.461 12.6018 14.3934
1146 3 14.3171 14.3519 14.4321
2622 1 12.5091 14.2973 12.4832
3617 1 14.2907 12.5642 12.6383
1149 2 16.2106 12.5308 14.2565
1622 1 17.9149 12.7577 12.6572
3146 2 17.9269 14.3802 14.5147
3618 3 16.0425 14.4527 12.6828
52 2 0.174244 16.0627 12.6012
518 1 0.0176201 17.9641 14.3496
1150 1 1.98886 15.9938 14.3325
2623 1 1.78658 17.9332 12.6647
53 3 3.73091 15.8689 12.5635
618 3 7.26195 15.9653 12.5444
1151 2 3.56602 17.828 14.2736
1642 1 5.45988 16.1111 14.3794
2142 2 7.35144 17.7927 14.4367
2624 3 5.52828 17.7647 12.6261
54 2 10.7615 16.1967 12.4784
1643 1 8.92031 16.1002 14.2848
2649 2 10.7359 17.8977 14.3441
3619 3 8.99285 17.8366 12.5773
55 1 12.6235 17.9092 12.5367
620 3 14.338 16.2292 12.5105
1646 2 12.5952 16.2109 14.3118
1644 2 14.4479 17.9631 14.3567
56 1 16.1966 17.8147 12.7199
1647 1 16.1078 16.0714 14.491
2627 3 17.8554 16.0657 12.6571
3644 2 17.9403 17.8107 14.3565
57 1 1.75321 0.146074 16.0686
621 2 0.176568 1.92379 16.0655
1128 2 0.182201 0.0352155 17.8969
2122 2 1.8475 1.91535 17.9299
58 1 5.47627 0.291905 16.0589
1132 2 7.34119 0.0752751 17.83
1131 2 7.3188 1.94582 16.0678
1130 2 3.75249 0.204194 17.863
1129 2 3.69116 1.85672 16.0933
2630 2 5.48964 1.96907 17.9554
1133 1 10.7673 1.93635 16.0457
1626 3 10.7042 0.134281 17.8776
2631 2 8.89636 1.96634 17.8104
3621 2 9.08826 0.140161 16.0189
59 1 12.6059 0.225279 16.1361
1134 2 14.4508 1.99884 16.1947
2124 2 14.4168 0.191257 17.9486
3130 2 12.575 2.00453 18.0693
502 1 15.9323 0.310492 16.0963
3133 1 16.1707 1.8582 17.8675
3623 1 17.9299 0.297679 17.8616
3622 3 17.8857 1.90166 15.9637
503 3 1.94716 3.59109 16.275
504 3 2.06122 7.21633 16.141
1628 1 0.199871 5.40382 16.301
2125 1 0.258255 3.57001 17.8818
3134 2 0.209852 7.12007 17.9299
3625 3 1.94037 5.56198 17.9199
61 1 5.49697 3.5789 16.0708
505 2 3.78637 7.26051 17.8151
1135 1 7.24679 7.22174 17.8243
1631 2 5.39346 7.2608 15.901
1630 2 3.68061 5.42303 16.0219
1629 3 7.23353 5.43077 16.1115
2127 1 3.71877 3.64074 17.9105
3135 2 7.24233 3.67326 17.8695
3627 1 5.38489 5.38953 17.8138
62 2 9.11143 5.51944 17.8907
63 1 10.9219 7.1485 17.8636
506 2 9.07492 3.70621 16.1218
1632 1 10.7025 5.51921 16.0737
2129 1 9.15977 7.30075 16.048
2635 3 10.7669 3.7523 17.8627
64 2 12.5557 5.4502 17.8986
1137 2 14.342 7.2483 17.8782
1136 1 12.6686 3.81499 16.1137
2131 3 14.4506 5.56011 16.1457
2130 1 12.6233 7.25471 15.9987
3139 3 14.4497 3.69285 17.9163
66 1 18.0194 5.54483 16.1521
507 2 16.1623 5.61492 18.0071
1140 1 17.8863 3.81316 17.9014
1139 2 16.1646 3.71517 16.0187
1634 3 17.921 7.25033 17.9489
1633 1 16.1587 7.04117 16.0671
508 3 1.93546 8.98204 17.7607
1141 1 1.83446 10.7916 16.1812
2132 3 0.128963 9.00659 16.0318
3632 3 0.176594 10.8025 17.8993
68 2 3.69225 10.8816 17.8403
509 2 7.18865 10.7096 17.8568
1142 1 5.39733 9.05878 17.7504
1635 2 5.44595 10.844 16.1375
2134 3 7.33513 9.0667 16.0745
2133 2 3.76224 9.10415 15.9545
1143 1 8.95471 9.02937 17.8217
1636 3 9.04512 10.7488 16.0733
2637 1 10.8888 8.97556 16.0974
3634 2 10.8862 10.8614 17.8833
1144 3 12.4811 10.8868 16.1509
1638 2 12.7208 9.06372 17.7624
1637 1 14.3107 10.7245 17.6873
2638 1 14.3528 9.14062 15.9011
512 1 17.923 9.0018 16.1425
1640 1 16.165 8.88027 17.8239
2135 3 16.2626 10.6829 16.2072
2639 2 17.9631 10.7481 17.9253
2137 1 0.215121 14.334 17.7734
2136 2 1.98366 12.6473 17.9462
2641 3 1.90581 14.3326 16.043
2640 2 0.120275 12.4796 16.159
2140 1 7.3678 14.3139 17.8778
2139 2 3.79396 14.1734 17.8559
2138 2 5.5911 12.444 18.0224
2643 1 5.56919 14.2912 16.1504
2642 1 3.75615 12.5683 16.0499
3142 1 7.38751 12.6091 16.0531
2141 3 9.04144 14.3162 15.9888
2645 1 9.07795 12.4933 17.9858
2644 3 10.7377 14.3452 17.8233
3143 1 10.7812 12.5598 16.0692
2647 2 12.6104 14.3511 16.2392
2646 3 12.6419 12.5471 17.8967
3145 3 14.4648 14.2705 17.7233
3144 3 14.4895 12.4762 16.1646
517 3 17.8439 14.2111 17.8714
1148 1 17.772 12.5414 16.1238
3148 2 16.1324 14.4166 16.0478
3147 3 16.1903 12.5156 18.0926
2648 2 1.80806 17.9385 16.1524
3150 1 2.05061 16.0793 17.761
3149 1 0.110848 16.1019 16.0917
3636 1 0.10772 17.8933 17.7663
1641 2 3.75603 17.8515 17.9178
2143 1 7.26144 17.8346 17.9071
3640 2 5.50786 17.8414 16.0435
3639 3 7.28086 16.2191 16.1709
3638 3 5.33527 16.1243 17.8271
3637 1 3.70951 16.2756 15.9866
74 2 8.95952 17.8385 16.0854
519 1 10.8628 18.0113 17.8913
3642 2 9.10975 16.1972 17.89
3641 1 10.8863 16.0273 16.0395
75 2 12.5504 16.1363 17.8541
76 1 12.5678 17.9304 16.1157
1645 1 14.3177 17.8692 17.8611
3643 2 14.3845 16.2444 16.108
77 3 16.1493 16.1524 17.7976
2144 2 17.9103 16.2466 16.1501
2650 2 17.8299 17.953 17.8188
3645 2 16.1806 18.0246 16.0256
520 3 0.218222 0.130261 21.4895
78 3 0.117475 1.78946 19.6581
2145 3 1.97865 1.88647 21.2528
3151 1 1.97697 0.0866244 19.693
521 3 3.75842 0.140558 21.4004
80 2 3.67432 1.95897 19.5707
79 3 7.34144 1.84834 19.6303
2147 3 5.44263 2.02184 21.17
2146 3 7.29602 0.0860819 21.3577
2651 2 5.46698 0.203016 19.7401
81 2 10.8276 1.99006 19.6427
1648 1 10.9091 0.0760041 21.3152
2652 3 8.97762 1.86029 21.5925
3152 2 9.03688 0.147838 19.8113
522 1 14.4753 1.9584 19.7311
1649 3 14.4659 0.0729797 21.4525
2653 3 12.6353 2.0397 21.3618
3646 2 12.6875 0.17932 19.6248
82 2 17.8795 0.243209 21.3737
2654 2 17.8006 1.98378 19.754
3153 3 16.0246 1.96135 21.4309
3647 3 16.0991 0.17349 19.731
523 3 0.281562 5.45716 19.6597
84 3 2.06795 7.2604 19.5267
83 1 0.128435 7.3613 21.3306
1650 2 0.230807 3.66613 21.3928
3155 3 1.9716 5.4654 21.4184
3154 2 2.00181 3.76462 19.6051
524 1 3.66505 5.41319 19.6338
525 3 7.23247 5.57933 19.6191
526 3 3.60922 7.18371 21.4745
1153 2 7.25031 7.15295 21.3
1152 1 5.40171 7.26507 19.6993
2655 3 3.73099 3.65479 21.2884
3156 1 7.20342 3.64984 21.4729
3649 2 5.52309 3.69082 19.5974
3648 3 5.50271 5.50099 21.5636
86 3 10.7979 7.20634 21.3054
85 3 9.03972 3.67645 19.5546
1155 1 10.7277 5.54125 19.6182
1154 2 9.01778 7.28364 19.4928
2656 3 10.7693 3.6366 21.3087
3650 1 8.91705 5.42367 21.346
527 3 12.6522 7.16007 19.5589
88 2 12.5458 5.44807 21.4179
87 2 12.7817 3.68083 19.5757
1156 2 14.466 5.60948 19.681
2148 2 14.3775 7.3239 21.4258
2657 2 14.4395 3.86693 21.5571
528 3 17.8129 3.7505 21.4807
89 1 16.069 5.52052 21.5662
1157 1 16.2548 7.34658 19.6246
3158 3 17.9485 5.53491 19.7205
3157 3 17.8802 7.25721 21.4196
3651 1 16.1042 3.73027 19.5985
529 1 1.86381 8.98501 21.3085
530 3 2.01303 10.805 19.4518
1158 2 0.183427 8.89462 19.5833
3652 3 0.249023 10.7193 21.3072
531 2 5.50257 9.09293 21.4455
532 2 5.52229 10.8177 19.612
533 3 7.25494 10.7598 21.4878
1159 1 3.78438 9.0171 19.5964
1651 1 7.0656 8.95163 19.7007
3653 2 3.7036 10.8729 21.2969
90 3 9.11276 10.7993 19.5915
1161 3 9.03598 8.9134 21.2351
1160 3 10.8428 10.78 21.2895
1652 3 10.7674 9.04146 19.5249
534 1 12.563 10.8699 19.5126
1162 3 12.5414 8.95181 21.3918
1654 1 14.3541 10.7175 21.2888
1653 1 14.2716 9.0365 19.6083
1656 3 16.0657 10.8303 19.7072
1655 2 16.2471 9.03639 21.5235
3159 1 17.9061 10.6156 21.5556
3654 1 17.9852 9.06172 19.6125
1660 2 0.133153 14.3505 21.3393
1659 3 1.97831 14.3678 19.6068
1658 2 1.95204 12.471 21.3062
1657 3 0.181781 12.5716 19.5787
1163 2 5.62593 14.3346 19.5021
1661 2 3.74536 14.2785 21.4406
2151 3 7.34095 12.4915 19.729
2150 3 5.43642 12.588 21.2588
2149 1 3.6677 12.5555 19.6068
3160 3 7.29708 14.3704 21.3447
1662 1 9.11103 14.2881 19.6895
2153 2 9.13614 12.613 21.457
2152 3 10.8851 12.51 19.5863
2658 3 10.8443 14.4012 21.3514
2155 1 14.1875 12.5346 19.64
2154 1 12.5988 14.3294 19.5698
2660 1 14.3173 14.4415 21.5116
2659 1 12.5766 12.5383 21.5598
535 2 17.9399 12.4351 19.8072
1164 1 17.8357 14.3089 21.4708
2156 3 16.1741 14.3409 19.5903
2661 1 16.0899 12.5694 21.4205
1165 2 0.150701 17.7437 21.3008
2157 3 1.96439 17.8803 19.5704
2662 2 0.276495 16.1662 19.4969
3161 3 1.89443 16.0923 21.2742
1664 2 7.15859 17.8768 21.4674
1663 3 3.69884 17.9203 21.394
2664 2 3.7924 16.0215 19.6996
2663 3 7.38403 16.1017 19.6581
3163 2 5.4489 16.0997 21.6034
3162 3 5.39489 17.8421 19.7224
536 3 10.7581 17.8297 21.5485
2665 2 10.7971 16.2032 19.5307
3164 1 8.95672 17.9445 19.8009
3655 1 9.06764 16.173 21.3699
2666 3 12.6518 17.9416 19.5783
3166 3 14.3168 16.0731 19.6081
3165 1 14.3014 17.9684 21.4454
3656 3 12.6203 16.2121 21.3774
92 3 16.1213 16.2143 21.4572
91 2 17.8355 17.9424 21.4093
1166 2 18.0138 16.0907 19.6934
3167 3 16.02 18.0159 19.561
93 1 1.90475 1.91204 24.9435
1665 2 1.91194 0.224527 23.2502
2667 2 0.234135 0.147567 24.9902
3168 3 0.163934 1.95634 23.1301
2158 3 5.45427 0.239584 22.9829
2670 2 3.77024 0.19526 24.9322
3170 3 7.18571 1.94535 23.1938
3169 2 3.62157 1.92304 23.1042
3659 2 7.33641 0.272562 24.8974
3658 3 5.4649 1.90441 24.8871
537 3 9.03674 2.04158 24.9401
2671 1 9.21229 0.211455 23.1784
3171 2 10.8148 0.0715903 24.9019
3660 2 10.8282 2.00576 23.3217
2673 3 12.5595 0.122131 23.0749
3663 2 14.434 1.92872 23.344
3662 2 14.341 0.171042 25.0004
3661 2 12.5126 1.76632 25.0343
539 3 16.1784 2.0212 24.9475
1167 2 18.0053 0.16329 24.9134
1668 3 18.0385 1.92847 23.0451
2160 3 16.1395 0.15649 23.214
99 1 1.89801 5.44751 25.012
98 3 1.85007 7.25086 23.1169
97 2 0.160666 7.2508 24.8887
96 2 0.106388 5.51176 23.1157
3173 3 2.00777 3.76516 23.067
3172 3 0.248254 3.68343 25.0607
540 3 3.5784 7.24194 25.0431
541 2 5.38107 7.39873 23.1996
542 2 7.29561 5.64181 23.1985
543 3 5.51599 5.4127 24.8415
101 2 7.27174 7.28789 24.8422
100 1 3.64338 5.52714 23.1349
2675 2 7.37577 3.73198 24.9427
3175 3 3.68144 3.69525 24.952
3665 3 5.56756 3.60383 23.3227
546 2 9.07009 7.2754 23.1348
547 3 9.05181 5.45108 24.8667
102 3 10.8891 5.49582 23.182
1170 3 10.8031 7.3073 24.8931
3177 2 10.7227 3.74741 24.904
3666 2 9.11274 3.72354 23.1634
548 1 14.2607 5.4657 23.1847
549 2 12.5536 5.56161 24.884
105 1 14.3521 3.74597 24.9039
1670 2 12.628 7.34427 23.2448
3179 2 12.5134 3.7631 23.1967
3667 2 14.4052 7.28914 24.7708
1172 3 16.131 5.48348 24.9523
1672 3 17.8721 3.68637 25.014
1671 2 16.1205 7.25946 23.1601
2678 3 17.804 7.35264 24.8506
2677 1 17.7919 5.52736 23.3984
3668 2 16.1929 3.62914 23.1792
550 3 0.169647 8.93528 23.1087
106 1 1.77181 10.7489 23.2896
1175 2 1.93651 8.99395 25.001
3669 2 -0.138275 10.8319 24.8996
108 3 5.48351 10.7367 23.0012
1180 1 7.29464 10.8168 24.9409
1178 2 7.2041 8.93627 23.147
1177 3 3.5251 9.00068 23.2179
1176 1 5.39911 9.03889 24.8335
3670 3 3.5654 10.8432 24.9067
551 3 10.8593 10.7867 24.946
552 3 9.03932 10.804 23.1775
1181 3 8.97011 8.93049 24.8996
1674 3 10.8672 9.10997 23.159
1182 2 12.4733 10.8935 23.2289
1676 2 12.6324 9.02304 25.0048
1675 2 14.2973 9.13422 23.1484
2163 3 14.2572 10.8206 24.9452
1183 1 16.1202 9.00775 24.9691
1677 1 16.0697 10.8053 23.2339
2165 1 17.9028 10.7238 25.0447
3671 2 17.8538 9.00873 23.1844
555 1 0.22345 14.2918 24.9376
1184 1 1.91941 14.3068 23.0765
1678 3 1.70211 12.5766 25.0105
2166 3 0.130237 12.554 23.1337
113 2 7.15438 14.2694 25.0328
1185 3 5.42172 12.425 24.8519
2170 1 5.49193 14.3136 23.158
2169 2 3.59737 12.577 23.2001
2168 2 3.75263 14.181 24.8145
2167 2 7.25381 12.59 23.125
1680 2 10.7926 14.1776 24.9348
2171 2 10.903 12.5887 23.1479
2682 3 9.02059 14.3758 23.2239
2681 1 8.96223 12.5902 24.9855
114 3 14.4206 14.3529 25.0808
1681 1 12.5428 12.4987 24.9894
2684 1 14.3819 12.5631 23.1667
2683 3 12.4901 14.4173 23.1718
557 2 17.7497 12.5093 23.3783
2173 3 16.1062 14.363 23.2099
2685 1 16.1417 12.6043 25.0496
3183 1 17.9324 14.3548 24.9451
1684 3 1.92875 16.1387 24.8767
1683 1 1.79388 17.9764 23.0411
2688 3 0.137188 15.9651 23.1105
2687 2 0.112666 17.9603 24.871
2175 2 7.13259 17.7753 24.8616
2174 2 5.4062 17.9203 23.2901
2689 3 3.68436 17.8324 24.9196
3187 1 5.35337 16.0702 24.7156
3186 1 7.24101 16.1084 23.2302
3185 1 3.59706 16.0584 23.1029
1687 3 8.89745 17.8222 23.1031
1686 3 8.87797 16.149 24.9229
2177 3 10.6972 17.7933 24.9386
3675 1 10.798 16.1381 23.1172
2178 2 14.219 18.0186 25.1062
2690 1 12.5896 17.8706 23.2461
3188 3 12.5971 16.0407 24.994
3676 3 14.3074 16.2019 23.2409
1187 2 17.8766 16.147 23.11
1186 3 17.9738 17.8199 24.9531
1689 1 16.0544 16.196 25.0189
3189 1 15.9698 17.9187 23.1544
1188 3 0.0184315 0.27581 28.5336
2180 3 1.96095 1.78473 28.4211
2668 2 2.00656 0.164431 26.7515
3657 2 0.143891 2.06243 26.7259
559 3 7.2421 0.177064 28.4264
94 2 7.2205 1.9819 26.7597
1189 1 3.80136 0.218338 28.4298
1666 2 5.43616 0.212751 26.6646
2181 3 5.68368 2.00829 28.5189
2669 1 3.88983 1.92521 26.8165
560 3 10.721 0.189056 28.5407
95 1 8.96304 0.151281 26.6082
2182 1 8.99794 2.01248 28.5061
2672 3 10.7031 1.85713 26.6653
538 1 14.4009 1.84763 26.6925
1667 3 12.5746 0.220575 26.7567
2184 3 12.4802 1.95523 28.5581
2183 2 14.4143 0.181466 28.492
2159 2 18.0123 1.86467 26.8176
3193 2 16.0747 2.00706 28.4309
3679 3 17.8959 0.192887 28.4463
3664 3 16.154 0.174615 26.6239
1168 2 1.99363 3.7251 26.6957
1669 3 1.86258 7.2065 26.69
2186 3 0.200632 7.26153 28.5633
2185 3 0.204637 3.69178 28.4711
2674 1 0.156848 5.41995 26.6868
3194 1 1.93207 5.49452 28.4271
544 1 3.9088 5.49041 26.7291
563 1 7.22265 7.22056 28.4373
1691 3 7.28204 3.84797 28.5202
1690 2 3.72667 3.79827 28.4047
2676 3 7.33836 5.54436 26.6664
3196 3 3.68053 7.34265 28.3217
3195 3 5.4496 5.44636 28.4489
3176 2 5.60182 3.7788 26.7671
3174 2 5.53018 7.2309 26.6585
545 3 10.8787 5.52903 26.737
1171 2 8.95643 3.81227 26.8547
1169 3 9.03665 7.21581 26.7179
2694 1 10.7043 3.63837 28.5836
3197 1 8.94715 5.44958 28.5105
3681 3 10.7543 7.23526 28.5524
104 1 12.5475 3.60134 26.6371
103 2 14.2505 5.57653 26.7383
2695 1 14.2681 3.62747 28.4105
3178 3 12.6455 7.27347 26.5968
3684 1 14.1903 7.37156 28.406
3683 3 12.543 5.41891 28.5079
622 2 17.8814 3.68162 28.4715
1004 2 17.8376 7.0632 28.4901
1174 3 16.1466 7.23574 26.6907
1173 1 17.8397 5.44981 26.6774
3180 3 16.1517 3.7366 26.7999
3685 1 16.0845 5.46586 28.5155
1673 3 0.144056 8.97716 26.6231
2161 1 1.76624 10.7988 26.5632
2696 3 0.289901 10.7665 28.5538
3687 3 1.97985 8.99736 28.4168
122 3 7.28484 10.7229 28.3314
107 1 3.62056 9.15828 26.6453
1179 1 5.3474 10.844 26.6821
2162 3 7.30269 9.15939 26.6002