ITEM: TIMESTEP
5000
ITEM: NUMBER OF ATOMS
4000
ITEM: BOX BOUNDS pp pp pp
8.5871871477607442e-03 3.5725472812852047e+01
8.5871871477607442e-03 3.5725472812852047e+01
8.5871871477607442e-03 3.5725472812852047e+01
ITEM: ATOMS id type x y z
563 2 -0.208504 -0.0652551 0.00887428
1064 3 1.68335 1.58414 0.0736919
1563 3 1.61035 0.00926542 1.78622
2064 3 0.175936 1.80169 1.86695
1 2 3.46293 1.52082 1.83894
565 2 6.99198 -0.0437539 0.0232551
2065 2 7.15641 1.54727 1.48739
2565 3 3.3086 -0.0716917 -0.138324
3064 2 5.10746 1.69272 -0.129484
3564 1 5.34157 0.0663294 1.97218
2 2 10.741 1.75948 1.64994
1066 2 9.14449 1.65963 0.0235653
1564 2 9.02465 -0.0989332 1.67305
2566 2 10.7426 -0.184679 -0.18974
567 1 14.3739 -0.178574 -0.255276
2066 3 14.2428 1.60102 1.77214
3066 2 12.2112 1.7599 -0.360527
3565 3 12.4141 0.101499 1.43554
751 2 18.0658 0.243339 0.0299423
1068 2 16.0305 1.63511 0.0418193
1565 2 16.1864 0.123342 1.85793
2001 2 17.7571 2.05723 1.59922
3 1 0.110409 5.2602 1.80624
573 2 0.0553422 7.07326 -0.239011
1568 1 1.62017 6.91112 1.764
2569 3 -0.0220363 3.51616 0.0597897
3068 2 1.73709 5.19767 0.0788052
3566 1 1.6397 3.30607 1.7844
4 3 7.10301 5.42706 1.52511
569 2 3.58648 3.52923 -0.0207115
577 2 7.35426 7.25967 -0.0834739
1070 3 5.39111 5.24684 -0.389994
1566 1 5.45826 3.5951 1.58531
2067 1 3.65401 5.1954 1.55884
2576 3 3.64798 6.97191 0.00826127
2571 2 6.99235 3.56097 -0.0874697
3570 1 5.52318 6.9898 1.57192
570 3 10.5654 3.57558 -0.16117
1570 3 9.04823 7.15215 1.78392
2068 2 10.788 5.21404 1.76684
2578 2 10.6979 7.06004 0.118824
3070 3 8.89242 5.33218 -0.129536
3567 3 8.78421 3.23179 1.68585
5 3 14.1608 5.12422 1.67701
581 2 14.3099 7.03873 0.0823813
1072 2 12.3269 5.4827 -0.0777177
1567 1 12.6298 3.23697 1.69186
2573 1 14.149 3.36177 -0.081028
3572 2 12.5754 7.00684 1.69639
253 3 18.0462 5.29991 1.61593
761 3 17.5743 7.05266 0.197439
1572 1 16.0992 7.07529 1.81103
2819 2 17.7458 3.57223 -0.0801417
3072 2 15.998 5.45901 -0.203571
3568 3 15.9518 3.72159 1.75906
1074 3 1.81749 9.00139 -0.0219869
2069 3 0.0103225 8.76564 1.78709
2574 3 0.242345 10.8314 -0.238763
3569 1 1.80171 10.7593 1.57256
6 3 3.72845 8.93767 1.67556
575 2 3.74324 10.9582 -0.0578595
1569 1 5.15333 10.874 1.51554
2070 1 7.15991 9.09247 1.89589
2579 1 7.29985 10.8587 -0.12539
3074 3 5.2805 8.95591 -0.0280946
7 1 11.0412 8.79158 1.58984
578 3 10.6343 10.6861 -0.233707
1076 3 8.90571 8.9467 -0.070155
3571 3 9.05508 10.678 1.53017
1571 2 12.4356 10.8287 1.7772
2071 3 14.0725 9.06095 1.89499
2582 2 14.2392 10.7903 -0.0547236
3076 1 12.3745 8.85112 -0.0586915
1078 1 16.0428 8.95367 0.378725
2006 2 17.7788 8.97382 1.88382
2825 3 17.7811 10.6475 0.0960432
3573 3 15.9175 10.9129 1.97662
8 3 -0.170258 12.5485 1.83759
583 2 -0.0639525 14.4423 0.166501
1573 2 1.76495 14.5795 1.87172
3078 1 1.8686 12.6504 0.205223
9 2 7.2795 12.367 1.7041
585 2 7.17834 14.1899 0.0582793
1080 1 5.46167 12.7019 -0.220884
2072 2 3.57882 12.5884 1.65947
2585 3 3.46001 14.4304 0.173072
3574 1 5.38662 14.3677 2.00654
1574 3 9.03988 14.4939 1.8648
2073 1 10.805 12.2968 1.71
2586 3 10.8049 14.0495 0.0937157
3080 2 8.95208 12.2285 -0.144786
10 1 14.2645 12.7202 1.64778
587 2 14.2941 14.1186 -0.260625
1082 2 12.4763 12.2733 -0.243356
3575 3 12.4862 14.4737 1.814
258 1 17.9927 12.3377 1.78459
771 3 17.9665 14.45 0.0391642
1575 3 16.1334 14.0285 1.93021
3082 1 16.3709 12.4978 -0.110307
626 2 -0.0958815 17.6916 0.159219
1084 1 1.58697 16.0563 0.229335
1688 1 1.61183 17.6867 1.91424
2074 2 -0.279958 16.1653 1.88862
11 2 3.70667 16.0928 1.84149
630 2 7.03791 18.0631 0.131625
2075 3 7.40139 16.2292 1.77238
2691 3 3.45716 17.5557 -0.103054
3084 1 5.42252 16.1295 0.333731
3690 1 5.43444 18.036 1.82828
12 3 10.69 16.0947 1.76713
1086 2 8.95248 16.2217 0.0273254
1690 1 8.89671 18.1076 1.74574
2693 3 10.677 17.8275 -0.0887784
634 2 14.3502 17.9665 0.0442924
2076 1 14.3363 16.2186 1.60286
3086 1 12.6508 16.0457 -0.162687
3692 1 12.5839 17.7441 1.68297
876 1 17.9297 17.925 0.0201391
1088 1 16.2158 16.1585 0.0302135
1692 1 16.062 18.0136 1.76289
2011 2 17.7883 16.0827 1.88913
13 2 0.0921799 1.65656 5.49447
588 3 -0.0645913 0.0960991 7.35952
1089 1 1.86688 1.7516 7.21222
2564 1 0.221073 0.0791333 3.81954
3063 2 1.73891 1.73011 3.62857
3576 2 1.8962 -0.173486 5.4678
14 3 7.07076 1.7145 5.28516
564 1 3.52018 -0.216162 3.54354
1065 2 5.2635 1.68625 3.48291
1577 3 3.4681 -0.201414 7.21212
1576 2 5.40252 -0.103338 5.44144
2078 1 5.1152 1.7702 7.33633
2077 2 3.56396 1.61476 5.22076
2589 3 7.07634 -0.0110095 7.18267
2567 2 7.27644 0.0223174 3.64886
566 2 10.8478 0.145158 3.46623
2079 3 10.6764 1.70756 5.19588
3065 1 9.07049 1.80738 3.54279
3088 2 9.01188 1.61161 7.2538
3578 2 10.7679 -0.151255 7.13136
3577 1 8.99287 0.146695 5.38277
15 3 12.2831 1.67252 7.15671
16 3 14.3363 1.70419 5.20418
589 3 14.2981 -0.0604918 7.26252
1067 2 12.439 1.79682 3.48313
1578 1 12.4698 0.00096955 5.21911
2568 3 14.1586 -0.0262327 3.38376
263 2 17.7934 1.58114 5.35913
776 1 17.8876 0.170268 7.50084
1090 2 16.0951 1.83085 7.25664
2815 3 17.9181 -0.275977 3.52081
3067 1 16.0585 1.70549 3.34633
3579 2 15.9939 -0.209025 5.21117
568 2 0.0125535 3.37123 3.63401
1069 2 1.93621 5.20219 3.412
1580 1 0.0899144 3.45117 7.10519
1579 2 1.87547 3.32105 5.32806
2081 1 1.77289 5.27552 7.0227
2080 1 0.150712 5.1759 5.25869
2591 3 0.0532952 7.33894 7.2311
2575 1 0.173286 7.07397 3.4268
3583 2 2.17837 6.99027 5.03724
17 2 3.70185 5.21343 5.21445
571 3 6.99464 3.29976 3.56671
592 3 7.15139 6.83895 6.98009
576 2 3.65268 6.89802 3.35914
1585 3 5.44139 6.95999 5.20502
2082 3 6.91271 5.02032 5.14567
2590 2 3.50947 3.68586 7.03474
2580 3 7.04234 6.8554 3.46739
2570 1 3.40535 3.38096 3.44516
3069 1 5.3266 5.21769 3.39562
3089 2 5.27722 5.34198 7.11242
3586 3 3.52134 7.18672 7.19585
3581 1 7.10563 3.71051 7.10511
3580 3 5.19163 3.4174 5.4165
18 3 10.8433 5.11569 5.40803
19 2 8.83057 5.21911 6.77224
590 1 10.5969 3.55742 7.20843
579 3 10.8051 7.04477 3.53217
1071 1 8.68445 5.21346 3.51629
1587 2 10.6041 7.14044 7.19899
1581 3 8.91144 3.24397 5.48157
2572 2 10.8417 3.55019 3.36115
3587 1 8.96913 6.84734 5.47534
572 3 14.3556 3.35152 3.35211
1091 2 12.7612 5.1944 7.09468
1589 2 12.2127 7.05115 5.31299
1583 1 14.4113 3.50286 7.1201
2083 2 14.2947 5.5823 5.29428
2593 1 14.2868 7.16078 7.2647
2583 3 14.1005 7.25909 3.54524
3071 1 12.5033 5.23432 3.59297
3582 1 12.5455 3.48828 5.1129
757 3 17.5784 3.58925 3.54006
1073 1 16.1806 5.4151 3.37625
1768 2 17.9586 3.6562 7.26692
1582 2 16.3131 3.55642 5.34554
2084 3 16.0922 5.23393 7.14846
2017 2 17.903 5.23646 5.31168
2841 2 17.9708 7.05 7.05663
2826 1 17.7919 7.30044 3.56927
3589 2 16.2421 6.9912 5.41719
20 3 0.127051 8.84014 5.25258
574 1 0.370938 10.5503 3.35825
1584 3 1.69801 10.9887 5.20626
3073 2 1.85927 8.98784 3.52187
3090 3 1.904 8.9421 6.96796
3584 1 0.12194 10.7096 7.00657
21 2 5.50768 8.75094 6.95275
22 1 7.37879 8.64877 5.34479
591 3 3.63819 10.6934 7.03281
580 1 7.09229 10.6479 3.22249
1075 2 5.3183 8.8373 3.40722
1588 2 7.38473 10.5382 7.15885
2085 1 3.85304 8.70188 5.1489
2577 3 3.60618 10.632 3.47223
3585 3 5.68817 10.6748 5.25753
1092 2 8.9855 9.00243 7.04761
1586 1 8.78751 10.8064 5.07564
2086 3 10.4059 9.01508 5.11683
2592 2 10.6877 10.6605 7.08644
2581 2 10.7459 10.7033 3.63829
3075 2 9.13126 8.922 3.21128
23 1 14.2556 9.06516 5.41258
582 1 14.1476 11.0561 3.42802
1077 3 12.3016 8.87709 3.4685
2087 3 12.4529 8.80719 7.05405
3590 1 14.327 10.6724 7.05658
3588 1 12.442 11.0461 5.37443
270 1 17.8523 8.86042 5.35881
764 1 17.8596 10.8007 3.50753
1590 3 16.073 10.454 5.38381
3091 1 16.1435 8.77359 7.09815
3077 3 15.9331 9.13129 3.27894
3835 1 17.9205 10.571 7.31767
24 1 1.85693 12.5454 6.894
593 2 0.00436736 14.3448 7.16998
1079 3 1.94464 12.483 3.47679
2088 1 -0.0135422 12.5258 4.9054
2584 1 -0.07885 14.5049 3.6574
3591 3 1.69969 14.4243 5.53527
25 3 3.61632 12.5821 5.33947
584 1 3.64433 14.2597 3.46326
1093 1 5.26234 12.3534 6.9678
1592 3 3.69255 14.4434 7.02395
1591 3 5.55551 14.5012 5.24973
2089 3 7.24715 12.593 5.23018
2594 3 7.1367 14.229 7.23409
2587 1 7.21023 14.291 3.45801
3079 3 5.33074 12.4444 3.63153
26 2 10.4542 12.5417 5.4015
586 1 10.5485 14.6268 3.68276
1081 2 9.02112 12.4536 3.26371
2090 1 9.06494 12.4153 7.10271
3593 1 10.7365 14.5738 7.14517
3592 3 8.95718 14.6173 5.58624
594 1 14.3512 14.1017 7.27524
1593 2 12.4402 14.4715 5.46559
2091 1 14.4226 12.4942 5.43239
2588 2 14.2075 14.2778 3.40314
3092 3 12.443 12.6233 7.15247
3081 3 12.5353 12.7339 3.44686
27 3 16.2735 12.4455 7.22477
781 1 18.0282 14.2356 7.17841
1083 3 16.1884 12.4455 3.67556
2025 3 17.6438 12.5062 5.39237
2835 3 17.7737 14.1634 3.40399
3594 1 16.1051 14.4426 5.06497
28 1 0.135168 16.2487 5.34257
651 2 0.116087 17.9541 6.9845
1094 2 1.62667 16.017 7.24862
2690 3 -0.0687746 17.9135 3.6514
3083 2 1.87633 16.0695 3.54281
3701 2 1.85386 18.0216 5.4431
29 1 7.21336 16.282 5.42756
629 2 3.40406 17.8186 3.59302
1085 3 5.43845 16.0531 3.54382
1704 3 3.48573 17.9268 7.31158
1703 1 5.36853 17.7558 5.64876
2093 3 5.30996 16.0042 7.38399
2092 1 3.40383 16.1702 5.3148
2715 2 7.10856 17.821 7.38764
2695 2 7.19247 18.0393 3.3883
632 3 10.7038 18.1605 3.46432
2094 1 10.742 16.4368 5.1399
3093 1 8.77488 16.0407 7.52058
3085 2 8.93543 16.295 3.65477
3704 2 10.618 17.8016 7.19357
3703 2 9.0001 17.8612 5.36451
30 2 12.4566 16.1998 7.26815
31 1 14.1213 16.0468 5.2438
653 1 14.2493 17.8161 7.28575
1087 2 12.4023 16.2058 3.57916
1706 3 12.5251 17.9081 5.28189
2698 3 14.4175 17.7893 3.46251
278 3 17.8439 15.789 5.23995
901 1 17.721 17.7986 6.94303
1095 1 16.0211 16.228 7.06039
2878 1 17.8666 17.8157 3.62401
3087 2 15.9057 16.0447 3.49247
3707 2 16.0724 17.7979 5.21551
1594 2 1.87666 -0.295659 9.1244
2095 2 0.230719 1.7102 9.02466
2595 2 0.0857948 -0.0450949 10.7095
3094 1 1.87189 1.63135 10.748
33 3 7.1419 1.85126 8.97434
595 3 3.8009 -0.140009 10.7687
1096 1 5.36942 1.94953 10.8441
2597 2 6.94596 0.124946 10.6861
2596 1 5.40854 -0.130619 9.0979
3095 2 3.63152 1.78063 9.12782
596 2 10.7675 0.231542 10.8013
1097 2 10.795 1.78573 8.84315
3096 1 9.2343 1.96176 10.6804
3596 1 9.042 0.173453 9.26035
597 1 12.5068 0.0225933 9.14441
1098 3 12.6083 1.84301 10.8366
2098 2 14.0073 1.75621 8.79376
2598 3 14.3015 -0.177233 10.8274
1597 3 15.8985 0.196703 9.08162
2032 2 17.9158 1.91306 8.93668
2845 1 17.857 0.273384 11.1774
3097 2 16.2005 1.80623 10.8634
598 2 0.0606508 3.71796 10.6639
1099 2 1.56258 5.47209 10.5388
2603 2 -0.0394475 7.1194 10.8286
2599 3 1.97494 3.40278 8.90737
3098 3 -0.19673 5.29035 9.05924
3602 2 1.67013 7.11196 8.91728
36 1 3.29638 5.25133 8.57355
605 3 3.72883 7.13765 10.1676
604 1 5.72701 7.26065 8.72935
600 3 7.37546 3.50995 10.5386
1100 3 7.19431 5.2487 8.97309
2606 3 7.10872 7.14463 10.7461
2600 2 3.39052 3.79739 10.7186
3099 2 5.39545 5.2759 10.4931
3599 2 5.11055 3.70593 8.80149
606 3 10.6139 6.99997 10.6074
599 2 9.02865 3.60838 8.79376
1101 3 9.08608 5.13071 10.8215
1605 1 8.74571 7.15797 8.71856
2100 2 10.8673 5.25414 8.90218
2601 1 10.7827 3.65352 10.5404
601 2 14.2344 3.50478 10.7057
1600 1 12.6352 3.60666 8.94774
2609 3 14.3934 7.22683 10.6727
2608 1 12.4949 7.16627 8.9115
3101 2 14.3816 5.49245 8.75608
3100 3 12.5742 5.27855 10.5809
786 1 18.0293 3.39964 10.7298
1102 2 16.0799 5.25104 10.4264
2853 3 17.7872 7.2207 10.7391
2602 2 15.7953 3.48865 8.97698
3348 1 17.9633 5.24975 9.21145
3608 3 16.2207 7.21444 8.99543
39 3 0.013559 8.97231 8.91053
603 3 0.3907 10.8209 10.3927
602 3 1.85007 10.8601 8.86263
3102 1 1.96434 8.88344 10.3554
607 1 7.24194 10.9545 10.6656
1104 3 5.47965 9.33684 10.4355
1103 2 3.46865 9.14164 8.69755
1603 1 5.20395 11.0133 8.64274
2104 2 7.1635 8.79601 8.78414
2604 2 3.48131 10.6232 10.7797
2607 3 10.6692 11.0131 10.8196
2605 3 8.9092 10.6847 9.02327
3104 3 8.97693 8.97807 10.5131
3103 2 10.6232 8.67833 8.82683
42 1 14.4822 9.1016 8.69978
609 2 14.0362 10.5222 10.766
1105 3 12.2921 8.8895 10.741
3606 1 12.2316 10.6213 8.94062
289 3 17.9638 8.82381 8.91684
792 3 17.775 10.5369 10.7183
608 2 16.153 10.6457 8.91337
3105 1 16.0263 8.97524 10.9226
1107 2 1.97365 12.6498 10.5702
1106 2 0.133953 12.5673 8.98358
1609 1 1.59266 14.2716 8.69649
2610 1 0.0369609 14.3202 10.6527
610 3 3.51135 14.401 10.8282
2107 2 3.43917 12.7651 8.84548
2612 2 6.97387 13.9554 10.7153
2611 1 5.31204 14.1923 8.8811
3107 1 6.94165 12.4284 8.80593
3106 3 5.16801 12.4827 10.7767
45 2 10.611 12.3924 8.7953
611 1 10.8352 14.177 10.6631
1108 1 9.04262 12.7637 10.5359
3611 2 8.68911 14.3786 8.97797
612 2 12.496 14.1663 8.7848
1109 1 14.339 12.2876 8.88017
2613 2 14.03 14.1334 10.6959
3108 1 12.5548 12.2596 10.4639
1293 3 17.7579 12.6332 8.9966
1110 3 15.7515 12.471 10.7922
1612 1 15.7564 14.2215 8.72491
2860 3 17.9157 14.3204 10.9126
1719 3 1.86691 18.0432 9.05326
2110 3 -0.00196837 16.0069 8.89538
2721 3 0.0591633 17.9495 10.6912
3109 2 1.66232 15.9356 10.8025
48 1 7.01913 15.9857 9.04985
659 2 3.60477 18.0127 10.6997
1111 3 5.36703 15.9651 10.654
2724 2 7.24527 17.8484 10.7381
2722 1 5.45249 18.1332 8.95345
3110 3 3.41565 15.9053 8.95436
661 1 10.5035 17.8319 10.9326
1112 2 10.6975 16.0522 9.12081
3111 3 8.99754 15.7563 10.8617
3723 1 9.05918 17.964 9.35369
663 1 12.5389 17.9394 9.06933
1113 2 12.5244 16.2262 10.9708
2113 1 14.1099 15.9946 9.02085
2727 2 14.3357 17.9344 10.6688
1725 1 15.9393 17.5171 8.96125
2047 3 17.692 15.9973 8.8298
2908 2 17.8633 17.635 10.8124
3112 1 15.9871 15.8447 10.691
32 2 0.175455 2.04113 12.5387
613 1 0.0376607 -0.199993 14.3139
1114 2 2.03919 1.4746 14.4154
3595 3 1.80256 -0.056109 12.5702
34 3 7.18233 1.77678 12.28
614 2 7.41206 0.143219 14.1924
1595 2 5.38682 -0.015792 12.5849
2096 2 3.43142 1.62888 12.5735
2614 1 3.71711 -0.0131395 14.4349
3113 1 5.46588 1.69778 14.3257
1115 3 9.01013 1.99945 14.4045
2097 1 11.1697 1.83188 12.3911
2615 2 10.9483 0.303532 14.275
3597 3 9.21577 0.243316 12.6391
35 2 14.346 1.98225 12.4472
615 2 14.3483 0.0673828 14.5696
1596 2 12.634 -0.208165 12.5048
3114 3 12.606 1.96762 14.3203
282 3 18.0317 2.09559 12.7624
801 3 17.8706 0.131368 14.4027
1116 3 16.1584 1.9732 14.2767
3598 2 15.8311 0.0520629 12.6864
618 1 0.0907547 7.31677 14.1333
1598 2 1.83391 3.53649 12.3965
2099 2 0.071217 5.37153 12.7057
2616 2 0.426801 3.55394 14.2362
3115 3 1.87722 5.45837 14.1895
3603 2 2.1942 7.12483 12.3038
37 1 3.47637 5.51613 12.2363
620 1 6.99815 7.18025 14.3643
616 2 3.46516 3.55465 14.2254
1117 2 5.31655 5.37656 14.001
1604 3 5.26484 7.26375 12.3091
2101 2 7.05202 5.61666 12.5618
2620 1 3.6594 7.09679 14.2858
2617 1 7.3062 3.69608 14.2308
3600 3 5.65418 3.62653 12.5519
38 3 10.8085 5.36381 12.7671
617 1 10.7768 3.48934 14.5247
1599 3 9.02175 3.28857 12.5777
2621 3 10.5657 7.32525 14.364
3116 2 8.80478 5.37183 14.2395
3605 1 9.088 7.20789 12.5368
622 1 14.2939 7.12866 14.2765
1118 1 12.5646 5.32718 14.353
1607 1 12.4418 7.21747 12.4973
2102 1 14.4086 5.53646 12.6154
2618 2 14.2631 3.57325 14.379
3601 2 12.463 3.83616 12.6924
806 1 17.8041 7.08832 14.2463
1601 1 15.8621 3.53698 12.4086
2036 3 17.6398 5.26633 12.3728
2866 3 17.9289 3.74406 14.233
3117 3 16.0964 5.20071 14.2774
3609 2 16.0542 7.12346 12.3965
40 2 0.252905 9.02266 12.164
1119 3 1.93113 9.01027 13.9694
1602 2 1.88986 10.7037 12.2039
2619 3 -0.0715993 10.6777 14.2465
41 1 7.26656 9.10869 12.4536
619 3 3.55143 10.8322 14.1446
2103 1 3.56497 8.84768 12.3481
2622 1 6.96782 10.758 14.1639
3118 3 5.35393 9.11797 14.2915
3604 1 5.31181 10.9577 12.3789
621 1 10.6284 10.582 14.6861
1120 2 8.88109 8.89865 14.4173
1606 1 9.05024 10.7803 12.626
2105 2 10.5489 8.95399 12.4472
43 1 14.0937 8.73202 12.6149
2623 1 14.092 10.7397 14.2793
3119 2 12.4279 8.96499 14.3088
3607 3 12.3492 10.6466 12.3615
290 2 17.8881 8.93657 12.5088
1121 1 16.1841 8.84259 14.2911
1608 3 15.8382 10.748 12.5162
2870 2 17.9138 10.5344 14.2647
623 1 -0.192076 13.9092 14.0985
2106 2 0.149774 12.3441 12.2317
3120 2 1.42488 12.5442 14.2634
3610 2 1.6106 14.366 12.4944
44 2 3.37436 12.4619 12.48
624 3 7.07712 14.3509 14.3098
1122 3 5.36274 12.5708 14.3874
1610 3 5.39751 14.1465 12.68
2108 2 6.96099 12.5231 12.6649
2624 2 3.48683 14.1433 14.2485
46 3 10.7654 12.4461 12.7572
2625 1 10.5987 14.0779 14.5135
3121 2 8.77994 12.3214 14.3685
3612 3 8.77553 14.0067 12.632
625 1 14.4351 14.3102 14.5957
1123 3 12.3442 12.6022 14.4291
1611 3 12.327 14.1583 12.4688
2109 2 14.1722 12.4697 12.5419
811 2 17.7124 14.4182 14.3519
2044 1 17.6998 12.5015 12.6549
3122 3 15.9213 12.5834 14.3723
3613 3 15.9137 14.3679 12.487
47 2 -0.183498 16.0756 12.3962
676 3 0.0117711 17.7991 14.2805
1124 3 1.85322 16.158 14.3228
3720 1 1.74862 17.9636 12.5311
49 1 7.10963 15.935 12.1532
678 1 7.06962 17.8349 14.4444
1721 1 5.27279 17.8154 12.4188
2111 1 3.50883 16.0636 12.3396
2740 2 3.49705 17.8264 13.9872
3123 3 5.22939 16.1674 14.316
1125 3 8.92841 16.1479 14.3801
2112 3 10.8076 16.1783 12.6238
2741 2 10.617 17.8603 14.7059
3724 1 8.91157 17.8096 12.6832
50 2 14.0904 15.9342 12.4204
680 1 14.1136 17.877 14.3878
1724 3 12.3854 17.975 12.6881
3124 2 12.4897 16.0204 14.4093
297 3 17.5638 16.1076 12.4719
926 2 17.8135 17.8311 14.0658
1126 3 15.9155 16.1624 14.195
3726 1 16.0868 17.8727 12.4598
1613 2 2.04414 -0.00516421 15.8972
2114 2 0.0964819 1.8579 16.3398
2626 3 0.162349 0.214843 17.7078
3125 1 1.85069 1.90366 17.7947
51 2 3.74597 1.94303 15.9754
502 1 3.5219 0.0137079 17.6686
1128 1 5.3947 1.41154 17.5579
2115 2 7.39392 1.75472 16.2009
2628 2 7.38679 0.108027 17.8267
3614 1 5.49953 -0.00537195 15.8885
52 3 10.8431 1.91196 16.1818
503 1 10.6493 -0.0200049 17.987
1614 2 8.98902 0.19136 16.0432
3127 1 9.01262 1.79826 18.0677
1130 1 12.6984 2.02947 17.9373
2116 1 14.2622 1.99603 16.3072
2630 1 14.0531 -0.113882 17.6224
3615 2 12.4374 -0.101736 16.2807
1615 1 16.2367 -0.0249431 16.0889
2051 3 17.8171 1.95382 15.9763
2501 3 17.8185 0.16246 17.9352
3129 2 15.9262 1.66148 17.8662
53 1 0.179171 5.38101 16.1366
506 2 -0.0917857 3.64091 18.0507
1132 3 1.63209 5.24347 17.9467
1618 1 1.83313 7.41058 15.8236
2636 3 0.241708 7.45878 17.7668
3616 3 2.08095 3.7482 16.1358
54 1 7.16958 5.70434 16.1383
508 3 7.33448 3.58896 17.7441
513 3 3.53937 7.3884 17.6677
1616 3 5.61274 3.43877 16.1545
2117 1 3.7107 5.24014 16.1391
2640 2 7.5132 7.08425 17.8974
2632 3 3.7201 3.17954 18.099
3131 2 5.58114 5.4885 17.838
3620 2 5.33482 7.18948 16.0522
515 1 10.5939 7.15207 17.8875
1134 3 8.92798 5.28791 17.9328
1620 1 9.03793 7.1558 16.0981
2118 2 10.7937 5.50762 16.2189
2633 1 10.7182 3.83902 17.8315
3617 3 8.92623 3.60467 15.9427
55 3 14.4613 5.06053 16.0299
510 2 14.4909 3.51437 18.003
1617 2 12.629 3.68959 16.1251
2644 2 14.2645 7.2986 17.9621
3133 1 12.56 5.12159 17.8665
3622 2 12.7521 6.97254 16.132
303 1 17.9008 5.26718 15.8519
819 1 17.9458 3.60877 17.8457
1136 3 16.1484 5.52804 17.8835
1622 3 16.1186 6.91391 16.1711
2511 2 17.8197 7.02857 17.9112
3618 3 16.1914 3.59745 16.2709
511 1 -0.254941 10.6581 17.8659
2119 2 -0.125128 9.24956 15.7849
3135 1 1.74225 9.16 17.9786
3619 3 1.95966 10.7578 15.7973
56 2 3.53858 9.12018 16.0033
516 2 7.1697 10.675 17.8618
1138 1 5.40058 8.60271 17.9707
1619 1 5.43995 10.7214 16.0081
2120 1 7.33849 8.93252 16.1752
2638 3 3.49413 10.6817 17.7083
57 2 10.8162 8.79908 16.0791
2641 1 10.5887 10.8324 17.86
3137 2 9.237 9.15952 17.8661
3621 1 9.0085 10.6926 16.0937
519 1 14.3627 10.6487 17.9426
1140 1 12.3514 8.96957 17.7889
1621 2 12.5117 10.9114 15.9938
2121 2 14.3631 8.96337 15.8125
825 2 17.6998 10.579 17.9928
2056 2 17.9499 8.94804 15.9233
3139 1 16.0751 9.02924 17.6969
3623 3 15.9772 10.7055 15.8846
58 2 -0.248874 12.4565 15.9685
1142 3 1.64597 12.3274 17.8486
1623 3 1.77346 13.9948 15.9657
2646 2 -0.0676534 14.268 17.9886
59 1 7.05755 12.6591 16.2237
522 1 3.19243 14.1813 17.8435
2122 3 3.68874 12.5451 16.1608
2648 1 7.2364 14.3814 18.1265
3141 2 5.39145 12.4358 17.9208
3624 1 5.26294 14.1861 16.0146
523 3 10.6893 14.2015 18.0115
1144 3 8.81097 12.5228 17.7437
1624 1 8.78165 14.6631 16.2814
2123 2 10.7146 12.4779 16.2574
60 2 14.2429 12.5702 16.1603
2650 1 14.1385 14.267 18.07
3143 1 12.4646 12.263 17.7614
3625 1 12.4921 14.3566 16.3742
308 1 18.1349 12.317 15.7536
1146 1 15.9619 12.6065 17.7713
1625 2 16.0652 14.1758 16.2935
2521 3 17.8553 13.9334 17.8046
1738 1 1.76527 17.7901 16.019
2124 3 -0.0457488 15.7948 15.7112
2751 3 0.0913522 17.9499 17.9779
3145 1 1.59683 15.7937 17.6608
61 1 3.49647 15.8219 15.8466
691 2 3.27998 17.6636 17.6073
1148 3 5.33892 16.1365 17.8005
2125 3 7.09151 16.3187 16.1054
2755 1 7.02617 17.7135 18.104
3740 1 5.15061 18.0115 16.0915
62 3 10.8302 16.04 16.2332
693 2 10.6805 17.8212 18.0593
1740 1 8.67205 17.8422 16.1249
3147 2 8.94656 16.1971 17.9264
1150 2 12.3153 15.9911 18.0609
2126 2 14.3255 16.1062 16.0429
2759 1 14.3882 17.9145 18.1333
3742 3 12.6341 17.766 16.3763
1742 3 15.8392 18.092 16.2485
2061 2 17.6074 16.2906 16.3291
2938 3 17.6417 17.9649 18.0599
3149 1 16.0942 15.9286 18.0297
501 1 0.134633 0.114014 21.5807
63 2 0.288191 1.76723 19.5645
1127 2 1.86033 1.87147 21.5664
3626 3 1.58051 0.0196335 19.6613
504 1 7.22712 -0.273005 21.6157
64 2 6.87702 1.80768 19.5597
1626 1 5.38704 -0.0758122 19.6285
2127 3 3.79447 1.71847 19.6943
2627 2 3.54664 -0.0484793 21.0643
3126 3 5.55914 1.75073 21.502
1129 2 9.06631 1.53852 21.3367
2128 3 10.7137 1.71809 19.8974
2629 3 10.9401 -0.136295 21.4877
3627 3 8.88211 0.0768497 19.649
505 1 14.5605 0.0682698 21.3519
65 1 14.3581 1.73891 19.5842
1627 3 12.3611 0.179888 19.7897
3128 1 12.5683 1.83385 21.6078
815 2 18.0002 -0.00415225 21.4657
313 1 17.8605 1.85532 19.8187
1131 1 16.0621 1.88401 21.407
3628 1 16.0426 0.167108 19.7696
512 3 0.239735 7.19071 21.4261
1628 1 2.00319 3.5701 19.6806
2129 1 -0.0224713 5.35502 19.7364
2631 1 0.232853 3.67459 21.318
3130 1 1.99116 5.28153 21.2845
3631 1 1.80525 7.12154 19.7504
507 1 3.87202 3.7009 21.4054
517 2 7.19561 7.28001 21.4297
66 2 3.81933 5.30511 19.5613
1133 1 5.43906 5.25461 21.5527
1632 2 5.61808 6.94652 19.9555
2130 2 7.48451 5.55744 19.7948
2639 1 3.65601 6.91711 21.5612
2634 3 7.26324 3.56378 21.5974
3629 1 5.80188 3.74636 19.6151
509 1 10.8165 3.58046 21.4234
67 1 10.7866 5.39256 19.657
1629 2 8.98926 3.36712 19.8673
2642 1 10.669 7.23504 21.615
3132 3 9.29518 5.29315 21.4038
3633 2 9.31518 7.32605 19.7255
520 1 14.351 7.18424 21.343
1135 3 12.516 5.36307 21.5168
1634 1 12.4176 7.25178 19.568
2131 1 14.4087 5.16344 19.7222
2635 3 14.5119 3.61385 21.537
3630 3 12.6082 3.63171 19.7054
826 2 17.961 6.90393 21.5337
1630 2 16.1167 3.58857 19.6173
2316 1 17.9262 5.37158 19.8413
2507 3 17.7675 3.56841 21.487
3134 3 16.0798 5.46607 21.3131
3635 3 15.8755 7.20323 19.6287
68 3 0.0801905 8.77289 19.637
1137 1 1.79749 8.93622 21.4675
1631 1 1.71964 10.5513 19.5921
2637 2 0.115759 10.4249 21.6786
514 2 3.57766 10.586 21.4779
69 1 7.2086 8.94422 19.7583
2132 2 3.65882 8.79264 19.602
2643 2 7.35632 10.7321 21.6352
3136 1 5.35275 8.99787 21.4624
3632 1 5.42048 10.5025 19.2298
518 1 10.8832 10.7527 21.6132
1139 1 9.1441 8.81215 21.6006
1633 3 9.03923 10.6196 19.5725
2133 3 10.8566 8.96874 19.6608
70 3 14.3007 8.81964 19.645
2645 1 14.4196 10.6064 21.3592
3138 2 12.4522 8.91685 21.5128
3634 3 12.5127 10.6234 19.7008
318 1 17.9173 8.86084 19.7258
1141 2 16.1579 8.82699 21.6343
1635 2 16.0718 10.5708 19.7093
2514 3 17.4867 10.8454 21.6582
521 3 0.0224478 14.4351 21.5242
2134 1 0.152091 12.584 19.6484
3140 1 1.55452 12.525 21.3137
3636 1 1.77403 14.4152 19.6272
524 1 7.0315 14.0274 21.5735
71 2 3.33874 12.3344 19.5697
1143 1 5.17792 12.4056 21.3455
1636 2 5.12698 14.1754 19.6752
2135 3 7.15916 12.4031 19.7892
2647 2 3.36699 14.1246 21.2825
72 3 10.7845 12.4893 19.6519
2649 2 10.9931 14.1801 21.8126
3142 1 9.135 12.4704 21.497
3637 2 8.91792 14.2634 19.7794
525 3 14.3279 14.3615 21.539
1145 2 12.5846 12.454 21.6979
1637 1 12.6048 14.1192 19.7748
2136 2 14.3324 12.4048 19.7184
835 3 17.8989 14.2096 21.6004
2321 3 17.6543 12.2969 19.8123
3144 2 15.9344 12.5081 21.4502
3638 1 16.0954 14.0584 19.6517
690 3 0.00965801 17.7741 21.5618
73 2 0.161051 16.061 19.6229
1147 2 1.82663 16.0846 21.5096
3751 1 1.82672 17.6649 19.7509
695 1 6.81583 17.8694 21.3812
74 2 6.98918 15.957 19.9566
1502 2 5.49867 17.8381 19.6649
2137 1 3.46428 15.9853 19.6028
2754 3 3.77802 17.8545 21.4446
3146 2 5.23247 15.7526 21.3881
1149 2 8.97261 15.7768 21.323
2138 3 10.7368 16.0111 19.7101
2757 3 10.6105 17.6919 21.5808
3753 2 8.90129 17.908 19.5941
698 2 14.2122 17.9489 21.3854
75 1 14.1867 16.12 19.8612
1504 2 12.6578 17.991 19.7027
3148 2 12.4998 15.8451 21.356
941 1 17.7975 17.9003 21.6509
323 2 17.6493 16.0494 19.8267
1151 3 15.9952 16.2118 21.4733
3755 3 16.0313 17.7193 19.7669
1638 2 1.84022 0.0788276 23.2058
2139 1 0.0886522 1.63979 23.0464
2651 3 0.0173239 0.00202662 25.0422
3150 2 1.61091 1.77441 24.9694
526 1 7.32164 -0.260568 25.2212
77 3 5.47835 1.50847 25.1481
76 1 3.66875 1.58812 23.1735
2140 3 7.43475 1.74866 23.3891
3640 3 3.52105 -0.238175 25.048
3639 1 5.37905 0.220726 23.077
78 1 10.6903 1.40899 23.231
1152 2 9.09158 1.85691 25.1079
1640 1 10.7403 0.0426586 25.1829
1639 2 8.90677 0.0329439 23.2619
2142 3 14.2363 1.71878 23.302
2141 2 12.5388 1.86906 25.1636
2652 1 14.217 -0.0245132 25.2309
3641 2 12.5124 0.190255 23.3687
1641 3 16.1595 0.120184 23.3343
2326 2 18.0152 1.79083 23.3698
2526 2 18.0827 0.0053116 25.1656
3151 1 16.3022 1.92498 25.0474
528 1 0.0218736 7.25324 24.94
80 2 1.90609 5.31082 25.0444
79 1 0.188376 5.20459 23.2632
1645 3 1.77342 7.09748 23.0171
3643 1 0.085522 3.65296 24.9348
3642 3 2.02714 3.42888 23.1786
527 1 3.80381 3.48309 24.7972
81 2 7.13256 5.46012 23.1954
1153 3 5.39612 5.34447 25.2123
1648 3 3.51841 7.15222 25.0911
1643 1 7.15189 3.79169 24.897
1642 1 5.33994 3.46675 23.3546
2143 1 3.52689 5.33366 23.1539
2655 3 7.28606 7.19561 25.1442
3648 3 5.55794 7.35641 23.3637
1649 2 9.03389 7.18523 23.2371
2145 3 9.02091 5.3998 24.8126
2144 3 10.8971 5.22388 23.2952
2653 1 10.9134 3.50201 25.1016
3650 2 10.6515 7.10632 25.0577
3644 3 9.06215 3.53742 23.2719
530 1 14.3203 6.99206 25.1711
82 3 14.2121 5.2179 23.5437
1644 1 12.5973 3.39799 23.323
3152 2 12.5199 5.46325 25.0558
3652 1 12.6222 7.04838 23.1635
3646 1 14.2162 3.40971 25.0119
841 1 18.1485 6.97679 25.0703
329 2 17.9725 5.42984 23.3186
83 2 16.1815 5.61495 25.0721
1651 3 15.9939 7.02487 23.3908
3893 2 17.8365 3.74292 25.0686
3645 3 16.2263 3.61573 23.448
1154 2 1.82644 8.91031 25.2233
1646 1 0.00194794 10.2416 25.1342
2146 2 0.0727388 8.66553 23.1796
3647 2 1.68418 10.5362 23.427
84 3 3.64846 8.94209 23.1819
1647 2 5.53919 10.7324 23.1625
2148 2 7.1253 9.04725 23.6389
2147 1 5.38341 9.04339 24.8872
2654 2 3.66847 10.6978 24.9695
3651 3 7.10718 10.8854 25.1304
529 2 10.5919 10.7918 25.1432
85 2 10.7289 9.06233 23.2018
3153 2 8.95836 8.89446 25.1671
3649 1 8.97042 10.5821 23.2874
86 3 12.4805 8.89895 25.0208
1652 1 14.2749 10.4803 24.8912
1650 1 12.4419 10.6341 23.3482
2149 2 14.0989 8.6926 23.3099
1155 1 15.9405 9.1007 25.0644
1835 2 17.7888 10.8812 25.2442
2333 1 17.7288 8.90546 23.3449
3653 2 15.939 10.7961 23.2971
87 1 -0.0575378 12.3507 23.2369
1653 3 1.99026 14.1313 23.2338
2150 2 1.87821 12.4645 25.0388
2656 2 -0.248846 14.1026 25.0861
531 3 6.88292 14.2744 25.0424
88 3 7.17948 12.557 23.2963
2151 2 3.54165 12.3303 23.187
3154 3 5.31549 12.6056 24.9392
3655 3 3.44218 14.2406 25.0849
3654 1 4.96458 14.1641 23.1256
89 3 8.9382 12.6917 25.2139
1655 1 10.611 14.485 25.264
1654 2 8.87249 14.296 23.0798
2152 1 10.8825 12.519 23.4326
90 3 14.3623 12.4132 23.1183
1156 2 12.818 12.6702 25.0762
2657 2 14.419 14.302 25.0777
3656 1 12.5889 14.057 23.3634
337 3 17.6491 12.515 23.208
1656 3 15.907 14.4634 23.2368
2153 1 16.0914 12.5326 24.9246
2531 2 17.7775 14.1526 25.105
1513 3 1.74774 17.7557 23.2953
2154 3 -0.154132 16.0807 23.2594
2776 3 0.144844 17.7895 24.9739
3155 1 1.91771 16.0327 24.7112
715 1 7.33628 17.8994 25.2478
92 3 5.31279 16.2049 25.0794
91 1 3.71001 16.2247 23.0841
2155 3 7.19763 16.0174 23.1095
3767 2 3.54413 17.6839 24.9246
3766 3 5.47726 17.7664 23.1073
93 2 10.8932 16.0406 23.2478
1157 2 8.72313 16.1082 25.1024
1515 2 8.904 18.0172 23.336
1516 3 10.7098 17.8135 24.8179
2157 3 14.1109 15.8812 23.3588
2156 2 12.4828 16.0542 25.0267
2778 2 14.1581 17.8023 25.0383
3769 1 12.7729 17.8341 23.25
1519 3 16.0402 17.6711 23.2415
2341 3 17.928 16.0318 23.2131
2963 2 17.9481 17.7936 24.9677
3156 1 16.3075 16.1718 25.1736
532 2 0.0257462 -0.313628 28.556
94 2 -0.154349 1.62347 26.7914
1158 3 1.62801 1.50125 28.3164
3657 3 1.6384 -0.105465 26.6883
533 3 5.51924 -0.0594091 27.0876
534 1 7.19965 0.106279 28.788
1159 2 3.52767 1.62726 26.7781
2159 3 7.18255 1.84804 26.7975
2658 3 3.46425 0.00360065 28.7951
3157 2 5.3342 1.85809 28.6893
1160 1 8.8875 1.78808 28.5711
1658 2 8.91341 -0.105703 26.8195
2659 1 10.6289 -0.29146 28.659
3158 1 10.7346 1.70864 26.9012
535 3 14.3253 0.0336426 28.6149
97 1 14.4398 1.73943 26.8345
2660 3 12.3688 -0.0694674 26.8403
3159 1 12.2534 1.66932 28.6229
845 3 18.1942 -0.230608 28.7111
344 1 18.2779 1.38645 26.7675
1161 3 16.0875 1.7654 28.5638
3660 3 16.1362 0.135784 26.6892
536 3 1.94867 3.51866 26.8328
540 2 -0.0215584 6.96189 28.7006
1162 1 0.144494 5.62015 26.7228
1664 3 2.06135 7.14616 26.9438
2661 1 0.0191885 3.64179 28.4386
3160 2 1.89509 5.25295 28.5147
537 3 3.7399 3.84186 28.5899
543 3 7.2872 6.90067 28.5825
1163 2 5.66503 5.24701 28.7097
1661 3 5.35089 3.18505 26.604
2162 1 3.67503 5.42968 26.8161
2668 3 3.92012 6.87277 28.969
2667 3 5.5421 7.26879 26.8002
2663 2 7.14156 3.43234 28.6573
3161 1 7.0719 5.37483 26.7985
538 2 10.5321 3.77571 28.4268
99 1 10.8862 5.60526 26.9613
2669 2 10.8449 7.03623 28.7386
2662 2 9.06682 3.72912 26.7152
3162 1 8.67856 5.02979 28.4538
3668 3 8.99976 6.80595 27.0169
545 1 12.7108 7.16267 26.8228
546 2 14.2731 7.20649 28.6763
1165 1 14.46 5.12838 26.7527
1164 2 12.6474 5.32318 28.4345
2664 2 14.4272 3.53234 28.5919
3663 3 12.5635 3.56818 26.9039
853 3 18.0169 7.04291 28.6853
539 1 16.1312 3.50248 26.6941
1349 3 18.0689 5.26495 26.9287
1670 1 16.0775 7.09852 26.8724
2536 3 17.7972 3.52418 28.7233
3163 1 16.1587 5.48912 28.6723
1166 2 1.85085 8.73757 28.4993
2165 1 -0.0730949 8.62418 27.0692
2666 1 -0.129628 10.7604 28.7623
2665 1 2.1339 10.6864 26.7076