ITEM: TIMESTEP
5000
ITEM: NUMBER OF ATOMS
4000
ITEM: BOX BOUNDS pp pp pp
-5.4150665922428232e-02 3.5788210665922449e+01
-5.4150665922428232e-02 3.5788210665922449e+01
-5.4150665922428232e-02 3.5788210665922449e+01
ITEM: ATOMS id type x y z
2563 3 1.59852 1.86147 3.45814
564 3 3.4946 1.7905 1.64491
3561 1 1.94256 0.0481504 1.92363
5 2 1.68869 3.40313 1.56796
1564 2 0.0298206 -0.0384037 3.52625
2067 2 -0.0404322 3.51978 3.46531
1563 2 -0.0445926 0.109834 -0.0227622
3562 2 5.44136 0.0673317 1.85793
565 1 7.02219 1.83361 1.43397
3569 3 5.32521 3.45606 1.7503
3061 2 5.29701 1.70982 -0.047734
566 3 10.6165 1.63783 1.6661
1566 3 7.22951 0.322989 3.39251
3572 3 10.6281 3.47448 3.43291
570 1 12.2656 3.17785 1.81536
2066 3 10.7774 0.0118481 3.44333
567 3 14.333 1.85717 1.24579
3 3 16.1133 -0.0235738 1.55611
3069 2 14.4788 3.39248 3.22596
572 1 16.0479 3.38335 1.57119
1080 1 17.7758 3.04422 3.40596
3564 1 16.1543 1.48669 3.36563
6 1 1.76698 7.07548 1.59863
1074 1 3.47166 5.44574 1.6565
3566 1 1.63975 5.35217 3.47007
1071 2 0.0460387 5.18994 1.69646
1072 1 7.10143 5.03255 1.86379
1075 1 5.16655 7.03053 1.70502
2068 2 7.04717 7.07289 3.4525
2570 1 7.00522 3.79606 0.0163019
3570 3 5.38596 5.09821 3.45772
10 2 9.05561 3.54422 1.66914
1076 3 10.5603 5.30227 1.97489
9 3 8.86758 5.26397 -0.0325911
571 2 12.5402 5.26519 3.49679
1570 3 14.1459 5.35662 1.46403
1569 3 12.4151 6.95649 1.74241
1572 1 14.3869 7.0358 3.42287
573 2 16.252 4.98841 3.38055
1079 3 17.5604 5.55069 1.54283
574 3 1.659 8.91119 3.39678
1575 1 3.45262 8.83551 1.7055
1083 3 5.1991 10.5014 1.56302
577 2 5.14866 8.68952 3.52042
1568 3 8.80899 7.11591 1.56922
1576 3 7.22488 8.78475 1.40777
1087 2 8.62392 10.6535 1.70917
2071 3 10.6258 8.83168 1.66271
580 2 12.1869 10.4685 1.78344
1579 3 12.196 8.91068 3.42841
14 3 10.8266 10.6588 -0.0427055
1081 1 15.9866 7.43291 2.07172
2074 2 14.2935 8.72227 1.7401
15 3 17.8217 9.18337 1.40209
575 2 1.71471 10.704 1.61362
2081 1 3.22637 12.5541 2.05252
3071 1 3.52899 14.1384 -0.0129326
578 2 3.48813 10.8006 3.44596
2575 2 7.1086 12.2712 1.86495
2082 3 5.43505 14.2038 1.72763
2574 1 5.3736 12.2571 3.43846
2080 3 5.03918 12.3552 0.0732657
2579 1 10.5269 12.4048 1.58447
1583 2 8.82798 14.2273 1.67981
2578 2 8.99725 12.3703 3.45113
2084 1 10.5208 14.0942 -0.00737124
2580 2 13.8276 12.319 1.87346
3575 1 14.0177 14.0185 3.49545
2085 2 12.3925 14.1629 1.72318
1581 3 15.823 10.9102 1.70611
2583 2 15.9155 14.2437 1.70837
1584 2 17.7726 14.1568 3.40244
581 1 17.7808 12.4738 1.47965
2078 3 1.69402 14.514 1.91841
3077 1 3.47969 15.8908 1.70394
3576 1 1.97446 16.0645 3.357
3078 3 6.9539 15.856 1.86611
3079 2 5.07545 17.8375 1.99767
2585 1 7.08106 17.7906 0.109539
3579 3 8.73063 15.8198 3.34869
3578 3 9.02401 17.7333 1.91534
18 1 8.9492 15.9032 -0.0429969
1091 2 10.7738 17.8051 3.49052
3080 3 10.7519 16.14 1.9772
3081 1 14.1126 16.0245 1.77981
2587 2 14.2166 17.8146 3.25759
1585 3 10.727 17.5696 0.0271496
19 1 12.6901 15.958 0.202645
20 2 15.9798 16.2 0.189071
3083 2 16.1694 17.8623 1.80074
583 2 16.0083 15.9428 3.46669
584 3 1.66076 1.7513 7.0446
3585 2 3.42836 1.44155 5.28017
2588 3 1.49379 0.161803 5.27761
3090 3 1.80247 3.36342 5.12231
2564 2 5.26558 1.75806 3.75803
3584 1 7.06432 1.68767 5.62683
3568 3 7.09646 3.15385 3.54428
29 3 3.66345 3.38926 6.91507
2565 1 8.93853 1.79212 3.62288
586 3 9.06724 1.75387 7.09579
2567 2 12.6306 1.34576 3.55349
3586 2 10.8902 1.7445 5.08262
23 3 12.587 1.63775 7.10643
33 1 12.6648 3.28882 5.02477
3086 3 10.7694 0.0844182 6.79201
3087 3 12.6351 -0.0301654 5.43857
3088 2 16.1561 0.0829833 5.44903
24 2 14.5498 -0.046849 7.08194
25 3 14.3867 1.67478 5.17342
588 2 16.2177 2.07809 7.09314
3595 2 16.1796 3.51854 5.15162
2069 3 3.45043 3.56407 3.54052
1073 1 3.26583 6.76214 3.73481
590 2 3.51497 5.17114 5.41958
27 1 1.74904 5.31543 7.06414
3593 1 5.16764 3.58606 5.3592
1094 1 5.36059 6.85393 5.33285
3571 2 8.94141 5.1228 3.61329
569 2 10.4639 6.89871 3.68521
31 3 8.75248 3.56527 5.48598
592 2 7.20889 5.21973 5.38617
594 2 10.4372 5.48115 5.62287
1590 2 8.82187 7.10651 5.30537
35 2 14.0064 3.57377 6.89812
1592 2 12.4122 6.9032 5.17194
1099 2 12.2081 5.32071 6.83951
1100 1 14.4519 5.05596 5.16437
1595 3 16.178 7.02208 4.89933
1594 1 16.0069 5.19737 6.95068
595 3 14.4651 6.91181 6.98204
28 2 1.73071 7.1223 5.59924
1101 3 0.251796 8.78045 5.34799
1103 1 3.64084 8.88661 5.28366
1597 1 6.94766 8.85974 5.47366
1104 2 5.07876 10.5947 5.39532
593 2 3.60684 7.22535 7.11018
1578 3 8.58192 9.01253 3.57255
599 2 8.77708 10.4399 5.52649
2097 3 10.3248 8.72648 5.24974
579 1 10.4732 10.5394 3.60793
2072 3 13.992 10.532 3.5751
1598 2 12.627 8.72394 7.02243
2098 3 14.2798 8.59475 5.06203
1108 3 12.3698 10.4879 5.34125
1589 2 10.8205 7.12059 7.0345
1580 2 16.1117 9.1609 3.5471
3597 2 17.8449 8.91465 5.27503
1599 1 16.084 8.9245 6.92011
1582 2 1.66616 12.4443 3.72829
596 3 1.70748 10.8503 5.23264
2103 2 1.83771 12.4398 6.88146
2600 1 3.50033 12.5061 5.03055
2083 3 3.62336 14.2382 3.56075
2104 2 5.24384 14.1089 5.31788
1112 2 7.09537 14.2137 6.93256
2577 1 7.06669 14.2219 3.71565
1084 1 7.24369 10.8617 3.70442
2601 1 7.14823 12.238 5.35877
2604 2 8.77591 13.9429 5.28454
2602 2 10.6263 12.338 5.31266
2581 1 11.9043 12.3219 3.6077
2099 1 14.099 10.71 7.00026
2603 3 10.7474 14.2111 7.10894
1603 2 12.2477 12.3594 7.08042
2605 2 14.0813 12.375 5.06182
3098 1 12.238 14.2583 5.65911
3093 3 17.8194 10.8499 7.04247
2582 1 15.9051 12.4497 3.55395
2100 2 16.1642 10.8088 5.17769
3099 3 15.9807 12.491 7.08559
1114 2 17.8367 12.3984 5.20967
1605 2 1.79125 17.6544 5.32277
2102 1 1.7504 14.4807 5.19436
1604 1 1.95142 15.9691 7.07705
582 1 -0.0282323 17.6619 3.64659
3602 2 3.60069 16.1098 5.16952
3577 1 5.34255 15.9326 3.59023
3601 1 6.93877 16.1177 5.19108
3106 3 5.47112 16.1588 6.94105
2608 3 9.03242 17.7794 5.15722
3109 1 10.6861 17.8285 7.0681
3107 2 7.37402 17.7931 7.03564
2107 1 8.78504 15.7317 6.69782
2610 3 12.4869 17.8002 5.05473
2609 2 14.2612 17.8331 7.04431
3072 1 10.7496 14.3364 3.56809
3603 1 10.8131 15.9484 5.0287
3580 1 12.6745 15.8676 3.53907
41 1 14.2249 15.8105 5.39212
3112 1 15.7212 17.4476 5.30961
3599 2 17.7531 14.4883 7.07181
3100 1 15.9742 14.4124 5.37171
2615 3 0.0423552 3.323 10.6094
2591 3 3.5116 1.7613 8.92602
2110 2 1.72061 1.76165 10.6777
1607 2 3.81203 0.0536394 10.5297
1608 1 7.10142 -0.0355262 10.3338
22 1 5.28896 1.64676 7.11514
585 2 6.97831 1.70977 8.76554
2113 3 10.6495 3.41463 10.6208
1591 1 9.16638 3.50288 8.83797
2090 1 12.6541 0.0217746 8.78048
3594 1 10.7854 3.44763 7.33261
2592 1 10.8822 1.52578 8.77697
2613 3 12.5202 1.75433 10.6044
34 1 12.3644 3.46705 9.06151
587 2 14.3339 1.99497 9.06075
3116 2 16.1634 2.07521 10.6823
2091 3 1.90188 3.57837 8.88469
1093 1 1.53804 6.80612 8.8432
1095 3 5.24488 5.22841 7.28678
30 3 5.1686 3.57147 9.03146
1096 2 3.61151 5.45627 8.91118
3592 2 7.02211 3.76476 7.25091
3591 3 5.27371 7.09219 9.02643
591 3 6.95454 7.0269 7.21736
2112 1 6.9765 3.55868 10.6887
3091 2 7.14728 5.25291 9.11059
1097 1 8.72719 5.37073 7.21788
1098 3 10.6902 5.36464 8.95585
32 1 12.5712 6.80623 8.82738
3611 2 12.4236 5.3363 10.5868
2595 3 16.1455 3.58455 9.05868
36 3 14.5094 5.13557 8.9535
3118 1 0.269843 7.11798 10.5336
1102 3 1.61726 8.84481 7.23193
38 2 3.44212 10.5136 7.18876
37 1 3.32703 8.72211 8.7292
1596 2 5.33079 8.79702 7.14369
1106 3 7.05409 10.5139 7.29413
1105 3 5.30129 10.5298 9.05679
2096 3 6.98111 8.66036 8.96231
1107 2 9.06046 8.61811 7.34497
1588 1 9.02221 7.14834 9.25661
3596 2 8.92951 10.4423 9.1113
39 1 10.7058 10.4574 7.24022
598 1 10.9441 8.78282 8.95552
3613 3 10.8398 10.6982 10.6064
2597 3 14.1591 8.75556 8.78822
614 3 12.5819 8.78219 10.5954
2598 2 12.5065 10.4976 8.80294
2093 3 16.0649 7.29599 8.70578
1109 2 15.8839 10.6176 9.07601
1122 1 16.0019 8.88996 10.6557
1110 3 -0.0420761 14.2661 7.2848
597 1 0.234258 10.8169 7.14983
2596 3 1.82299 10.9711 8.99376
3094 2 1.81479 14.066 8.91559
1600 1 5.14085 12.329 7.23174
3095 2 3.78583 12.3998 8.94337
1601 1 7.0909 12.6809 9.12826
1124 2 5.41786 12.8083 10.6112
3097 3 8.79302 12.1544 7.1682
1125 2 9.01361 12.2708 10.6721
3096 1 9.05941 14.0337 8.78529
602 2 14.1946 14.0633 7.13391
3598 3 10.7471 12.3114 9.03249
1620 1 12.2019 12.4848 10.644
3101 1 17.8321 12.7704 8.83949
51 2 17.8008 10.9239 10.5291
1602 1 14.4998 12.5552 8.82535
619 1 3.28382 17.7183 10.6651
2606 3 1.63542 17.866 8.9161
2119 3 1.63184 16.205 10.4505
2105 1 5.74447 17.6939 8.76257
2599 3 3.65183 14.3986 7.28744
2106 2 3.68277 16.1261 8.94436
1111 1 5.40926 14.7111 8.92641
1127 2 7.2307 17.4226 10.6603
40 1 7.50967 15.7413 8.56992
1619 2 7.3208 14.3729 10.6335
617 3 10.5113 14.3812 10.6619
2108 2 10.696 15.9662 8.7437
3108 2 8.82638 17.7178 8.80248
1115 3 12.5744 17.8623 8.89518
3604 3 12.6766 16.0909 7.1368
1113 3 12.8031 14.4704 8.95578
3102 1 16.0946 14.4385 8.94535
603 1 14.4319 16.2325 8.95697
2109 2 16.2724 16.2466 7.16762
2628 3 15.9002 16.3033 10.5142
2616 3 3.29214 3.38265 10.8019
2629 3 1.57079 1.79598 14.1735
607 1 2.00147 3.37325 12.5357
3113 1 1.87958 0.0160604 12.376
43 1 3.65383 1.50188 12.6004
2111 3 5.55949 1.573 10.7612
608 1 5.25221 3.34272 12.539
605 1 7.10073 1.98672 12.4641
2612 2 8.70541 1.49508 10.7029
3610 1 9.0382 3.23698 12.5252
3129 2 9.08449 1.57531 14.2289
3114 3 12.536 -0.0269703 12.6272
1116 1 10.7798 0.00518148 10.7686
606 2 10.7671 1.78355 12.3499
610 3 12.3654 3.47197 12.4972
3131 2 12.4499 1.61453 14.1044
3138 2 14.0968 3.51258 14.0724
3119 2 14.3129 3.40813 10.7416
44 3 16.1115 0.117817 12.3537
1117 1 14.3444 1.63552 12.5087
1121 1 16.1441 3.45225 12.7414
1118 3 0.0457675 5.33528 12.3728
3117 3 1.72259 5.19512 10.8252
1610 2 3.44583 5.08825 12.5325
1119 3 1.84217 7.06985 12.7826
3624 1 2.0149 5.27373 14.1911
2634 3 0.015623 7.08499 14.1742
3607 3 5.0936 5.48037 10.8378
1612 3 7.1138 5.28493 12.515
1611 2 5.22217 6.90927 12.6641
3609 3 8.69177 5.10338 10.8661
1613 1 10.6211 5.26335 12.4745
3629 1 9.00395 5.25362 14.2311
3137 2 10.5693 3.55644 14.1683
46 3 10.7826 7.00681 10.7521
3630 2 12.4316 5.28764 14.0276
2617 2 12.5003 6.95319 12.3556
3631 3 14.2667 6.97446 14.1557
3612 1 16.0507 5.17567 10.8349
1614 3 14.3382 5.09186 12.3911
2618 2 15.9217 6.90458 12.5026
47 2 17.8521 5.13547 12.8008
65 2 15.8918 5.22416 14.2581
2115 2 0.371381 9.04574 12.4684
3120 3 -0.0441981 10.632 10.7687
3608 3 3.33418 7.12756 10.8758
48 3 1.94425 8.92308 10.8151
45 2 7.00977 7.16048 10.7359
612 3 6.93543 10.5948 10.7124
2116 3 3.63312 8.7627 12.8
49 2 5.08307 8.98897 10.7496
613 1 8.68744 8.70924 10.7481
2114 1 8.87926 7.27689 12.6365
2619 1 7.16086 8.73247 12.7876
2620 3 10.4149 9.01507 12.5558
1617 1 12.6122 10.5598 12.5256
50 3 14.1275 10.6659 10.7946
510 1 12.2242 8.80025 14.1862
615 3 17.7913 8.92327 12.2808
3140 3 17.7905 7.25516 14.0903
609 2 14.4736 7.19481 10.6994
3122 3 14.4784 8.91999 12.5416
511 1 16.0117 8.83636 14.1534
2118 3 16.2125 10.6062 12.5091
3635 3 14.3983 10.5456 14.1679
2636 1 0.119045 10.9539 14.1589
611 2 2.14248 11.1178 12.7825
1123 2 1.8776 12.4349 10.7636
2621 3 0.226418 12.6993 12.4658
3121 1 3.56359 10.8155 10.8655
1616 1 5.38833 10.7289 12.3978
3124 2 3.80268 12.7804 12.4333
3125 3 6.9536 12.5662 12.6536
2117 1 8.55265 10.7172 12.5954
1145 1 8.97857 12.6777 14.1872
3616 1 10.5799 12.2578 12.6911
3617 3 14.2312 12.2442 12.6147
2622 1 12.5127 14.1042 12.7089
1622 3 17.7739 12.4689 12.3544
1126 1 14.4344 14.1847 10.7216
1621 1 15.7629 12.6051 10.994
1149 2 16.1912 12.401 14.1128
2623 2 1.78653 17.6623 12.6096
52 3 0.153872 16.0359 12.4552
3123 3 1.72558 14.4293 12.3977
1151 1 3.33179 17.6963 14.2747
2624 2 5.14606 17.7476 12.5562
1618 1 3.67354 14.3861 10.7939
3614 3 5.56537 14.6894 12.4166
53 3 3.67346 16.0231 12.5714
2120 3 5.43442 16.2139 10.7074
3619 2 9.11152 17.8482 12.4658
2625 2 9.083 16.2789 10.7076
3615 3 8.79785 14.4751 12.5275
618 1 7.17814 16.3223 12.8277
2626 3 12.6186 15.9412 10.7127
54 2 10.8339 16.1224 12.4086
1646 2 12.6002 15.9102 14.2181
56 2 15.8731 17.7794 12.6818
3618 2 16.0366 14.3997 12.5628
1647 2 15.9438 16.0769 14.2165
620 2 14.2971 16.285 12.3789
2627 1 17.6826 15.9972 12.7886
2123 1 3.35436 -0.0406205 14.3374
57 2 1.87533 0.283387 16.0857
58 2 5.44782 -0.0368349 16.2186
3128 2 5.22546 1.66263 14.4697
2126 3 3.57564 3.20925 14.4603
1129 2 3.74553 1.98031 16.3243
61 2 5.52761 3.30812 16.3035
1131 2 7.19012 1.54898 15.9174
506 3 8.91711 3.33902 16.1423
2631 3 8.87596 1.70163 17.83
3135 2 7.17434 3.50029 17.7617
59 1 12.6463 0.0111124 15.9246
1133 1 10.7478 1.82709 16.0236
1136 1 12.3556 3.44393 15.9806
1134 3 14.1719 1.93851 15.9566
3130 3 12.2992 1.67829 17.8002
2124 3 14.0353 -0.0404496 17.7624
3622 3 17.7749 1.88927 16.3783
3132 2 15.9148 1.54291 14.3981
3133 1 15.8175 1.93551 17.5286
3134 2 0.122199 7.01663 17.8303
503 3 1.67082 3.68037 15.7516
504 2 1.5967 6.90835 15.7511
3625 3 1.63793 5.08234 17.8153
3626 2 5.26212 5.26545 14.6401
60 3 6.90692 7.09743 14.8688
1631 1 5.03904 7.00212 16.2028
2128 3 7.04879 3.53662 14.4245
1630 1 3.80508 5.12447 16.5023
3136 2 3.54065 6.90393 14.3732
1135 2 7.07869 7.03009 17.7013
2129 1 9.16127 7.0462 16.0725
1629 2 7.15651 5.18292 16.1771
1632 3 10.6857 5.24452 15.9304
3628 2 10.8581 7.02151 14.2988
2130 2 12.5059 6.93564 16.0825
2131 2 14.2799 5.25951 16.2571
3139 2 14.0852 3.60704 17.7909
1137 2 14.2134 6.92745 17.7371
1633 3 16.1222 7.0552 16.0594
1139 3 16.0009 3.58875 16.1296
508 2 1.44084 8.81657 17.8272
1141 3 1.70872 10.6349 16.0001
2133 1 3.30235 8.64704 16.0928
67 1 1.67734 8.97809 14.2974
70 3 5.1809 8.75444 14.7035
69 1 7.05145 10.4595 14.4547
1142 3 5.27389 8.72079 17.7777
71 2 9.05043 8.71987 14.4098
3141 1 10.333 10.5462 14.4792
2134 3 7.17312 8.9248 16.2582
1638 2 12.7917 8.85303 17.8037
3634 1 10.9195 10.5565 17.5732
2637 2 10.7423 8.80355 16.2281
2135 1 16.4699 10.5412 16.0186
2638 1 14.7001 9.10659 15.8769
1640 3 16.0143 8.83882 17.851
2640 1 0.148777 12.4994 16.1547
514 1 1.81077 12.6769 14.3233
3632 2 0.00940389 10.8259 17.7658
1635 2 5.52776 10.7548 16.0911
3633 3 3.74293 10.76 14.6383
516 1 3.62719 14.1744 14.4868
515 1 5.34782 12.6577 14.465
2643 2 5.45501 14.2768 16.2785
2642 3 3.73703 12.7792 16.4413
2141 3 9.10131 14.2582 15.8718
1636 1 9.00647 10.8373 16.1776
3142 1 7.11613 12.5472 16.0956
3143 2 10.8754 12.4223 16.1078
1147 3 12.5359 12.2992 14.3268
1144 2 12.7291 10.7542 16.1579
2646 2 12.627 12.4651 17.6807
3145 1 14.1829 14.1753 17.6472
1148 1 17.7533 12.471 15.9956
1146 1 14.3948 14.0859 14.4524
3144 1 14.5918 12.4181 16.0937
3147 3 16.0042 12.485 17.8252
518 3 -0.0276696 17.8202 14.315
2641 1 1.60522 14.3098 16.1394
2648 2 1.67389 17.6048 16.016
3637 1 3.51664 16.2073 16.5094
1150 2 1.73781 15.775 14.3135
3636 3 0.161711 17.6234 17.8656
3639 1 7.05858 16.1394 16.3112
1642 3 5.30898 16.0361 14.5981
72 1 6.89035 14.3985 14.5832
1643 2 9.17893 16.2663 14.3411
2140 3 7.3403 14.3447 17.8036
2644 1 10.6624 14.4646 17.8438
3643 3 14.2705 16.1408 16.0935
1644 2 14.1956 17.8213 14.2962
2647 2 12.6385 14.3033 16.1625
2649 1 10.8237 17.8312 14.3424
3641 2 10.92 16.1761 16.2671
73 3 10.7988 14.5053 14.294
77 2 16.0853 16.1721 17.6988
3148 2 16.1161 14.3779 16.103
2144 3 17.8232 16.0708 15.7601
80 2 3.52419 1.55959 19.5828
2122 2 1.8049 1.88146 17.9042
2127 3 3.46025 3.44569 18.3768
2145 1 1.803 1.63937 21.3926
3151 3 1.70791 -0.042251 19.4277
3649 2 5.4601 3.49326 19.853
2655 1 3.64012 3.41289 21.4351
79 2 6.99539 2.04218 19.7701
2630 2 5.46082 1.57641 17.9425
1130 3 3.7254 0.0184085 18.0394
81 2 10.694 1.65696 19.5835
2652 1 8.75034 1.6584 21.2982
1132 1 7.34446 0.17948 18.0534
3152 1 9 -0.039822 19.8766
522 2 14.0403 1.74494 19.4382
1649 2 14.1045 0.168115 21.2818
2653 3 12.3471 1.85954 21.3416
3646 1 12.4743 -0.00512221 19.7183
82 3 17.8489 0.0308724 21.4122
3651 3 16.0054 3.4149 19.8393
3623 1 17.728 0.0391737 18.0498
528 1 17.8291 3.5095 21.4396
3647 1 15.989 0.145068 19.7646
2654 3 17.7621 1.98638 19.6852
3154 1 1.71087 3.55185 19.9814
84 3 1.49848 7.10993 19.6782
524 3 3.4929 5.24956 19.5708
1650 3 0.0564939 3.74528 21.4105
3155 3 1.70513 5.31963 21.4306
3648 1 5.26864 5.33899 21.3846
1152 1 5.44574 6.98508 19.5513
3627 1 5.3921 5.13623 17.8748
525 1 7.23884 5.43702 19.9891
85 2 9.01865 3.5303 19.7495
1155 1 10.5316 5.39827 19.778
62 2 8.80009 5.25251 17.8818
2635 1 10.4337 3.77591 17.8759
63 1 10.561 7.02054 17.882
87 3 12.3622 3.67608 19.5967
527 1 12.2492 7.10691 19.7429
1156 1 14.2412 5.35608 19.2852
88 2 12.5417 4.88613 21.3148
64 2 12.3793 5.38487 17.8723
507 3 15.9966 5.32059 17.9404
1157 2 16.1291 6.99848 19.8101
1140 1 17.7616 3.76942 17.9686
1634 3 17.6977 6.98798 17.9383
1158 1 -0.0368405 8.99358 19.7823
1159 3 3.51316 8.66589 19.7715
505 1 3.2619 7.35485 18.1263
532 1 5.28813 10.597 19.4712
531 1 5.28891 8.77347 21.1445
3653 1 3.61597 10.5155 21.2798
533 1 6.92416 10.6475 21.156
68 3 3.58724 10.5114 18.0981
1154 1 8.9341 7.12624 20.0229
1651 3 7.39695 8.75966 19.461
90 3 8.91645 10.6888 19.4834
1161 1 8.93539 8.99636 21.3603
1143 3 8.9397 8.69245 17.9322
1652 3 10.8061 8.9097 19.3489
1162 2 12.4216 9.10131 21.3294
1653 1 14.0916 8.79871 19.5087
1654 3 14.2421 10.4953 21.3051
1656 2 16.0781 10.5294 19.3321
1655 3 15.944 8.91912 21.2055
2136 1 1.80372 12.8437 18.0434
530 3 1.8016 10.7319 19.8098
2149 2 3.38318 12.3381 19.6871
1659 1 1.88388 14.2712 20.0764
1657 3 -0.0159725 12.3227 19.8059
2137 1 0.0104725 14.2437 18.1486
1661 3 3.64885 14.0697 21.3027
1163 3 5.51512 14.0795 19.6362
2138 2 5.25557 12.204 18.0685
2151 3 7.30688 12.6867 19.7554
2152 3 10.546 12.5714 19.7666
1160 3 10.5834 10.7664 21.3858
2645 1 9.03629 12.5294 17.967
509 3 7.22886 10.8754 18.1213
534 1 12.6369 10.8089 19.593
2154 1 12.5422 14.1517 19.8415
2660 1 14.2314 14.2183 21.4191
2659 3 12.3936 12.2599 21.3867
1637 1 14.2612 10.9047 18.1098
2155 3 14.3183 12.6338 19.7334
3150 1 1.84115 16.0189 18.0656
2157 2 1.74943 17.8121 19.7878
3161 2 1.72245 16.2543 21.4403
2664 2 3.92405 16.1391 20.0326
2139 3 3.77074 14.5501 18.1797
3638 2 5.56902 16.1751 18.2072
2663 2 7.27375 16.2799 19.6448
3164 3 9.15975 17.7859 19.7703
1662 3 8.88136 14.6693 20.0723
3642 2 8.9251 16.0756 17.9792
2665 3 10.739 15.9368 19.7146
3656 3 12.6546 16.1881 21.345
3166 3 14.1708 16.2522 19.58
2666 1 12.3264 17.6484 19.6269
75 2 12.4138 15.8536 18.0602
2156 2 16.1205 14.474 19.3187
92 3 15.9788 16.1214 21.3949
1645 1 14.3016 17.8509 17.882
3173 1 1.83271 3.3331 23.2995
93 2 2.06118 1.70273 25.003
2667 1 0.13102 -0.0436395 24.9804
1665 2 1.76122 0.194084 23.1635
2147 1 5.21326 1.57291 21.5235
3169 3 3.72966 1.44776 23.2162
3665 2 5.21918 3.36626 22.9429
3170 3 6.76727 1.67945 23.0835
521 1 3.5704 0.0409467 21.4878
2675 2 6.93698 3.31966 25.0154
3660 1 10.6126 1.57358 23.4319
3666 2 8.77114 3.37646 23.3107
2656 2 10.5478 3.5077 21.7463
2671 3 8.73357 -0.0511869 23.3559
3663 1 14.1252 1.58142 23.1651
3661 1 12.3583 1.9459 24.9861
3179 1 12.3245 3.50467 23.407
2657 1 14.2005 3.42477 21.4905
3153 3 16.0459 1.72946 21.5215
1668 2 17.7999 1.78232 23.0548
3668 2 15.9275 3.38298 23.1808
2160 2 16.0758 0.045011 23.2304
97 3 0.218542 7.01644 25.034
96 1 -0.00316204 5.15184 23.3306
3156 3 7.03395 3.65471 21.5227
526 3 3.54392 7.09525 21.4741
100 3 3.55337 5.29805 23.1442
542 2 6.91403 5.32102 23.1938
543 3 5.45879 5.31865 24.9724
540 3 3.69588 7.05941 24.9573
1153 2 7.12096 6.98617 21.6798
3650 3 8.87554 5.18192 21.7435
547 1 8.75869 5.39591 24.8975
102 1 10.6218 5.29896 23.3746
2148 3 13.8887 7.01399 21.5162
86 2 10.9132 6.96141 21.6133
548 1 14.18 5.24907 23.2747
1670 2 12.184 7.09251 23.3638
3667 3 14.0964 6.86504 24.9542
105 1 14.0426 3.86717 24.8302
89 3 15.7514 5.50403 21.652
1671 2 16.0733 6.96891 23.4485
2677 1 17.7973 5.22542 23.137
529 1 1.59406 9.15382 21.6602
98 3 1.76312 7.19594 22.9706
106 2 1.73377 10.6601 23.1087
541 2 5.23578 7.16699 23.2522
1177 1 3.62654 8.83154 23.2571
1176 2 5.36666 8.8607 24.992
108 3 5.27316 10.4475 23.3131
546 2 9.07332 7.30976 23.4646
1178 3 7.14104 8.95193 23.1847
552 3 8.97864 10.617 23.4747
1674 3 10.8057 9.05947 23.1888
1675 2 14.2236 8.74068 23.2912
1182 1 12.4943 10.6785 23.1785
1676 1 12.4918 8.81819 24.962
1677 2 16.2045 10.4759 23.5682
2163 2 14.4146 10.5997 24.8708
3157 3 17.6769 7.27785 21.5453
555 1 -0.0153068 14.2771 24.9281
3670 3 3.46143 10.9413 24.9428
1658 2 1.75761 12.3117 21.5328
2169 1 3.2824 12.7034 23.1707
1678 3 1.51856 12.3836 24.9368
1180 3 6.96807 10.7814 24.9139
2150 2 5.66939 12.3952 21.64
2170 3 5.1862 14.2184 23.1921
1185 3 5.1199 12.6442 24.7461
2153 3 8.66956 12.6454 21.6647
2167 1 7.174 12.6944 23.4717
2681 3 9.1421 12.4761 24.7984
2658 1 10.7118 14.236 21.6743
2171 1 10.8691 12.5091 23.0974
2683 1 12.4494 14.1796 23.0594
1681 2 12.7219 12.4267 24.9554
2661 3 16.1556 12.464 21.5064
2684 2 14.3639 12.2806 23.0387
114 1 14.4463 14.2098 24.7625
2685 2 16.0195 12.5524 24.5626
2688 3 0.0381543 16.1043 23.1935
2168 3 3.39104 14.3469 24.9808
1184 1 1.76139 14.3556 23.1946
1684 2 1.8 16.2179 24.9757
1660 2 0.0710246 14.2854 21.482
2174 3 5.33785 17.8508 22.8457
3160 1 7.04917 14.3113 21.6684
3185 3 3.69524 15.8769 22.9333
3163 3 5.66626 16.0254 21.454
3655 1 8.62721 16.0366 21.7803
2682 1 9.06951 14.4307 23.435
3186 3 7.17063 16.1237 23.5234
1680 1 10.8137 14.2975 24.8369
3675 1 10.8322 16.4762 23.2901
3676 2 14.23 16.0326 23.1529
3188 2 12.5293 16.0856 24.8581
2178 2 14.1581 17.5957 25.012
2173 2 16.2363 14.334 22.9974
1689 2 16.0166 16.11 24.9069
2668 3 1.70096 0.111109 26.7866
1168 3 1.89724 3.41785 27.0089
1188 2 -0.0133795 0.0285309 28.5692
2669 2 3.58904 1.68117 26.853
1690 2 3.70204 3.45092 28.3121
3658 1 5.34689 1.86118 25.1212
2181 2 5.6903 1.8186 28.5136
94 1 7.10878 1.62851 26.656
3177 1 10.5293 3.46954 25.2513
537 2 8.95379 1.57896 25.1094
1171 3 8.82306 3.42495 26.8547
2672 3 10.6453 1.65586 27.0712
1667 3 12.7901 -0.00395731 26.7958
538 3 14.2504 1.81233 26.6663
104 1 12.6128 3.47401 26.9367
2184 2 12.482 1.59304 28.5022
539 2 16.1699 1.71971 25.0916
3664 3 16.0416 0.0790183 26.9933
99 1 1.82656 5.52674 25.0887
544 2 3.39104 5.45036 27.1072
3194 2 1.51214 5.1619 28.6105
2186 2 0.0410293 6.91002 28.5843
2674 1 0.176724 5.2051 26.7976
3175 2 3.64399 3.92081 25.2506
3176 1 5.44967 3.87795 27.087
2676 1 7.12985 5.08543 26.8026
545 2 10.5439 5.09038 27.0519
1169 3 8.83162 7.01063 26.9043
549 2 12.1449 5.25682 25.1213
103 1 14.0993 5.37905 27.3045
3178 1 12.3984 7.09634 26.8744
1172 1 16.2721 4.93413 25.0518
3180 1 15.7824 3.93194 26.9757
1174 1 16.1167 6.77205 27.146
1175 2 1.88001 8.92413 25.0984
1669 3 1.92093 7.29841 26.9066
101 2 7.06279 7.23761 25.0752
3174 2 5.30899 7.35533 26.9438
107 2 3.63269 8.95928 26.9724
1181 1 8.75423 8.80114 25.3427
2162 2 7.18013 8.74271 26.9186
625 3 8.92644 8.97013 28.4423
1170 2 10.7281 7.31131 25.4856
110 3 10.7057 9.12959 26.961
2164 2 14.1675 8.57043 26.795
626 2 12.6015 8.83492 28.6073
1183 3 16.1853 8.58901 25.1518
554 3 16.2473 10.6209 26.62
553 3 17.6686 8.86545 26.8462
2161 3 1.54703 10.8602 26.7706
2680 3 3.51257 12.4991 26.5847
2679 1 1.70712 14.2236 26.6353
1179 2 5.37277 10.8563 26.5597
1006 2 5.4666 12.4413 28.4131
1679 2 7.05668 12.493 26.7146
112 2 5.3327 14.2534 26.5206
113 2 7.34845 14.2715 25.1673
109 2 8.66389 10.744 26.8241
1008 2 8.86861 12.4954 28.6139
3182 2 10.517 12.5671 26.7687
2172 1 8.92594 14.1954 26.6555
124 3 10.461 14.2434 28.5421
2698 2 10.6879 10.8398 28.5964
551 2 10.7129 10.7226 25.2723
3181 3 12.6454 10.7138 26.608
1009 3 12.5172 12.4229 28.2608
2686 3 17.8504 12.5456 26.7713
1682 3 14.48 12.3035 26.8372
3184 3 16.0849 14.2789 26.5874
1011 1 15.9398 12.272 28.5628
2192 1 1.8222 16.0905 28.6134
1685 1 3.46745 16.1585 26.7953
3673 2 0.273615 16.2252 26.81
115 2 5.53642 17.8425 26.7219
3187 2 5.28421 15.9423 25.1661
1007 3 3.66548 14.3193 28.5922
2193 3 5.37445 15.8614 28.4539
128 1 3.64912 17.697 28.3598
1686 2 8.94763 16.159 25.0566
630 1 7.26585 14.3218 28.612
3674 2 7.23644 16.1799 26.8218
2194 2 8.75887 16.0989 28.4358
2176 3 8.91399 17.8006 26.8392
2175 3 7.11973 17.7758 25.036
558 3 12.44 17.7521 26.9341
1688 2 10.7782 15.9736 26.6314
556 1 12.4356 14.2931 26.7532
116 3 14.0781 16.1108 26.7692
2177 1 10.8377 17.8563 25.1593
3692 3 17.7609 14.4079 28.3991
2704 3 16.0613 16.3703 28.5383
2179 3 17.7648 16.1339 26.6412
1703 2 0.124072 -0.00604607 31.6449
2180 3 1.8894 1.93011 28.6202
2707 3 1.74943 2.04121 32.1132
1014 3 3.30926 0.0924219 31.8869
1015 3 6.81825 -0.00177247 31.9382
3191 1 5.34602 0.153016 30.1122
117 3 3.59645 1.81563 30.0949
2182 1 8.79151 1.77552 28.7289
118 1 7.22733 1.53377 30.3266
119 1 10.4772 1.9275 30.2344
2695 3 14.2578 3.37875 28.7141
561 1 14.203 1.71592 30.656
2694 2 10.8757 3.37412 28.6897
560 3 10.7038 -0.0232822 28.891
638 1 17.781 3.4708 32.1473
3193 1 16.3307 1.63598 28.6698
623 2 16.089 3.45354 30.6696
3205 2 16.1117 1.56463 32.1776
2183 3 14.3696 0.196486 28.6796
2692 3 17.7486 1.68894 30.476
1704 1 0.106316 3.64171 32.0789
120 2 1.98195 3.73604 30.4779
121 3 1.71845 7.03068 30.4809
1190 1 -0.00485539 5.297 30.3184
3680 2 5.30191 3.5926 30.4609
3195 1 5.27113 5.62928 28.7668
1705 1 3.69169 3.55545 32.1746
1001 2 3.70108 5.48847 30.3044
1691 1 6.92123 3.74301 29.1377
3701 2 7.08612 7.1092 32.1669
3700 3 3.67936 7.07161 32.0004
3197 2 8.82533 5.14449 28.7763
3681 2 10.612 7.04265 28.6428
563 3 7.17498 7.0712 28.7535
1191 2 7.22726 5.38785 30.4959
3682 3 8.95379 3.63384 30.5259
1002 3 10.532 5.28002 30.5466
2712 3 10.5813 7.10833 32.1812
2710 1 7.19215 3.77941 32.1953
3684 1 13.9587 7.04461 28.7654
1003 3 12.3352 3.70198 30.6777
3683 2 12.4389 5.34676 29.048
2187 2 12.2939 7.07227 30.5071
3703 1 12.3076 5.39683 32.1828
622 1 17.8557 3.58675 28.6988
3685 3 16.2434 5.34335 28.8732
1693 1 14.3766 5.05535 30.5055
1694 3 16.1185 7.10547 30.3767
3196 3 3.3674 7.22482 28.9278
3687 1 1.69835 8.94402 28.6986
1696 2 3.40658 9.22545 30.4496
3706 3 1.57802 8.97383 31.9694
122 1 7.03136 10.479 28.6389
3689 1 5.19176 8.78865 28.8708
1692 2 5.26874 7.42725 30.4265
134 3 5.43776 9.0582 32.1611
2189 2 7.07947 8.90126 30.3646
2188 3 5.25813 10.6762 30.3303
2693 2 8.80362 7.30089 30.3022
2697 1 10.5012 8.64495 30.192
135 3 8.83764 8.85627 32.1261
2699 1 14.1096 8.76246 30.4919
137 3 12.2238 9.10601 31.9625
3690 2 14.4599 10.4738 28.8718
628 1 16.0222 8.83115 28.6875
136 3 14.2889 10.6714 32.1615
139 1 15.9832 8.8061 32.0773
629 3 1.9696 12.5134 28.8182
624 3 1.84664 10.7516 30.248
3707 2 3.46639 14.0937 32.1365
641 1 1.56975 12.4573 32.1467
3688 3 3.56101 10.7016 28.6724
2700 2 3.59925 12.4027 30.5045
3199 1 7.02573 12.2556 30.2374
642 1 5.36913 12.4699 31.9609
3198 2 5.43078 14.16 30.1461
3708 3 7.27965 14.2528 31.9675
1697 1 8.90459 10.7125 30.0404
2701 2 8.91266 14.1818 30.4724
3200 2 10.4869 12.4407 30.4003
2713 1 10.3586 10.7194 32.0475
644 1 8.67257 12.1836 31.9418
646 2 12.2864 12.0807 32.1383
627 2 12.3502 10.7172 30.3078
3201 2 14.0284 12.5032 30.1908
2702 3 12.1278 13.9521 30.2508
1024 1 15.89 12.625 31.9797
645 1 14.4661 14.1979 31.8463
2190 3 16.0897 10.7427 30.5424
125 1 16.0954 14.1612 30.1428
1700 3 1.73387 17.69 30.1934
3691 3 1.64696 14.3305 30.481
1026 3 1.8435 16.0233 31.9516
126 3 3.59681 16.1479 30.366
127 1 7.07089 16.0444 30.4774
1715 2 6.96229 17.8064 32.1053
3695 2 8.99727 17.6625 30.4322
3696 3 10.6149 16.1077 30.1822
643 3 10.8149 14.3271 32.1846
1699 1 14.099 14.3306 28.7267
2195 1 12.4435 15.8807 28.6518
129 3 14.2132 16.2092 30.3513
1702 2 14.2651 17.8198 28.8962
1717 1 16.1605 16.0565 32.1072
2705 1 17.804 16.0544 30.4183
2719 2 17.6632 14.3623 31.9959
631 2 0.0492672 1.92547 33.8788
3697 3 1.7276 0.0985795 33.7771
3067 2 -0.0374453 3.46775 35.5888
2064 1 1.76176 1.76333 35.4822
2708 1 5.67535 1.91007 32.3217
633 3 3.67789 1.75157 33.7371
2569 3 3.58337 3.51561 35.3617
2709 1 8.95776 1.83267 32.3855
632 1 7.42325 1.60391 33.908
634 2 10.3481 1.62043 34.121
3062 1 8.72009 1.66674 35.6639
3204 2 11.9274 1.78422 32.324
2200 1 14.1402 3.31167 32.3258
635 1 12.4779 0.149491 33.9385
2197 1 14.1923 -0.0457426 32.3633
3064 2 12.2537 1.59162 35.6547
3206 3 17.7255 1.67302 33.947
1016 2 14.3538 1.6228 34.155
1573 3 17.8226 3.4434 35.6244
3065 1 16.207 1.63777 35.7181
4 2 1.75783 5.30118 35.5819
3207 2 2.04867 5.48239 32.2123
3699 3 1.71161 3.59556 33.9489
7 2 5.25317 5.28373 35.7175
3208 3 5.42703 5.29095 32.2471
1018 3 3.65433 5.39591 33.9965
132 3 5.62014 3.77819 33.8195
2199 2 5.17288 7.08192 33.906
1567 1 7.04711 6.99049 35.6587
2711 2 10.3984 3.6241 32.4616
1020 2 8.78666 3.66203 34.1277
3702 2 8.909 5.33271 32.2613
1019 2 7.20986 5.51465 34.003
1707 2 10.551 5.25043 34.0177
1706 1 8.98149 6.99821 33.9017
3068 1 10.6609 3.55695 35.7356
11 1 12.3147 5.38709 35.7412
637 2 12.3222 3.65416 34.0571
1708 2 14.1056 5.22439 33.6907
12 1 14.0632 3.69406 35.3967
639 2 17.8655 6.96044 32.2892
1078 2 15.9606 5.17128 35.7366
1571 1 14.3051 7.07392 35.6688
3704 2 16.2082 5.2231 32.2853
3209 3 14.3379 7.08086 32.2272
133 1 16.09 3.59344 33.8703
1709 2 15.9645 6.91605 33.9953
576 3 3.45691 10.5441 35.573
1082 2 1.48513 8.73221 35.758
8 2 3.29617 7.18104 35.72
636 3 1.81277 7.17432 33.9311
1710 2 1.57949 10.4737 34.2414
1712 2 3.4215 8.70887 33.8158
1577 3 7.00625 10.4257 35.6703
3211 2 3.58983 10.4879 32.3046
1085 3 5.09712 8.66675 35.7772
1022 2 5.16644 10.6611 34.0798
3212 1 7.28594 10.457 32.4752
2202 1 10.6468 8.88233 33.8699
2201 1 7.26802 8.53381 34.2115
1077 1 10.6725 7.1917 35.712
1086 2 8.98201 8.71171 35.6763
1021 2 12.4475 7.2571 33.9712
2073 3 12.4452 8.57124 35.7117
2714 3 16.0615 10.4811 33.898
2203 1 14.2894 8.884 33.8019
2075 2 15.8209 8.99129 35.5843
2076 3 17.6581 10.6426 35.5188
2070 2 17.8427 7.23876 35.5267
2206 3 1.67383 14.1399 33.9376
2715 2 3.26499 12.408 33.8186
2079 3 1.89544 12.4058 35.6653
2716 2 7.06938 12.439 34.128
1713 2 5.11909 14.2149 34.0188
2717 1 10.666 12.4607 33.961
3073 1 8.62726 12.6128 35.6131
2207 2 8.93025 13.9874 33.8304
640 2 9.06462 10.7246 34.0819
3074 1 12.435 12.2823 35.767
2718 2 14.2747 12.5013 33.9721
1023 1 12.566 10.7604 34.0845
1088 1 14.142 10.7421 35.6406
1025 1 17.7948 12.5029 33.9767
1089 1 17.7655 14.2415 35.7647
3075 2 15.9132 12.5476 35.6076
141 2 0.0205029 17.7886 32.2322
3216 1 3.41162 16.1064 33.9901
3214 1 0.0155011 16.0878 33.7894
3076 3 1.81226 16.0305 35.7239