ITEM: TIMESTEP
5000
ITEM: NUMBER OF ATOMS
4000
ITEM: BOX BOUNDS pp pp pp
1.4189790817030001e-01 3.5592162091829664e+01
1.4189790817030001e-01 3.5592162091829664e+01
1.4189790817030001e-01 3.5592162091829664e+01
ITEM: ATOMS id type x y z
1 1 0.359382 1.90747 1.90755
1563 3 0.259797 0.1893 0.0607071
2064 3 2.01484 1.92112 0.0179729
3561 2 1.89907 0.0575134 1.87778
564 1 3.67924 1.81492 1.98309
565 1 7.19737 1.87044 1.8669
1565 2 7.31825 0.133383 0.110646
2065 3 3.63834 0.167791 0.118481
3061 3 5.50028 1.9066 0.0956283
3562 1 5.40011 0.176286 1.91493
566 1 10.7588 1.77999 1.91681
1070 3 10.7719 0.181699 0.184909
3063 2 8.92605 0.150338 2.01925
3062 3 8.91558 1.86417 0.0548816
567 2 14.1823 2.02409 1.91342
2566 1 14.3138 0.188751 0.147015
3064 3 12.4607 1.97981 0.111058
3563 2 12.6154 0.175323 1.95089
2 2 17.6921 0.234537 0.224982
3 3 16.0241 0.327105 1.87821
3066 2 17.7576 1.95698 1.8721
3065 2 16.0679 1.99748 0.0991259
4 2 1.97118 5.62765 0.098641
5 2 1.78123 3.78563 1.81589
6 2 1.82043 7.24952 1.94115
1071 2 0.169421 5.46761 1.9002
3067 1 0.225648 3.75249 0.0291404
3565 3 0.104233 7.24724 0.142322
7 2 5.50448 5.54788 0.0965452
8 1 3.67982 7.06182 0.0396409
1072 3 7.06476 5.48474 1.94682
1075 1 5.39785 7.23916 1.9377
1074 3 3.67722 5.53011 1.80897
1567 1 7.29688 7.18993 0.174726
2570 3 7.10936 3.77825 0.0888687
2569 1 3.63474 3.79578 0.0830604
3569 1 5.31764 3.75722 1.88888
9 2 9.12597 5.46039 0.0994754
10 3 8.91936 3.63385 1.93276
1077 2 10.778 7.25176 0.332848
1076 3 10.6571 5.42964 1.98879
1568 2 8.98315 7.23522 1.96257
3068 2 10.7446 3.70647 0.341345
11 3 12.6315 5.62415 0.108399
12 2 14.4341 3.7598 0.173202
570 3 12.5104 3.86727 1.95536
1571 1 14.3015 7.37858 -0.012197
1570 2 14.4298 5.57912 1.83754
1569 1 12.6437 7.27781 2.02809
572 3 16.0326 3.91105 2.1347
1081 2 16.0544 7.31858 2.06966
1079 1 17.8361 5.68335 2.08429
1078 1 16.0972 5.53458 0.22612
1573 1 17.8724 3.72306 0.297982
2070 2 17.8364 7.15703 0.287537
575 1 1.97486 10.81 1.9389
1082 2 1.86626 8.95404 0.177772
1574 2 0.0724562 9.07547 1.92731
3070 2 0.206735 10.7489 0.214914
576 2 3.59896 10.7782 0.21737
1085 3 5.38036 9.0604 0.146527
1083 1 5.4813 10.7179 1.97268
1577 1 7.19948 10.7264 -0.0597509
1576 3 7.16309 8.92269 1.9013
1575 1 3.55845 9.01985 1.79212
14 3 10.6862 10.8378 0.242774
1087 3 8.98431 10.8112 1.96274
1086 2 8.95929 9.0335 0.148244
2071 2 10.7014 8.96222 1.9701
580 2 12.4829 10.7178 1.84043
1088 1 14.1701 10.8691 -0.0656821
2073 3 12.5183 8.90281 0.00576787
2074 1 14.2135 9.02839 1.79378
15 1 17.8372 8.9621 1.80225
1581 1 15.9932 10.7242 1.97297
2076 1 17.8108 10.9391 0.122502
2075 1 16.0164 9.03929 0.12557
2079 3 1.9454 12.553 0.108375
2078 3 1.92289 14.3489 1.92865
2077 1 0.0452476 12.6016 1.80465
2572 3 0.130617 14.2294 0.0317625
2082 1 5.42624 14.3951 1.80875
2081 2 3.77937 12.5777 1.85102
2080 2 5.54405 12.4242 0.150109
2576 1 7.23837 14.2991 0.123575
2575 3 7.1907 12.4446 1.83659
3071 2 3.78269 14.291 0.171279
1583 1 9.01743 14.3223 1.96324
2084 2 10.7229 14.4988 0.139693
2579 2 10.6915 12.6797 1.98681
3073 1 8.93562 12.6359 0.119989
2085 1 12.5754 14.2831 1.96866
2580 1 14.3479 12.4342 1.87965
3074 3 12.46 12.5877 0.125319
3574 3 14.2189 14.2227 0.0575028
581 3 17.6973 12.577 1.84636
1089 2 17.887 14.2772 0.0636599
2583 1 16.1555 14.1386 1.85666
3075 2 16.1475 12.4504 0.0160003
16 3 0.15526 17.9685 0.165331
2086 3 1.91318 17.75 1.80254
2584 2 0.180007 16.0109 1.76694
3076 2 2.04769 16.0781 0.0548963
17 1 5.50287 16.1908 0.167655
1090 2 3.78944 17.7504 0.14135
2585 1 7.30857 17.8521 0.0969885
3079 3 5.43023 17.7503 2.00892
3078 3 7.27354 16.2187 1.94479
3077 1 3.67876 16.1209 1.98903
18 2 8.90721 16.097 0.0761844
1585 1 10.7865 17.6944 0.0493249
3080 3 10.7263 16.1046 1.93571
3578 3 9.06344 17.9227 1.90142
19 3 12.5685 16.1028 0.259846
2088 2 14.3217 17.7436 0.180558
3081 3 14.3807 15.8617 2.00957
3581 1 12.5537 17.7939 2.00732
20 2 16.198 16.0304 -0.0274234
1586 3 17.9642 16.1546 1.90204
3083 3 16.0957 17.7913 1.83424
3082 2 17.8137 17.8273 0.0190383
584 2 1.97146 1.87505 7.33951
1564 3 0.153286 0.134109 3.59074
2588 3 1.8964 0.147004 5.53305
2563 3 1.91103 1.883 3.81791
3084 3 0.133688 -0.0953966 7.2493
3583 1 -0.169217 1.86081 5.59811
22 1 5.46786 1.9755 7.29465
1069 1 3.76214 0.239975 3.73355
1566 1 7.25432 0.166007 3.83502
2089 3 5.35085 0.0364413 5.40783
2590 1 3.71884 0.13805 7.32287
2564 1 5.29351 1.89125 3.75167
3085 3 7.41573 0.163338 7.07322
3585 3 3.69797 1.88972 5.56793
3584 3 7.20094 2.01343 5.52613
586 1 9.07707 1.88434 7.27143
2066 2 10.817 0.233664 3.70191
2593 2 9.02197 0.215163 5.41208
2565 2 9.02668 2.03839 3.60057
3086 2 10.7708 0.0259401 7.29841
3586 3 10.7819 1.83704 5.44547
23 3 12.4962 1.892 7.26374
24 3 14.2674 0.116097 7.38386
25 1 14.3105 1.90629 5.44415
2568 2 14.2722 0.30557 3.69515
2567 3 12.5539 2.00057 3.62144
3087 3 12.588 0.0769248 5.57238
568 1 17.9672 0.125978 3.63708
588 2 16.1119 1.80032 7.31234
1587 1 17.8711 0.195826 7.32782
3088 3 16.2961 0.16429 5.42497
3588 3 17.8364 1.92068 5.4207
3564 3 16.1225 1.97801 3.77424
27 1 1.78636 5.47979 7.23029
28 3 1.73151 7.29645 5.51965
589 1 0.0448572 5.42645 5.48671
2067 3 0.104137 3.68798 3.8133
3090 1 1.76262 3.54152 5.68537
3590 1 -0.0778121 7.11633 7.19058
3589 1 0.0519271 3.68511 7.39722
3567 2 0.135005 7.04533 3.70842
3566 3 1.87525 5.47018 3.56237
29 3 3.5991 3.66842 7.24559
593 3 3.61117 7.2867 7.25365
592 2 7.16588 5.45981 5.30542
591 2 7.36444 7.21446 7.28469
590 3 3.58215 5.37673 5.5307
1095 3 5.57681 5.38024 7.18107
1094 3 5.33127 7.17201 5.4802
1073 2 3.39221 7.33053 3.53092
2068 3 7.1414 7.2039 3.63406
2069 3 3.50815 3.68999 3.69989
3593 2 5.40245 3.75152 5.38889
3592 2 7.14615 3.74944 7.16913
3570 3 5.32363 5.4182 3.63914
3568 3 7.15593 3.57231 3.66667
31 2 9.06411 3.609 5.64974
569 3 10.8598 7.19839 3.71951
594 1 10.7007 5.38462 5.48306
1097 2 8.99588 5.52627 7.15347
1590 3 8.95103 7.12949 5.39246
1589 2 10.7005 7.25192 7.26816
3594 2 10.6945 3.6172 7.26247
3572 1 10.8116 3.77488 3.71861
3571 3 8.97089 5.33643 3.6154
33 2 12.5862 3.70277 5.57796
35 3 14.3303 3.64376 7.23362
571 3 12.7414 5.4523 3.69149
595 3 14.1869 7.15687 7.30314
1100 2 14.2045 5.47593 5.49907
1099 3 12.4661 5.49898 7.30379
1592 1 12.5165 7.32523 5.48573
1572 2 14.2277 7.32245 3.72885
3069 2 14.4103 3.66973 3.94877
573 1 16.0711 5.48017 3.88505
1080 1 17.846 3.58662 3.66647
1595 2 16.0117 7.24241 5.53864
1594 1 16.1582 5.54091 7.16934
2094 3 17.805 7.28102 7.31674
2092 1 17.8353 3.52727 7.15417
2571 3 17.9083 7.4429 3.64887
3092 2 17.9747 5.40588 5.32978
3595 1 16.0873 3.70811 5.58596
13 2 0.116203 10.9106 3.68847
597 3 -0.00835753 10.5271 7.25649
596 2 1.82872 10.7243 5.47468
574 2 1.77156 9.06749 3.79899
1102 1 1.89829 9.02696 7.26668
1101 2 0.00330863 8.9874 5.43242
38 1 3.49647 10.6013 7.13343
578 2 3.53994 10.6977 3.65243
577 1 5.41976 9.14067 3.72169
1106 3 7.18896 10.6518 7.17887
1104 3 5.46011 10.7076 5.45995
1103 2 3.62666 8.98288 5.38081
1084 2 7.16679 10.7204 3.72076
1597 2 7.28176 9.08198 5.45746
1596 3 5.39091 8.98025 7.18331
39 3 10.7174 10.8474 7.15545
599 2 8.96554 10.8195 5.45397
579 2 10.7994 10.7339 3.61813
1107 1 9.04312 8.93829 7.0535
1578 1 8.93262 8.95832 3.75954
2097 1 10.7698 8.97968 5.44553
1108 2 12.5504 10.7947 5.45599
1598 1 12.4895 9.07638 7.19191
1579 3 12.5129 8.99437 3.79316
2072 3 14.3058 10.6683 3.67849
2099 2 14.3565 10.8603 7.32934
2098 2 14.3014 8.99777 5.69311
1599 1 16.0192 9.06446 7.27491
1580 3 16.0992 9.10941 3.56376
2100 1 16.1398 10.8067 5.47897
3093 3 17.8333 10.8545 7.36935
3597 1 17.6894 9.11706 5.55878
3573 1 17.9807 10.952 3.73321
1110 1 0.0929968 14.4413 7.18543
1582 3 1.85729 12.5808 3.62919
2103 3 1.68018 12.5302 7.23286
2102 1 1.92064 14.2375 5.35708
2101 1 0.267609 12.5391 5.39292
2573 2 0.202546 14.4267 3.6606
1112 1 7.17947 14.4459 7.30539
1600 1 5.36549 12.5533 7.38002
2104 2 5.4932 14.306 5.56006
2083 3 3.71112 14.3127 3.6642
2601 1 7.15431 12.4792 5.39801
2600 3 3.66672 12.3797 5.33833
2599 3 3.6196 14.1716 7.16902
2577 3 7.26022 14.3603 3.66917
2574 3 5.36574 12.5656 3.7721
2604 2 9.05297 14.3526 5.57193
2603 1 10.7747 14.3356 7.22965
2602 2 10.8223 12.5363 5.47087
2578 3 8.92384 12.6415 3.85498
3097 3 8.90545 12.5223 7.24259
3072 3 10.7255 14.3977 3.79212
602 3 14.2294 14.1658 7.34053
1603 3 12.4366 12.5763 7.24174
2605 2 14.4051 12.5196 5.35685
2581 2 12.5627 12.6356 3.61671
3098 3 12.5097 14.2769 5.52663
3575 3 14.4009 14.2801 3.72321
1114 1 17.8577 12.5401 5.47172
1584 3 17.8131 14.3313 3.70077
2582 2 16.1054 12.6204 3.61142
3100 1 16.0298 14.4033 5.56082
3099 2 16.13 12.5054 7.26582
3599 3 18.0721 14.2108 7.12494
582 3 0.0294889 17.7784 3.61401
1605 3 1.79009 17.8215 5.44003
1604 1 1.91074 16.0446 7.27151
3104 2 0.154638 16.106 5.51536
3103 1 0.202416 17.859 7.21402
3576 2 2.01705 15.9325 3.7388
2087 1 3.63163 17.7993 3.68282
2607 1 5.46258 17.7999 5.45531
2586 2 7.21445 17.7162 3.75573
3107 1 7.05225 17.956 7.18006
3106 3 5.38611 16.1875 7.28488
3105 1 3.68136 17.8884 7.2023
3602 2 3.64331 15.9889 5.38858
3601 2 7.17825 16.0949 5.62074
3577 2 5.3442 16.0572 3.67388
1091 2 10.8005 17.7898 3.70124
2107 3 8.90432 16.2057 7.37831
2608 2 8.84862 17.8547 5.63193
3109 3 10.7616 17.8854 7.23062
3603 3 10.8397 16.0721 5.55856
3579 2 9.03391 16.1393 3.90584
41 1 14.2977 15.9436 5.66783
2610 1 12.4953 17.8775 5.60773
2609 2 14.3133 17.8238 7.21335
2587 2 14.2334 17.754 3.76838
3604 3 12.4944 16.0937 7.40075
3580 1 12.5692 16.0765 3.77473
583 1 16.128 15.991 3.68494
1606 2 17.8858 17.8184 7.33133
2109 1 16.1794 15.9852 7.48366
3112 3 16.0827 17.7948 5.48078
3110 1 17.7407 16.0758 5.60716
3582 1 17.8709 17.7987 3.76331
21 3 0.248983 1.96462 9.0357
604 3 0.110963 0.182779 10.8054
2110 3 2.02211 1.81472 10.7788
2589 3 1.8508 0.0300873 8.95454
585 3 7.22183 1.945 8.99258
1092 3 5.40473 0.0564924 8.97644
1608 3 7.25041 0.0851555 10.7701
1607 3 3.63787 0.0136649 10.7805
2111 2 5.43557 1.76608 10.8278
2591 1 3.66126 1.75205 9.04117
1116 3 10.6608 0.0277972 10.8445
2612 3 8.99697 1.81098 10.6405
2592 1 10.9491 1.80076 9.07672
3587 3 9.0427 0.119253 8.91324
587 1 14.4158 1.90872 9.08224
1609 2 14.4525 0.0560691 10.8769
2090 1 12.4678 0.122276 9.15409
2613 2 12.5911 1.95185 10.8083
26 1 16.1888 0.111432 9.08201
2594 1 17.8159 1.96079 9.17923
3116 1 16.1029 2.00457 10.764
3115 3 17.8272 0.00198412 10.9139
1093 3 1.85585 7.2976 9.10007
2091 1 1.86875 3.60766 9.03391
2615 3 0.181198 3.51616 10.9167
3118 2 0.0636838 7.23655 10.7308
3117 3 1.89363 5.38791 10.7166
3089 2 0.0711118 5.5142 9.04431
30 1 5.33478 3.79588 9.03555
45 3 7.18808 7.28643 10.6641
1096 2 3.55538 5.44446 8.90359
2112 2 7.19179 3.71869 10.6935
2616 1 3.71462 3.61955 10.7617
3091 1 7.2564 5.47154 8.96236
3608 2 3.69503 7.18941 10.6163
3607 2 5.52683 5.53316 10.6333
3591 1 5.42819 7.20098 9.00662
46 2 10.7058 7.14634 10.6708
1098 3 10.7834 5.45946 9.08625
1591 2 8.90684 3.65242 8.88153
1588 2 9.05086 7.22624 9.10759
2113 2 10.7752 3.69988 10.7498
3609 1 8.98317 5.32022 10.75
32 3 12.4964 7.25709 8.97073
34 3 12.61 3.6537 8.93156
36 1 14.5933 5.44798 8.89221
609 3 14.2328 7.13094 10.7051
3119 2 14.2918 3.80507 10.712
3611 1 12.4833 5.49307 10.9376
1120 2 17.8438 3.84409 10.8732
1615 3 17.8647 7.19272 10.7629
1593 2 17.9732 5.54314 9.09881
2093 3 15.9868 7.35427 9.05307
2595 1 16.1695 3.91902 9.05114
3612 2 15.9918 5.48184 10.8753
48 1 1.74037 9.20619 10.7709
2095 1 -0.0346702 8.85743 9.01267
2596 2 1.79527 10.7573 9.07605
3120 1 0.043422 10.783 10.8516
37 1 3.72272 9.10208 9.02418
49 3 5.45661 8.99825 10.7629
612 1 7.33099 10.6164 10.6706
1105 2 5.46678 10.6188 9.00258
2096 1 7.37431 8.95435 9.00365
3121 3 3.71311 10.7793 10.7866
613 2 9.1359 8.96822 10.8871
598 3 10.8279 9.04675 9.03433
3613 1 10.8256 10.8463 10.8958
3596 1 9.02246 10.6964 8.99332
50 1 14.0988 10.8295 10.7672
614 2 12.5688 8.9988 10.7023
2598 2 12.529 10.916 9.03393
2597 1 14.1991 9.09385 8.99427
51 1 17.8806 10.4603 10.8931
600 1 17.9526 9.0217 9.13508
1122 1 15.8435 8.98523 10.7896
1109 1 16.1133 10.9218 9.0522
616 3 0.116619 14.4421 10.7312
601 2 0.123084 12.5507 9.10175
1123 1 1.8239 12.5271 10.7896
3094 1 1.78952 14.282 8.99789
1124 3 5.54383 12.454 10.6569
1111 1 5.54517 14.3694 8.9779
1619 2 7.18796 14.4466 10.8
1618 1 3.51562 14.3616 10.7989
1601 3 7.26921 12.5512 8.94012
3095 3 3.53305 12.4453 8.96512
617 1 10.763 14.3905 10.8369
1125 2 8.94058 12.519 10.8978
3096 2 8.97594 14.4592 9.01223
3598 1 10.7965 12.5913 9.08581
1126 2 14.3108 14.2561 10.7047
1113 1 12.5161 14.3613 9.24776
1620 2 12.5441 12.4886 10.9852
1602 1 14.242 12.4643 9.07816
1621 3 16.1446 12.4171 10.785
3126 1 17.8316 14.3497 10.8679
3102 1 16.0088 14.2116 8.94922
3101 2 17.9384 12.6675 9.09721
1623 1 0.114074 17.871 10.7704
2119 2 1.92159 16.139 10.8358
2606 2 1.90973 17.8703 9.05109
3600 2 0.221977 16.0636 9.12838
40 2 7.13285 16.1415 8.99408
619 3 3.62642 17.9466 10.882
1127 2 7.10189 17.918 10.8557
2120 3 5.42353 16.1084 10.6804
2106 3 3.74245 16.0238 8.97513
2105 2 5.4948 17.8636 9.0162
1624 1 10.7242 17.8921 10.858
2108 3 10.699 16.0754 9.25272
2625 1 8.89426 16.1269 10.8063
3108 1 9.00473 17.8472 9.14637
603 2 14.3479 16.1555 8.84058
1115 1 12.6515 17.8908 9.11391
2626 3 12.6925 16.1317 10.959
3620 2 14.4142 17.8596 10.7983
2628 3 16.1222 16.0382 10.7498
2611 1 17.8295 16.0387 8.99231
3127 1 17.8156 17.7811 10.6263
3111 1 16.1285 17.9021 9.01813
42 2 0.0289054 1.90436 12.6352
2121 2 0.101433 0.074102 14.2703
2629 1 1.94352 1.92801 14.2818
3113 3 1.89873 0.0415352 12.5831
43 3 3.66162 1.97628 12.6585
605 2 7.10041 1.85904 12.424
1625 3 7.11052 0.0919566 14.2953
2123 1 3.74042 0.0580305 14.3849
3128 2 5.54691 2.02042 14.3852
3605 1 5.31693 0.0045315 12.5283
606 3 10.8008 2.10566 12.5194
1627 1 10.8207 0.235585 14.2567
3129 1 8.94603 1.85145 14.3292
3606 3 8.96941 0.288788 12.573
1117 3 14.264 1.84695 12.4725
2632 3 14.3116 0.150643 14.3188
3131 1 12.6008 1.94631 14.4076
3114 2 12.4533 0.171771 12.471
44 3 16.0464 0.0742501 12.706
501 2 17.9357 0.0782334 14.3589
2614 3 17.7691 1.99656 12.6096
3132 1 16.1524 1.81944 14.3457
607 2 1.84607 3.77377 12.513
1119 3 1.98155 7.12434 12.6653
1118 1 0.31545 5.46965 12.5445
2634 1 0.0798889 7.26679 14.3311
2633 3 0.133942 3.72023 14.3993
3624 2 1.87522 5.38084 14.4216
60 2 7.08089 7.07011 14.5555
608 2 5.54792 3.66184 12.5902
1612 2 7.25396 5.51455 12.5619
1611 3 5.401 7.06488 12.4651
1610 1 3.76181 5.34304 12.6289
2128 1 7.17198 3.74671 14.3527
2126 3 3.62658 3.62342 14.3756
3136 1 3.6222 7.19908 14.3621
3626 2 5.4228 5.48832 14.4041
1613 2 10.791 5.39155 12.6523
2114 3 9.06423 7.27481 12.569
3137 1 10.5783 3.69304 14.3999
3629 2 9.09517 5.51289 14.3998
3628 3 10.8421 7.25919 14.3046
3610 3 8.93873 3.80056 12.6305
610 1 12.6014 3.81436 12.6866
1614 1 14.4067 5.5968 12.7596
2617 3 12.5144 7.20296 12.5413
3138 3 14.3832 3.71439 14.29
3631 2 14.3191 7.28916 14.3595
3630 1 12.439 5.38276 14.4219
47 3 17.9042 5.52686 12.5604
65 1 16.0359 5.48131 14.5324
1138 3 17.92 3.85715 14.326
1121 3 16.1215 3.79562 12.7014
2618 3 16.1047 7.30443 12.5713
3140 2 17.8119 7.16365 14.3536
67 1 1.94984 8.95984 14.4122
611 2 1.91625 10.7844 12.5864
2115 2 0.286646 9.03041 12.638
2636 1 0.177286 10.9654 14.0779
69 3 7.25025 10.7956 14.3388
70 2 5.44488 9.00599 14.2385
1616 1 5.51965 10.7233 12.5283
2116 1 3.61567 9.09743 12.6124
2619 2 7.21041 8.90273 12.5673
3633 2 3.80286 10.737 14.3341
71 2 8.93792 8.91557 14.2186
2117 3 8.92595 10.7714 12.484
2620 2 10.7431 9.00433 12.4622
3141 1 10.6718 10.7406 14.3547
510 2 12.5579 8.99718 14.5735
1617 3 12.4638 10.7271 12.6532
3122 3 14.2211 8.95684 12.5915
3635 2 14.3572 10.7338 14.4343
511 2 16.1279 8.8428 14.4149
615 1 17.9072 8.80539 12.5976
1639 3 17.7902 10.6888 14.3411
2118 2 16.0417 10.4723 12.6743
513 2 0.209856 14.2773 14.3661
514 3 1.92189 12.5008 14.3048
2621 2 0.0996222 12.5727 12.4623
3123 3 1.88023 14.2399 12.5132
72 3 7.18134 14.3963 14.2588
515 2 5.44871 12.5483 14.2687
516 3 3.71453 14.3241 14.1398
3125 2 7.17123 12.5939 12.4593
3124 3 3.8237 12.4905 12.5879
3614 2 5.3608 14.4056 12.5715
73 3 10.6642 14.3323 14.4173
1145 3 8.96649 12.5983 14.2861
3616 2 10.7203 12.5491 12.5689
3615 3 8.90436 14.3506 12.5206
1147 1 12.6673 12.5491 14.3027
1146 3 14.4194 14.319 14.3245
2622 1 12.6561 14.2281 12.4328
3617 2 14.4676 12.5197 12.6146
1149 2 16.0891 12.5438 14.3256
1622 3 17.8689 12.5153 12.4442
3146 1 17.9634 14.3355 14.3306
3618 2 16.1201 14.2731 12.4424
52 3 0.0889976 16.1598 12.4976
518 1 0.215858 18.0129 14.3032
1150 2 1.92574 16.1025 14.2352
2623 1 1.81345 17.9891 12.5225
53 3 3.6196 16.243 12.4917
618 3 7.14122 16.0795 12.5724
1151 1 3.5278 17.936 14.3062
1642 2 5.41693 16.1173 14.2357
2142 3 7.19689 17.8416 14.2795
2624 3 5.33153 17.9427 12.5686
54 1 10.7881 16.0456 12.6114
1643 3 9.00973 16.2358 14.3897
2649 3 10.7981 17.7513 14.445
3619 3 9.07111 17.8077 12.7348
55 1 12.6758 17.7807 12.6432
620 2 14.387 16.1704 12.7015
1646 1 12.5577 15.9618 14.2664
1644 1 14.4363 17.9792 14.3522
56 1 16.1222 17.7951 12.5737
1647 2 16.1813 16.2359 14.2081
2627 2 17.849 16.0699 12.4289
3644 2 17.8851 17.8761 14.4097
57 1 1.83983 0.288827 16.0544
621 3 0.134542 1.94104 16.0724
1128 3 0.130528 0.195784 18.0826
2122 1 1.93638 1.92947 17.9215
58 3 5.40897 0.116849 16.112
1132 2 7.24802 0.138816 17.7384
1131 2 7.25518 2.06615 16.0933
1130 3 3.70874 0.156608 17.7788
1129 2 3.7455 1.92188 16.0573
2630 2 5.43227 2.03326 17.7739
1133 3 10.81 1.92998 16.0363
1626 2 10.8934 0.246152 17.8265
2631 3 9.1895 2.02658 17.8176
3621 3 8.91827 0.194367 16.1284
59 3 12.6619 0.235621 16.1991
1134 3 14.4801 1.89168 16.1439
2124 1 14.4518 0.0275506 17.8443
3130 1 12.6191 1.9413 17.8272
502 1 16.2534 0.165514 16.0439
3133 2 16.1254 1.92731 18.0021
3623 2 17.8401 0.209005 17.8309
3622 1 17.7926 1.92924 16.1293
503 1 1.90536 3.56417 16.1669
504 2 1.91668 7.12057 16.1294
1628 3 0.162414 5.41802 16.1324
2125 2 0.143035 3.73373 17.9658
3134 3 0.202532 7.18994 18.0277
3625 2 1.9686 5.29546 17.8586
61 1 5.45381 3.62266 16.06
505 3 3.63629 7.00144 17.8617
1135 3 7.20482 7.32133 17.9963
1631 1 5.42959 7.20596 16.0879
1630 2 3.69891 5.40406 16.0264
1629 2 7.14495 5.42885 16.0796
2127 3 3.77443 3.69669 17.8831
3135 3 7.23247 3.6825 17.8465
3627 3 5.38008 5.41677 17.8864
62 3 8.93372 5.5117 17.8752
63 3 10.886 7.1793 17.9063
506 3 8.951 3.77438 16.2222
1632 2 10.7784 5.39379 16.0405
2129 3 8.8882 7.17791 16.2476
2635 1 10.7892 3.77229 17.891
64 1 12.5535 5.4274 17.8018
1137 1 14.3187 7.06185 17.947
1136 3 12.477 3.66025 16.0463
2131 1 14.3939 5.41099 16.0751
2130 2 12.6034 7.07198 16.1056
3139 1 14.342 3.70641 17.8645
66 2 17.9426 5.48403 16.1456
507 1 16.2437 5.50302 17.8106
1140 3 17.941 3.79929 17.9403
1139 3 16.1521 3.66566 16.1153
1634 1 17.8864 7.39269 17.9304
1633 3 16.2481 7.21076 16.0467
508 3 1.96783 8.92978 17.7376
1141 1 1.82471 10.7675 16.1277
2132 3 0.117979 9.22584 16.015
3632 2 0.227926 10.8157 17.911
68 1 3.73682 10.7944 17.8159
509 2 7.21958 10.7538 17.8934
1142 3 5.38074 9.10933 17.8319
1635 1 5.52065 10.6352 16.0485
2134 1 7.15375 8.89232 16.1739
2133 3 3.70289 9.01778 16.1407
1143 2 8.97757 9.01441 17.9285
1636 1 8.98057 10.7601 16.1536
2637 2 10.5979 8.99741 16.2262
3634 2 10.8312 10.7525 18.0573
1144 1 12.501 10.7882 16.1392
1638 2 12.4154 8.9762 17.9366
1637 3 14.348 10.8201 17.9185
2638 1 14.1381 8.96454 16.2876
512 3 17.7807 8.91922 16.2135
1640 3 15.939 8.94859 17.8327
2135 1 16.0674 10.8716 16.1252
2639 3 17.8386 10.7328 17.8722
2137 2 0.26031 14.3389 17.8242
2136 2 1.87616 12.5359 17.7397
2641 1 1.91321 14.2732 15.9886
2640 1 0.0905643 12.6372 16.0902
2140 3 7.28933 14.2864 17.9448
2139 3 3.81197 14.4099 17.7962
2138 2 5.59659 12.5015 17.8376
2643 1 5.46883 14.4174 16.0444
2642 3 3.8128 12.6086 15.9962
3142 2 7.14764 12.5145 16.1726
2141 3 8.94462 14.216 16.0987
2645 2 9.00168 12.5107 17.9021
2644 2 10.758 14.3043 17.8858
3143 1 10.9223 12.4794 16.0792
2647 2 12.6256 14.3054 16.1043
2646 3 12.5335 12.5209 17.9672
3145 3 14.3772 14.24 17.858
3144 2 14.2359 12.6015 16.0968
517 1 17.803 14.3071 17.9404
1148 2 17.988 12.6251 16.0823
3148 1 16.1325 14.1546 16.0567
3147 2 16.0897 12.5659 17.7154
2648 2 1.8224 17.7742 16.1779
3150 2 1.94825 16.1416 17.7956
3149 2 0.197206 16.0676 15.9781
3636 3 0.171146 17.6675 17.9707
1641 1 3.78847 17.7477 17.796
2143 3 7.19023 17.9586 17.8741
3640 1 5.51458 17.9373 15.8932
3639 3 7.17858 16.169 16.1016
3638 2 5.46427 16.1008 17.8711
3637 2 3.71028 16.1777 15.8992
74 2 9.12143 17.9358 16.0077
519 2 10.8858 17.8587 17.8229
3642 3 8.85112 16.1087 17.8021
3641 3 10.8227 15.9524 16.0777
75 3 12.5004 16.0922 17.7978
76 2 12.5502 17.9276 16.0346
1645 2 14.4246 17.9466 17.7648
3643 3 14.4275 16.0391 15.9746
77 3 16.0028 16.1259 17.7289
2144 2 17.8389 16.1168 16.008
2650 2 17.8451 17.8812 17.8846
3645 1 16.0843 17.9288 16.0512
520 3 0.175527 0.23891 21.4775
78 3 0.138189 1.94404 19.7152
2145 1 2.04838 1.98329 21.4084
3151 2 1.84403 0.10445 19.6401
521 3 3.66911 0.086391 21.456
80 2 3.82787 1.8766 19.5967
79 1 7.12171 1.8009 19.5285
2147 1 5.44687 1.83515 21.3514
2146 2 7.38979 0.0388425 21.2866
2651 2 5.41296 0.0372416 19.5976
81 2 10.7763 1.93697 19.597
1648 3 10.7245 0.232112 21.3464
2652 1 8.94986 1.84198 21.1549
3152 1 9.01906 0.0518704 19.4662
522 2 14.2228 2.05373 19.5951
1649 3 14.3565 0.116506 21.4736
2653 2 12.4777 1.95434 21.3667
3646 2 12.6784 0.164862 19.427
82 2 17.9081 0.262108 21.4762
2654 1 17.7497 2.06392 19.6614
3153 2 16.02 2.04856 21.5029
3647 3 16.2242 0.108219 19.7011
523 1 0.0630656 5.38723 19.7003
84 1 1.94803 7.08488 19.5907
83 3 0.0410842 7.28938 21.4748
1650 2 0.175647 3.62909 21.5152
3155 1 1.90498 5.46275 21.5517
3154 1 1.87243 3.81086 19.8571
524 2 3.68916 5.32839 19.6816
525 3 7.27309 5.47173 19.6471
526 3 3.6274 7.22087 21.3072
1153 3 7.20479 7.32755 21.2821
1152 3 5.45672 7.1339 19.5514
2655 3 3.70398 3.70999 21.476
3156 2 7.25577 3.57609 21.3309
3649 2 5.51697 3.79555 19.6704
3648 3 5.44987 5.40082 21.2661
86 3 10.9334 7.31564 21.5987
85 3 9.10566 3.85225 19.6512
1155 1 10.9236 5.60739 19.7532
1154 1 9.08725 7.21719 19.869
2656 2 10.753 3.57282 21.3801
3650 2 8.95636 5.43856 21.4385
527 1 12.6472 7.27672 19.7934
88 2 12.5621 5.59875 21.448
87 3 12.5566 3.82796 19.6568
1156 1 14.3376 5.47957 19.7164
2148 2 14.31 7.16323 21.3711
2657 1 14.2315 3.65983 21.4401
528 1 17.9029 3.58571 21.3928
89 3 16.1228 5.41159 21.4514
1157 3 16.0459 7.33984 19.7596
3158 1 17.8741 5.44133 19.908
3157 3 17.9702 7.33747 21.4496
3651 1 16.1169 3.75859 19.5751
529 3 1.99916 9.00303 21.3978
530 3 2.15272 10.7892 19.5255
1158 1 0.168341 8.90563 19.7066
3652 2 0.342218 10.8167 21.2168
531 1 5.29508 9.06253 21.2975
532 2 5.43074 10.9244 19.6009
533 1 7.31559 10.9492 21.3663
1159 1 3.64222 9.00147 19.6426
1651 3 7.16404 9.19361 19.5923
3653 3 3.71586 10.8613 21.2907
90 2 9.04498 10.7844 19.6985
1161 3 9.00917 9.06825 21.4163
1160 1 10.7236 10.8023 21.3561
1652 3 10.7045 8.9367 19.6906
534 2 12.5623 10.8561 19.7226
1162 2 12.4924 9.0486 21.4408
1654 2 14.2712 10.9008 21.4144
1653 1 14.1501 9.08336 19.7002
1656 3 16.0914 10.6446 19.609
1655 1 15.8902 9.08354 21.4927
3159 3 17.8416 10.727 21.2658
3654 2 17.776 8.96136 19.7358
1660 2 0.224385 14.3741 21.4319
1659 2 2.03879 14.3235 19.7153
1658 3 1.98589 12.6269 21.3975
1657 3 0.315184 12.5975 19.6434
1163 3 5.48621 14.4476 19.6643
1661 2 3.75801 14.5176 21.5518
2151 1 7.21842 12.5349 19.5167
2150 2 5.42513 12.5854 21.3633
2149 3 3.73885 12.7055 19.5796
3160 2 7.25389 14.1311 21.3027
1662 3 8.93864 14.3645 19.5796
2153 1 9.02734 12.6307 21.463
2152 1 10.8023 12.4842 19.5372
2658 1 10.7115 14.4222 21.5194
2155 2 14.2896 12.6278 19.7019
2154 1 12.4883 14.2102 19.726
2660 1 14.3315 14.3187 21.4784
2659 1 12.5204 12.5629 21.532
535 1 17.8605 12.5837 19.603
1164 3 17.78 14.2584 21.3768
2156 2 16.142 14.3102 19.6054
2661 1 15.9127 12.5159 21.2557
1165 3 0.234539 17.8551 21.3352
2157 3 1.96984 18.0148 19.6941
2662 2 0.158325 15.9256 19.6763
3161 3 1.9401 16.1546 21.3692
1664 2 7.44009 17.868 21.4062
1663 3 3.7133 17.8829 21.3047
2664 3 3.62276 16.0572 19.579
2663 1 7.17994 16.2852 19.5629
3163 3 5.52037 16.1683 21.2886
3162 1 5.33887 18.1131 19.5287
536 1 10.764 17.9882 21.378
2665 1 10.7575 15.926 19.6852
3164 3 9.05769 17.8262 19.4964
3655 1 8.86693 15.9408 21.4527
2666 3 12.5836 17.9284 19.6186
3166 3 14.3414 16.1474 19.6423
3165 1 14.4301 17.924 21.4957
3656 2 12.542 16.199 21.3659
92 2 16.0545 16.14 21.265
91 1 17.9728 17.8243 21.373
1166 1 17.7624 16.0895 19.6292
3167 3 16.0411 17.9766 19.6752
93 2 1.86482 1.87777 25.068
1665 1 1.96239 0.223705 23.2524
2667 3 0.0546296 0.235651 24.9583
3168 3 0.239213 1.87383 23.2266
2158 1 5.45444 0.0350603 23.1969
2670 2 3.77925 0.101693 24.9846
3170 3 7.1734 1.85746 23.1292
3169 3 3.81963 1.76683 23.2502
3659 2 7.22255 0.11531 24.766
3658 2 5.56296 1.77123 25.0555
537 3 9.02676 1.89963 24.8165
2671 1 8.98273 0.0234794 23.1589
3171 2 10.7486 0.262555 24.8617
3660 3 10.7583 1.89682 23.129
2673 1 12.5213 0.183121 23.2603
3663 3 14.2593 2.05045 23.1611
3662 2 14.2305 0.357669 24.9579
3661 1 12.5197 1.86153 24.8675
539 1 16.0741 2.01547 24.9374
1167 1 18.0638 0.135475 25.0308
1668 1 17.9354 1.92503 23.0791
2160 1 16.0981 0.254675 23.2173
99 2 1.93886 5.61593 24.8804
98 2 1.88458 7.25238 23.2204
97 1 0.196677 7.21318 24.9189
96 2 0.283706 5.432 23.2709
3173 1 1.95201 3.53997 23.2391
3172 2 0.141922 3.72377 24.9973
540 1 3.73617 7.32363 24.8092
541 1 5.41329 7.21425 23.1948
542 2 7.05481 5.47096 23.1416
543 3 5.43502 5.47628 24.9044
101 1 7.15118 7.37021 24.8437
100 3 3.63365 5.41469 23.2322
2675 1 7.1913 3.60368 24.9536
3175 3 3.67444 3.74496 24.9909
3665 3 5.38148 3.60282 23.1067
546 3 8.84434 7.2755 23.2067
547 1 8.82426 5.51241 24.8409
102 1 10.7226 5.548 23.2106
1170 3 10.5914 7.25973 24.897
3177 2 10.6514 3.70421 24.9598
3666 1 8.89136 3.70713 23.225
548 3 14.4575 5.43573 23.1758
549 1 12.4265 5.44224 24.967
105 3 14.2187 3.67166 24.9375
1670 3 12.6295 7.28581 23.3274
3179 3 12.5097 3.70117 23.301
3667 3 14.3449 7.1082 24.9692
1172 3 16.1166 5.37584 24.9509
1672 3 17.8097 3.71733 24.9435
1671 3 16.0947 7.29237 23.0572
2678 1 17.9346 7.29818 24.8966
2677 3 17.8636 5.34928 23.1479
3668 1 16.045 3.71178 23.1901
550 3 -0.0387067 9.16792 23.0892
106 1 1.98904 10.7608 23.0688
1175 2 1.87468 9.00238 24.8765
3669 3 0.139419 10.8093 24.8567
108 1 5.37114 10.9512 23.03
1180 1 7.09852 10.7108 24.8605
1178 3 7.26109 9.06411 23.0616
1177 2 3.64034 9.07344 23.1084
1176 2 5.37164 9.24951 24.8447
3670 1 3.62367 10.8593 25.0138
551 2 10.7861 10.7435 24.9279
552 3 8.97309 10.8424 23.2595
1181 2 8.95054 9.03974 24.8131
1674 3 10.6846 9.0214 23.1892
1182 3 12.584 10.6216 23.2337
1676 2 12.5615 8.875 25.0185
1675 2 14.3692 9.04558 23.2373
2163 2 14.2773 10.7919 24.9836
1183 2 16.1697 8.91161 25.0337
1677 3 16.1001 10.8059 23.2199
2165 2 17.786 10.6731 25.0755
3671 3 17.9398 8.97065 23.1512
555 3 0.290432 14.3541 24.8335
1184 2 1.90142 14.3677 23.1003
1678 1 2.03542 12.573 24.9837
2166 1 0.201395 12.4755 23.0969
113 2 7.14984 14.3242 24.9183
1185 1 5.48396 12.534 24.8924
2170 1 5.59713 14.2997 23.1151
2169 3 3.60186 12.6119 23.1309
2168 3 3.79029 14.3006 24.7807
2167 2 7.23526 12.514 23.2192
1680 1 10.9556 14.2756 24.909
2171 1 10.7734 12.4572 23.3375
2682 2 8.86778 14.2566 23.2503
2681 1 8.97558 12.628 24.9383
114 2 14.4858 14.3196 25.1282
1681 2 12.5149 12.4121 24.9725
2684 3 14.3899 12.6378 23.3019
2683 1 12.6266 14.3934 23.1672
557 3 17.7546 12.5036 23.0373
2173 1 16.1362 14.4518 23.2884
2685 2 15.9359 12.7246 25.1584
3183 3 17.8925 14.2333 24.9338
1684 1 1.95682 15.9767 24.8753
1683 3 2.00688 17.8974 23.101
2688 2 0.26589 16.0991 23.0889
2687 2 0.297866 17.8615 24.9353
2175 3 7.16626 17.7545 24.8571
2174 3 5.45515 17.8668 23.22
2689 2 3.65619 17.9458 24.9802
3187 3 5.20603 16.1075 24.9179
3186 2 7.1751 16.0482 23.0754
3185 1 3.78844 16.0754 23.087
1687 1 8.94876 17.737 23.2021
1686 1 8.93896 16.0023 24.8962
2177 2 10.8376 17.7175 24.92
3675 2 10.7359 16.1615 23.0806
2178 2 14.3031 18.1571 24.9501
2690 2 12.5431 17.8311 23.1728
3188 2 12.5671 15.9785 24.8619
3676 1 14.3063 16.1438 23.2588
1187 1 17.8504 16.1616 22.993
1186 2 17.9254 17.8608 25.0473
1689 1 16.1601 16.3068 25.0658
3189 1 16.0394 17.8008 23.3511
1188 2 0.208511 0.173039 28.5687
2180 2 1.92109 2.01572 28.4976
2668 2 1.99565 0.149735 26.7617
3657 2 0.0723742 1.84901 26.7694
559 2 7.28661 0.196161 28.5233
94 2 7.47343 1.83046 26.584
1189 2 3.7983 0.121425 28.5441
1666 1 5.61257 0.193201 26.6577
2181 3 5.6104 2.02603 28.3678
2669 3 3.70024 1.97038 26.7655
560 2 10.7684 0.00591567 28.5533
95 2 8.97102 0.105003 26.6502
2182 2 8.99731 1.91275 28.4882
2672 1 10.8264 1.93201 26.7682
538 1 14.2571 1.91796 26.7831
1667 3 12.561 0.0988354 26.8379
2184 3 12.5001 1.90138 28.5125
2183 3 14.3564 0.182889 28.4908
2159 2 17.8566 1.84565 26.7121
3193 1 16.1273 1.98224 28.5331
3679 1 17.707 0.0618204 28.5817
3664 3 16.1476 0.222849 26.6496
1168 3 1.9492 3.72678 26.6212
1669 2 2.11289 7.26933 26.5012
2186 1 0.212419 7.2502 28.4083
2185 1 0.169425 3.57163 28.4296
2674 2 0.154244 5.54322 26.7558
3194 2 1.85933 5.49507 28.4201
544 1 3.69447 5.50546 26.7115
563 1 7.18973 7.14083 28.5488
1691 2 7.32774 3.7512 28.416
1690 3 3.71637 3.79002 28.4503
2676 1 7.18745 5.39602 26.6587
3196 2 3.74506 7.08294 28.5049
3195 1 5.63288 5.42553 28.5136
3176 3 5.50506 3.59579 26.6344
3174 3 5.49236 7.31483 26.5947
545 3 10.8154 5.40327 26.7047
1171 1 9.01101 3.70261 26.7442
1169 3 8.98552 7.2456 26.5852
2694 3 10.8333 3.68934 28.5384
3197 3 9.0929 5.47293 28.384
3681 2 10.7647 7.23235 28.5885
104 2 12.4957 3.68592 26.7133
103 2 14.2164 5.39772 26.7206
2695 1 14.2561 3.56986 28.493
3178 1 12.6175 7.13777 26.7621
3684 2 14.2996 7.12466 28.4819
3683 2 12.5221 5.353 28.598
622 2 17.8417 3.56661 28.5326
1004 1 17.9582 7.12562 28.3732
1174 1 16.0312 7.08164 26.8491
1173 3 17.9022 5.3275 26.8032
3180 1 16.0898 3.64653 26.6745
3685 3 16.1721 5.36525 28.512
1673 3 0.0416888 9.04865 26.6432
2161 3 1.96974 10.6006 26.6477
2696 3 -0.00956378 10.8575 28.5483
3687 1 1.79725 8.95909 28.499
122 2 7.28801 10.7372 28.4178
107 2 3.65267 8.96017 26.6608