ITEM: TIMESTEP
5000
ITEM: NUMBER OF ATOMS
4000
ITEM: BOX BOUNDS pp pp pp
-2.0655139286155588e-02 3.5754715139286098e+01
-2.0655139286155588e-02 3.5754715139286098e+01
-2.0655139286155588e-02 3.5754715139286098e+01
ITEM: ATOMS id type x y z
564 3 3.41711 1.85747 1.75379
5 2 1.75074 3.30525 1.68616
2639 2 17.5971 10.7023 17.9464
2564 1 5.31301 1.87243 3.3466
565 2 6.98696 1.88916 1.75893
3590 2 -0.0789743 7.0086 7.14625
3115 2 17.7118 -0.0370155 10.6902
1644 2 14.1484 17.6426 14.3003
2631 1 8.86139 1.74751 18.0017
2565 3 8.85716 1.9497 3.54044
566 2 10.7636 1.85307 1.75081
570 3 12.4334 3.54161 1.90895
2567 3 12.2468 1.59584 3.58094
567 3 14.2131 2.08423 1.90316
2571 1 17.8188 7.18165 3.55523
3572 3 10.6744 3.36769 3.57104
600 2 17.8623 8.74064 9.14167
3564 2 16.1753 1.79351 3.83556
3093 3 17.8906 10.5674 7.07012
512 1 17.8755 9.20611 16.2232
1073 1 3.59215 7.29584 3.46829
1074 1 3.28175 5.21963 1.74095
2069 1 3.55307 3.46724 3.54484
2568 3 14.4903 0.16233 3.86227
3569 2 5.1193 3.74321 1.7624
1072 1 7.26149 5.37408 1.82109
1608 3 7.08024 -0.163977 10.8486
10 1 9.23263 3.69008 1.68017
1568 1 9.16829 7.21129 1.7462
3568 1 6.78393 3.77967 3.38146
1076 2 10.8668 5.34725 1.84471
571 2 12.5974 5.19658 3.60788
572 3 16.0855 3.63857 1.91129
1570 3 14.096 5.08062 1.82331
3069 1 14.168 3.291 3.75285
573 3 15.9292 5.07556 3.70566
2608 3 8.84432 17.9158 5.40015
2587 3 14.3229 17.7508 3.6081
6 1 1.71419 7.19285 1.58839
575 1 1.69906 10.663 1.67463
574 3 1.50014 9.0659 3.48034
3643 2 14.0474 15.9379 16.1496
3104 1 0.064425 16.0461 5.36482
1075 1 5.10955 7.34794 1.71992
1575 2 3.44037 9.00455 1.87998
1083 2 5.23621 10.6867 1.80639
3589 1 -0.0468025 3.63185 7.27665
1576 1 7.079 8.83239 1.74323
2071 3 10.6697 9.00973 1.69081
1578 3 8.90946 8.99245 3.5206
1569 2 12.5087 7.11907 1.7346
2074 3 14.2085 8.84231 1.93608
1572 1 14.5538 7.16348 3.52368
1579 2 12.4592 8.7779 3.54648
2144 3 17.7131 16.1524 16.2491
1081 1 15.8091 7.02794 1.75692
1581 1 16.124 10.6164 1.8117
1580 1 15.8376 9.08804 3.80125
1639 2 17.5742 10.59 14.4193
3148 3 15.991 14.3428 16.2103
2081 2 3.57315 12.3338 1.75358
3563 2 12.5627 0.188857 1.86965
1584 2 17.8248 14.2534 3.51417
1084 2 7.08979 10.6802 3.72685
2575 1 7.12397 12.1553 1.85738
2574 3 5.38281 12.3578 3.64975
1087 1 8.80455 10.6841 1.93888
2579 3 10.5747 12.5579 1.81364
1583 2 8.71732 14.2429 1.93204
580 2 12.6861 10.7713 1.6587
2085 2 12.5068 14.2127 1.57113
579 2 10.8236 10.718 3.35999
2581 2 12.6148 12.393 3.49331
1118 3 -0.0756462 5.40368 12.4822
3063 1 8.82545 0.141536 1.93433
2580 2 14.4162 12.4385 1.82267
2582 2 16.1835 12.409 3.50724
1146 3 14.2655 14.2903 14.2766
2078 2 1.81641 14.1789 1.58404
1151 3 3.72726 17.7635 14.3482
2083 2 3.37613 14.3664 3.36803
3576 1 1.73002 16.0452 3.53696
3147 1 16.2016 12.6214 18.0483
3640 1 5.26944 17.7609 16.1511
3077 3 3.4203 16.117 1.85663
2082 3 5.30052 14.2385 1.88397
3078 3 6.94866 15.9672 1.9006
3577 2 5.39522 16.05 3.69681
2577 2 6.88665 14.4157 3.63211
2075 2 16.1802 8.87253 0.0240155
3579 2 8.94354 16.1702 3.57301
1071 1 0.078248 5.28194 1.752
2139 2 3.87489 14.2894 17.7607
3080 3 10.7698 15.899 1.46651
3081 1 14.3925 16.0243 1.95126
3072 3 10.8738 14.39 3.48228
1624 3 10.6332 17.7244 10.7792
1622 1 17.8335 12.6179 12.6581
2583 3 16.1779 14.2195 1.87839
583 2 16.1449 15.9367 3.58051
3625 3 1.6691 5.00203 17.8766
2590 2 3.56225 0.0112811 7.1152
2649 1 10.6899 17.7525 14.2203
1615 2 17.8535 6.93084 10.6179
2563 1 1.8608 1.52394 3.38093
3585 3 3.66324 1.86011 5.2831
3090 1 1.52208 3.40442 5.33651
584 2 1.63609 1.91083 7.23984
2123 2 3.31946 0.0644111 14.1929
3562 2 5.30385 0.0706546 1.70095
22 1 5.35279 1.80548 7.23199
3584 3 7.0887 1.81479 5.43437
3593 3 5.4781 3.72878 5.23948
3592 3 7.20791 3.66357 6.93875
31 1 9.01182 3.54186 5.6165
586 3 8.68288 1.54906 7.01306
513 3 0.0797983 14.1795 14.1161
3586 3 10.6575 1.63568 5.42143
2101 3 0.185737 12.848 4.98261
23 3 12.3918 1.49953 7.08568
3594 2 10.6355 3.26083 6.93909
1120 3 17.5527 3.44949 10.5583
25 2 14.3401 1.58815 5.49391
588 1 16.1231 1.38626 7.3891
3595 3 16.2644 3.35313 5.60839
3566 2 1.73293 5.52824 3.67991
3600 2 -0.114836 16.2303 8.77454
3075 3 16.3849 12.288 -0.0519801
27 1 1.76471 5.3815 7.211
28 1 1.74826 7.24329 5.13789
3597 1 17.8471 8.86182 5.25546
3570 1 4.929 5.592 3.69152
590 2 3.38006 5.2373 5.25962
1094 3 5.23585 7.07712 5.48163
592 3 7.16288 5.53005 5.0018
3571 3 9.0386 5.03857 3.73802
1097 1 8.78134 5.49546 6.81179
594 3 10.6398 5.0918 5.45536
33 1 12.6031 3.22125 5.15264
1592 2 12.4737 6.90079 5.23073
1100 3 14.29 5.17247 5.37022
3581 3 12.5768 17.827 1.79464
35 1 14.0658 3.41028 7.06884
1594 2 16.1811 5.15846 7.22388
595 2 14.2514 7.05899 7.03367
2064 1 1.70902 1.80238 -0.0236347
1103 3 3.66011 8.80255 5.36469
596 3 1.77322 10.5144 5.32554
577 1 5.46251 8.85492 3.67011
1596 1 5.39652 9.07841 7.10233
38 2 3.46073 10.458 7.36472
569 2 10.6934 7.20919 3.50148
2068 1 7.23419 7.10042 3.33244
1597 3 7.23416 8.58505 5.56182
1590 2 9.07008 7.04385 5.23984
2097 1 10.9381 8.96384 5.27218
1108 3 12.4839 10.6178 5.2165
2098 3 14.1638 8.81973 5.52274
1598 1 12.53 8.85287 7.13964
1595 1 16.0099 6.97935 5.50646
2100 1 16.1919 10.696 5.2798
578 1 3.18841 10.576 3.39164
1582 2 1.74716 12.5259 3.1933
2103 3 1.89637 12.6205 6.98604
2600 3 3.50409 12.3366 5.11141
1104 2 5.41858 10.5401 5.39998
1600 1 5.17757 12.378 6.97301
2601 2 7.44668 12.4634 5.24671
1106 2 7.15341 10.5251 7.09365
2578 1 9.06657 12.3989 3.54489
599 3 9.12203 10.6505 5.24628
2602 3 10.4742 12.6591 5.32477
2604 3 8.8488 14.423 5.32796
39 2 10.845 10.6283 7.10292
2605 3 14.2885 12.1809 5.32885
3575 3 14.4721 14.2822 3.663
2099 2 14.1841 10.4864 7.08174
1603 1 12.5247 12.4128 7.11412
2072 1 14.1149 10.6972 3.24635
3100 3 16.2803 13.9656 5.33309
3083 2 16.0396 17.8793 2.03542
2610 2 12.5635 17.7338 5.22169
2102 2 1.86248 14.5104 5.38064
1604 1 1.82293 15.9358 7.1047
3602 3 3.54404 16.1442 5.27303
2599 1 3.58855 14.2012 7.13307
3641 3 10.7602 15.8258 16.0844
581 2 17.9524 12.6319 1.87818
3101 2 17.7418 12.5757 9.02722
1607 3 3.79899 0.165957 10.5403
3126 2 17.7299 14.087 10.9913
2104 3 5.47837 14.0677 5.3345
11 3 12.6113 5.44146 -0.132774
3622 2 17.8219 1.70871 16.0967
3601 1 7.21009 15.9948 5.16409
3140 2 17.5999 7.25018 14.3577
3098 1 12.4636 13.8302 5.32149
3603 2 10.9256 16.0456 5.40998
3580 2 12.7007 15.9831 3.63957
2138 3 5.50193 12.3942 17.8143
2611 1 17.7774 15.9729 8.97186
41 1 14.6073 15.862 5.09998
3561 2 1.59421 0.103743 1.68948
2109 2 15.9162 16.0438 7.16894
3639 1 7.31072 16.2723 16.0405
3150 3 1.76894 15.6326 17.8958
2110 1 1.72237 1.71448 10.8013
29 3 3.55465 3.38733 6.87552
3112 1 16.0123 17.683 5.44377
585 2 6.90043 1.91634 8.87817
2591 1 3.32097 1.8687 8.88602
30 2 5.44189 3.86862 8.96409
2112 1 6.89155 3.64455 11.0373
2111 1 5.45838 2.01615 10.6303
2616 1 3.52075 3.61643 10.9851
3645 1 15.7103 17.6103 15.893
2612 1 8.72406 1.70574 10.7533
1591 3 8.85663 3.35572 8.6178
2614 1 17.77 1.75929 12.3822
2113 3 10.5877 3.31565 10.8261
2592 2 10.6705 1.8003 8.84449
34 2 12.2281 3.67125 9.02755
2613 2 12.4591 1.6011 10.7429
2594 1 17.942 1.55463 9.00939
587 2 14.0063 1.80598 9.12193
3605 2 5.43847 0.159413 12.5672
3116 3 16.0086 1.79838 10.6523
3 2 15.9575 0.418281 1.95685
3139 3 14.3398 3.69836 17.8898
2091 3 1.49794 3.58652 9.14702
1096 3 3.50984 5.26762 9.22511
1093 1 1.80446 7.133 9.04016
3117 3 1.69032 5.23473 10.9998
591 3 6.95428 6.78824 7.26213
1095 1 5.24166 5.15425 6.9096
3608 3 3.45016 7.31504 10.7176
3091 1 7.79396 5.23992 8.85792
1098 2 10.5321 5.2308 8.61983
3609 2 9.14461 5.23463 10.8191
1588 1 8.90059 7.05991 8.73741
1099 2 12.5499 5.12243 7.13672
36 3 14.2124 5.29427 8.67874
3611 3 12.1604 5.25359 10.7772
2627 3 17.6437 16.0317 12.3377
2595 2 15.9678 3.30432 8.68737
2093 2 16.0069 6.93744 9.00594
3119 3 14.3371 3.56861 10.9125
1102 2 1.74301 8.88902 7.08342
37 1 3.59518 8.81139 9.09279
48 3 1.68499 8.97289 10.6177
593 1 3.44293 7.05624 7.11004
3591 1 5.32158 6.80123 8.8415
2096 3 7.25531 8.74913 8.76242
1589 3 10.8392 7.05232 6.88334
1107 2 8.94143 8.69648 7.0947
46 2 10.4745 7.00373 10.6845
598 1 10.6747 8.66892 8.96389
3596 1 9.13119 10.4671 8.89765
32 1 12.5138 7.05955 8.99301
614 2 12.3923 8.85564 10.7854
3613 2 10.6755 10.6189 10.8627
1599 1 16.0877 8.76373 7.1436
2597 3 14.4112 8.66543 8.82247
1122 2 16.0325 8.69601 10.8737
2596 3 1.71363 10.9315 8.93039
3094 2 1.78612 14.3301 8.78984
3095 3 3.68081 12.5515 9.04726
3121 3 3.5823 10.5033 10.6199
1105 3 5.54325 10.6762 8.88451
612 3 7.09985 10.5039 10.5142
1124 2 5.31807 12.1941 10.8898
1111 2 5.39557 14.0821 8.77476
1601 2 7.13019 12.4131 9.03058
1619 3 6.87713 14.1289 10.6426
1618 2 3.5894 14.2384 10.8525
1112 2 7.15164 14.1078 7.07237
3097 2 8.99281 12.2898 7.1543
617 1 10.7901 14.2567 10.3734
1125 1 8.90475 12.1711 10.7113
2598 1 12.232 10.6042 8.97861
3598 2 10.5689 12.3731 8.93536
1113 1 12.4947 14.0109 8.70133
1620 3 12.5292 12.2844 10.906
1602 2 14.1176 12.1367 9.0054
2603 1 10.5018 14.1506 7.2813
3099 3 16.0381 12.3829 7.18826
50 1 14.1709 10.3179 10.6936
1109 3 16.0717 10.7018 9.14821
1621 1 16.1071 12.4639 10.806
3102 3 15.9887 14.2424 9.06044
1642 1 5.42051 16.1314 14.3393
1150 3 1.77722 15.8129 14.2485
2106 3 3.57049 16.0644 8.95798
619 3 3.50769 17.7534 10.618
3106 3 5.50248 15.9695 7.08272
40 1 7.45247 16.0725 8.71794
2107 1 8.97145 16.0316 7.15904
3096 2 8.89743 14.0277 8.85525
3587 2 8.72743 0.0875366 8.99533
602 3 14.4006 14.269 6.92563
2108 3 10.741 16.1013 9.01606
3604 1 12.5201 15.9446 7.15891
55 3 12.4276 17.8355 12.3317
603 3 14.1809 16.0133 8.73966
2628 3 15.9564 16.1511 10.6024
1079 2 17.7259 5.55606 1.8228
2629 2 1.65748 1.52449 14.4214
607 3 1.74642 3.37451 12.7039
2607 2 5.44852 17.7756 5.44726
2632 2 14.1193 -0.0400155 14.4497
43 3 3.42444 1.77268 12.4911
2126 1 3.27097 3.42178 14.4752
3149 2 0.144449 15.8849 16.1215
605 1 7.16609 1.66923 12.4088
3610 1 8.82802 3.51249 12.4336
3110 2 17.7626 15.9844 5.35806
606 3 10.5605 1.66884 12.5098
3131 2 12.1661 1.94956 14.314
1092 1 5.36006 -0.100658 8.6822
1117 3 14.1871 1.56291 12.6745
2573 1 0.381127 14.3502 3.27373
3637 2 3.67948 15.9772 16.0688
1119 1 1.74026 7.04318 12.3583
1610 2 3.4058 5.48926 12.6103
608 1 5.36659 3.2858 12.4355
3607 3 5.3305 5.39934 10.8655
1611 2 5.25765 7.01207 12.6955
45 2 7.33924 7.24063 10.7603
1612 1 7.04907 5.51616 12.3023
2114 2 8.82151 6.81907 12.6254
1613 2 10.6395 5.43473 12.6565
2128 2 7.02337 3.77457 14.3478
3629 2 8.99795 5.10739 14.417
610 1 12.5354 3.3739 12.3783
2617 1 12.4068 6.98105 12.5485
3630 3 12.2694 5.26816 14.1498
3105 1 3.63902 17.7075 7.07838
1614 2 14.047 5.46775 12.8645
3612 3 15.6896 5.46379 10.7421
1121 3 16.2572 3.6469 12.5077
3144 2 14.5336 12.4198 16.0291
67 3 1.46825 9.10318 14.4155
2116 3 3.3103 8.95669 12.5241
49 2 5.4249 8.71142 10.7633
70 3 5.33609 8.70218 14.2104
613 3 8.94332 8.86741 11.0169
2619 1 7.26956 8.92179 12.7729
71 1 9.0444 8.8864 14.346
2620 2 10.73 8.64109 12.5147
60 3 7.14705 6.87254 14.5145
3628 2 10.5949 7.05817 14.3461
510 2 12.6015 8.76602 14.3156
609 3 14.2079 7.17187 10.8204
2618 1 16.0481 6.95128 12.4458
3122 1 14.2144 8.77316 12.8444
1144 2 12.6834 10.7272 16.0178
1123 3 1.57913 12.5332 10.7482
611 1 1.7025 10.9272 12.6752
3124 3 3.5459 12.2655 12.4304
2647 3 12.3029 13.9686 16.1186
1616 1 5.23074 10.4961 12.3332
3125 3 7.20212 12.226 12.2707
2117 1 9.0671 10.5616 12.6961
3615 1 8.85932 14.0727 12.4767
73 2 10.6879 14.1367 14.2375
1145 1 8.94498 12.3528 14.2738
3616 1 10.619 12.4343 12.4626
1617 2 12.3987 10.4815 12.4351
3141 3 10.8084 10.3176 14.5113
2622 1 12.4214 14.0261 12.5531
1126 1 13.9355 14.2431 10.7206
3618 2 15.8336 14.2474 12.4943
1149 1 16.0536 12.5981 14.3595
3617 2 14.128 12.2881 12.4805
2118 2 16.0412 10.5739 12.6749
516 1 3.72266 14.2601 14.3791
3123 2 1.78417 14.2812 12.4164
2119 1 1.71808 15.7644 10.5628
53 1 3.67643 15.6114 12.6825
2589 1 1.79899 -0.00683522 8.92975
2606 3 1.85513 17.8605 8.83354
3614 1 5.37448 14.1283 12.4816
618 3 7.06628 15.9873 12.4436
2120 3 5.48621 16.1835 10.4812
3084 2 -0.00911132 0.0465415 7.1169
1643 2 8.76007 16.1329 14.2809
54 3 10.6202 15.7747 12.5093
2625 2 8.65078 15.6733 10.9035
72 2 7.32043 14.1744 14.3913
2626 1 12.5795 16.0635 10.6842
1646 3 12.2511 16.0023 14.1514
2584 3 0.154865 15.9305 1.41585
1647 2 16.0723 16.2505 14.1823
3079 3 5.31292 17.969 1.89323
3143 2 10.8962 12.1563 16.0484
620 1 14.1678 16.1678 12.352
2070 2 17.8962 7.08215 0.111901
3113 3 1.86643 0.0691413 12.5728
1147 2 12.3171 12.2167 14.109
1129 3 3.51798 1.69178 16.0897
1623 3 0.0868324 17.7973 10.7433
2623 3 1.89397 17.6834 12.559
2648 1 1.7923 17.7781 15.9752
3128 2 5.45163 1.79635 14.3441
1131 2 7.07506 1.90621 16.0721
1110 1 -0.0278365 14.3284 7.0557
514 3 1.57676 12.1967 14.3176
1636 3 9.06595 10.3343 16.1401
3129 2 8.82139 1.70004 14.1027
3137 1 10.6757 3.62827 14.2671
1133 2 10.5961 1.58348 15.9943
1136 3 12.4065 3.48624 16.1995
1134 1 14.2504 1.99032 16.0811
76 1 12.5599 17.6486 16.0512
2141 3 8.92142 14.1395 16.0392
3132 1 16.0605 2.17967 14.4667
3567 2 -0.0750463 7.07881 3.388
503 2 1.51201 3.6194 15.8626
3624 1 1.71466 5.56905 14.4946
504 1 1.56088 7.14474 16.0353
1141 1 1.75919 10.8922 16.2126
2641 2 1.85279 14.2233 16.1022
3136 2 3.29103 7.18887 14.421
1630 2 3.47855 5.18886 15.934
61 1 5.384 3.7493 16.2577
3626 1 4.95327 5.56404 14.3435
2142 2 7.20237 17.9055 14.2067
506 3 8.90107 3.30787 16.133
1629 3 7.21681 5.33439 16.36
1632 2 10.6438 5.25571 16.0447
3138 2 13.9077 3.28359 14.3371
65 3 16.2351 5.50355 14.2696
1139 1 15.9563 3.6893 16.2544
2131 3 13.9132 5.38844 15.9043
69 2 7.03061 10.374 14.308
1116 2 10.4503 0.190052 10.7061
3633 1 3.57472 10.6817 14.3453
1635 1 5.51209 10.5943 16.1328
2133 1 3.44317 9.05424 16.1091
1631 3 5.43888 7.40632 16.0989
3146 1 17.732 14.4983 14.4344
1564 3 -0.202006 0.0138524 3.75481
2642 2 3.77278 12.4439 15.9861
1085 2 5.27515 8.84736 0.0365094
2134 2 7.3323 8.7925 16.0406
2129 3 8.99491 6.88644 16.2191
18 1 8.70422 15.9687 0.145936
2638 2 14.1898 8.72435 16.0755
2130 1 12.2405 7.03167 16.2496
2637 3 10.5241 8.54489 16.3107
3142 2 7.37487 12.2635 16.0715
2643 1 5.5237 14.1205 15.9983
515 2 5.5581 12.3333 14.1593
511 3 16.1049 8.77793 14.4261
3635 3 14.3559 10.5951 14.4481
2135 2 15.7448 10.5603 16.3635
3631 1 14.3992 7.06513 14.3232
1633 2 16.0027 7.06048 16.2673
2105 2 5.50815 17.9839 8.86766
2095 3 0.0913854 8.77598 8.80883
1148 2 17.7277 12.6789 16.1955
2588 3 1.84464 0.0966098 5.51071
2080 2 5.3221 12.5486 0.289206
502 2 15.8349 0.204716 16.0132
1625 3 7.41828 -0.118744 14.3066
1091 2 10.8603 17.6786 3.51676
568 1 17.9294 0.204448 3.53696
3107 2 7.25525 17.5365 7.23276
589 3 0.00203548 5.4095 5.42198
66 3 17.6408 5.32821 16.4035
3599 2 17.6443 14.3832 7.28573
519 1 10.7829 17.6447 17.7368
1566 2 7.21642 0.299883 3.81725
1130 2 3.73579 0.113635 17.7665
3130 1 12.2937 1.73545 18.0375
1585 1 10.8285 18.0265 0.153557
2143 1 7.31865 18.0084 17.7348
1128 2 0.0582712 0.193577 17.8472
3074 1 12.4912 12.2041 -0.0461739
1638 1 12.5162 8.67397 17.8799
3642 3 8.95798 16.0903 17.8572
1573 3 17.802 3.56063 0.307335
2127 3 3.54739 3.65345 17.7368
4 2 1.65348 5.23605 0.0400845
3574 3 14.3297 14.0348 -0.0435611
2576 1 7.16067 14.0449 0.173301
1077 2 10.7167 7.04667 0.0565292
509 2 7.15435 10.5302 17.6029
1567 1 7.23975 7.18838 0.048795
2630 1 5.26809 1.64111 17.8853
3065 3 15.9949 1.90364 0.139597
3061 2 5.53158 1.7137 0.0858169
3638 2 5.69455 16.2367 17.6958
505 2 3.45662 7.20206 17.8232
62 1 8.90486 4.94483 17.8945
20 1 16.1781 16.0836 0.100207
2635 2 10.73 3.5334 17.7207
2566 3 14.4373 0.169285 0.160858
3073 1 8.74143 12.6249 0.0111679
9 3 8.83111 5.43535 0.00325612
2088 1 14.3528 17.6164 -0.0811834
77 2 15.8519 16.1178 17.8075
1641 3 3.47808 17.6106 17.867
3636 3 -0.0375883 17.6277 17.8831
1088 2 14.3439 10.5113 -0.0107104
8 2 3.4318 7.13861 -0.100016
517 1 17.9252 14.4347 17.8157
2124 3 14.277 0.370129 17.7993
1082 2 1.96328 8.99768 -0.12909
576 1 3.54575 10.697 0.159213
80 3 3.52679 1.89566 19.5433
1014 1 3.46066 0.0719589 32.1923
14 3 10.7602 10.7893 35.6526
3649 2 5.27215 3.55117 19.6088
3632 1 3.87614e-05 10.8518 17.871
2147 1 5.50467 1.88522 21.7922
2688 1 -0.126785 16.1735 22.936
79 3 7.01642 1.8261 19.7585
2652 2 9.0964 2.04398 21.5561
85 1 8.99831 3.55647 19.6959
141 3 -0.0341216 17.819 32.373
3156 1 6.66555 3.53941 21.3367
2696 3 -0.084243 11.1214 28.4302
81 1 10.8245 1.73903 19.6569
87 3 12.3639 3.62202 19.555
2656 3 10.9966 3.5177 21.5219
3673 3 0.0324285 16.357 26.5928
2653 3 12.6156 1.73016 21.3361
3168 3 0.144693 1.9777 23.1849
3218 2 12.7517 17.7047 34.1602
522 3 14.3257 1.93232 19.575
559 2 7.06127 0.132128 28.5935
3153 1 16.086 1.84973 21.4838
2160 2 16.1109 0.346758 23.1254
1166 2 17.6701 16.2961 19.6351
1173 1 17.9426 5.33651 26.8115
3154 1 2.0091 3.729 19.9066
84 3 1.74085 7.08589 19.5618
524 1 3.59423 5.56217 19.4915
525 3 7.1744 5.31981 19.7171
2655 1 3.51631 3.68854 21.6019
78 2 0.358576 2.01279 19.5957
1070 2 10.6451 0.0667341 35.7954
3650 2 8.99405 4.95536 21.5607
1153 3 7.17332 6.88275 21.6042
3659 2 7.11885 0.00433507 25.0852
1155 1 10.6508 5.05383 19.6096
88 3 12.5169 5.35085 21.3043
2136 1 1.83222 12.6817 17.8675
1156 1 14.2456 5.17838 19.8829
89 1 16.0757 5.10587 21.5576
3651 1 16.0732 3.40361 19.4084
2657 1 14.3968 3.36147 21.5242
1665 1 1.64816 0.187737 23.249
1159 3 3.55783 8.83106 19.6496
3203 2 5.4229 -0.0334217 34.2276
1152 3 5.24578 7.15631 19.7067
532 2 5.54033 10.9453 19.5748
531 2 5.41221 8.83201 21.3839
533 3 6.98205 10.672 21.2874
1154 3 8.92029 6.9659 20.1124
1651 2 7.09504 8.84532 19.5893
1161 1 8.54068 8.90322 21.4322
527 3 12.2941 7.22713 19.669
1652 1 10.6514 9.10559 19.8604
1162 3 12.7085 8.77036 21.3696
1654 3 14.3708 10.6195 21.5703
2678 1 17.8394 7.27696 25.0555
1717 2 16.2334 16.0543 32.1597
1157 3 15.9142 7.11962 19.9295
2148 3 14.2739 6.97002 21.5722
1653 2 14.0934 8.7106 19.6018
1655 3 16.1176 8.89752 21.4579
1656 1 16.085 10.8679 19.8369
1715 2 7.14196 17.9428 32.1466
530 3 1.76648 10.8546 19.6319
1030 3 14.3671 17.6944 32.1463
1661 2 3.66633 14.3361 21.6493
3653 3 3.80545 10.8434 21.1984
2149 1 3.55907 12.8185 19.4413
2151 3 7.07958 12.5376 19.4357
2150 3 5.52976 12.6193 21.3918
3160 2 7.03835 14.3196 20.8832
3219 1 17.8961 17.6963 31.8733
138 3 17.9437 9.01415 34.1135
90 3 8.72868 10.8824 19.4804
2153 3 8.94358 12.5148 21.1703
1160 3 10.7348 10.6866 21.6172
1662 3 9.02756 14.4627 19.6348
2152 1 10.8134 12.3327 19.4838
534 1 12.3046 10.6319 19.6959
2659 3 12.5383 12.4665 21.4654
3695 3 9.29489 17.8477 30.5382
2720 2 16.5215 14.3759 34.1179
3190 2 16.1781 17.8344 26.9096
2155 3 14.2012 12.3362 19.6724
2661 2 16.1373 12.3662 21.5542
2122 3 1.83235 2.03347 18.0442
1013 1 12.6828 17.6474 30.3221
115 1 5.25852 17.7787 26.5621
1663 3 3.84643 17.915 21.2841
1659 2 1.69577 14.1995 19.9025
3161 1 1.94126 16.0703 21.5148
2664 1 3.41558 15.8837 19.835
3710 3 14.7451 15.9388 34.0129
1163 1 5.3772 14.3691 19.5711
3163 3 5.56286 15.8774 21.5253
520 1 0.103873 0.25233 21.3993
2663 3 7.29942 16.3429 19.6193
2665 3 10.8468 16.11 19.6164
3655 2 9.20833 16.0272 21.4605
3206 1 17.8017 1.81619 34.1565
2154 3 12.5385 14.3065 19.7919
3166 1 14.3599 16.1578 19.6734
2646 2 12.5425 12.6055 18.0423
3656 1 12.4377 15.7644 21.474
1667 3 12.4735 0.253058 26.7099
3697 2 1.7305 0.190046 33.9415
2156 2 15.9466 14.3301 19.6642
92 1 16.1267 16.1742 21.6822
3215 1 7.5204 16.0675 34.1597
83 1 0.0401929 7.27931 21.4845
536 1 10.9509 17.618 21.7107
1135 3 7.30569 7.20059 18.0181
2145 3 2.17784 1.86331 21.5708
3173 2 1.98641 3.79 23.2019
1078 3 16.0681 5.13292 35.8502
1704 3 0.128702 3.68778 32.0888
3169 2 3.58925 1.92656 23.4929
3658 3 5.36104 1.82133 25.0574
3665 3 5.38681 3.75837 23.6774
508 3 1.8674 8.94674 18.1432
3170 2 7.17236 1.69519 23.4725
3666 2 8.76887 3.64817 23.4538
3660 2 10.8587 1.74737 23.0583
3177 3 10.7263 3.72443 24.7564
3214 3 0.16215 16.0953 34.1325
3179 3 12.5298 3.71389 23.3679
3661 2 12.224 1.86672 25.1986
647 1 10.9221 17.5751 32.3541
3663 3 14.2906 1.77728 23.5339
539 1 16.1196 1.64867 24.9195
128 1 3.61515 17.8586 28.5874
3155 1 1.97137 5.27512 21.4939
2572 2 -0.099284 14.0761 35.6288
99 1 1.6358 5.39075 24.8864
3175 1 3.48501 3.58407 25.1375
526 3 3.58471 7.2172 21.6992
3648 2 5.22528 5.1963 21.3295
541 3 5.39388 7.28536 23.2738
100 3 3.71232 5.60422 23.5886
543 1 5.49991 5.5583 25.1225
542 1 7.12956 5.33231 23.3403
546 2 8.80519 7.06284 23.351
547 3 8.96226 5.31135 25.2318
86 1 10.6712 6.93289 21.6036
102 1 10.7792 5.41767 23.0998
548 3 14.497 5.45927 23.484
549 1 12.5859 5.437 25.2655
105 2 14.2104 3.57363 25.1067
1172 3 16.115 5.29203 25.3299
3668 2 16.02 3.48639 23.6371
2207 2 9.05662 14.341 33.9346
529 2 1.69862 8.8221 21.3805
98 2 1.81488 7.24247 23.4212
1175 3 1.74559 9.10404 25.3688
3217 1 10.8875 15.9105 34.1914
1177 1 3.48968 9.17876 23.348
1176 3 5.60942 9.07403 25.0956
108 3 5.22343 10.8459 23.1322
1178 2 7.37322 9.04857 23.2629
1181 1 8.76983 9.10734 25.0806
1670 2 12.5877 6.86665 23.4258
1170 2 10.5281 7.069 25.0025
1674 3 10.6439 8.91821 23.2613
1675 2 14.2115 8.88745 23.134
1132 1 7.11605 0.207811 17.8731
1671 3 16.1847 7.17341 23.2079
1658 2 1.89119 12.5162 21.5738
106 2 1.9976 10.7206 23.2634
1184 2 1.77566 14.1638 23.2908
1713 2 5.58808 13.9698 34.1399
1678 2 1.8382 12.5277 25.0583
3670 3 3.53064 10.591 25.4072
2169 3 3.67839 12.6626 23.3706
552 3 8.9451 10.9081 23.3185
2167 2 7.14099 12.4812 23.2547
2658 1 10.6619 14.1432 21.324
2682 3 8.69424 14.3226 23.2554
2171 3 10.6862 12.6549 23.1429
1182 1 12.323 10.7964 23.189
2684 2 14.2597 12.5178 23.1529
114 3 14.488 14.2368 25.0622
2691 2 8.98609 0.123335 30.4316
1677 3 16.1918 10.647 23.0771
3705 3 17.6977 5.19063 33.883
1711 2 0.0971116 8.96254 33.8206
2705 2 17.8646 15.8969 30.1645
1718 1 17.7533 16.195 34.0578
1684 3 1.86513 16.1222 24.6521
2205 3 0.0993025 12.4089 33.9732
3185 2 3.74031 16.0868 23.0182
2170 1 5.55609 14.1019 23.1483
3186 1 7.15113 16.0425 23.104
2666 3 12.4061 17.9413 19.8165
2690 3 12.5704 17.6114 23.4728
1680 2 10.7938 14.4756 25.0063
3675 2 10.634 16.1009 23.3436
2196 2 10.7446 -0.146114 32.2036
2683 1 12.5867 14.3432 23.2193
3676 3 14.2342 16.2119 23.2252
1700 2 1.74541 17.9846 30.5442
2660 1 14.2282 14.4368 21.5973
2173 2 16.2987 14.2035 23.2701
1689 3 16.0819 15.8386 24.9736
3216 1 3.7474 16.0075 33.8614
1649 3 14.5054 0.0134369 21.6334
93 3 1.66616 2.02398 25.0069
1168 3 1.45969 3.71446 26.8157
2180 2 1.82763 1.9692 28.3486
3652 3 0.172044 10.7958 21.4733
2669 1 3.55364 1.68451 26.5915
2181 1 5.08515 1.82915 28.6725
3176 3 5.27337 3.62085 26.7982
94 2 7.21451 1.89427 26.8323
2675 1 7.23809 3.20774 25.1976
3709 2 5.51486 17.6085 34.0793
537 2 9.09915 1.72261 24.8104
2182 2 8.84419 1.96769 28.4631
2672 3 10.72 1.79584 26.9348
1171 1 9.2192 3.62575 26.7325
104 3 12.4603 3.72964 26.9692
538 2 14.338 1.81946 27.0234
3193 2 16.0993 1.6552 28.881
2695 1 14.4202 3.81611 28.8225
3678 2 0.0869336 1.86639 30.7994
1164 2 17.6585 14.2187 21.4458
1669 1 1.77249 6.97622 26.6318
3194 2 1.49352 5.5825 28.265
544 3 3.32879 5.25203 26.8074
2676 1 7.10341 5.11788 26.7016
545 3 10.8907 5.33705 26.9609
3667 3 14.312 7.15098 25.1346
2694 3 10.6763 3.57944 28.5898
3683 1 12.4174 5.24223 28.7688
103 1 14.4987 5.23883 26.8297
3178 2 12.3814 7.5465 26.8458
2719 1 17.9581 14.3039 32.106
3180 3 16.0214 3.44905 27.1579
3685 3 16.2044 5.5819 28.8065
1174 2 15.9992 7.11154 26.7412
3684 1 14.3839 7.29757 28.5455
540 3 3.71918 7.50858 25.2765
1027 1 5.33058 16.2235 32.0945
3688 1 3.83054 10.8253 28.385
107 1 3.93006 8.91484 27.1442
3174 3 5.43962 7.10003 26.8898
2162 1 7.31019 8.79244 27.0298
3689 1 5.64312 9.00234 28.6237
122 2 7.11901 10.8711 28.7384
1180 3 7.08272 10.7261 24.8082
101 2 7.02931 7.23667 25.0539
1169 1 8.92952 7.06097 26.7383
109 1 8.65328 10.7938 26.6634
1676 1 12.3591 9.03803 24.9675
110 3 10.2242 8.91621 26.6274
2164 3 14.3066 8.93711 26.824
3181 3 12.1856 10.6218 26.736
1183 2 16.3249 9.038 25.0518
554 2 15.9773 10.6492 27.0657
2687 1 0.124624 17.7595 24.5975
3647 3 16.21 -0.0123865 19.5535
2161 2 1.79179 11.1064 26.889
2680 1 3.49337 12.7982 26.7314
2679 2 1.79523 14.3608 26.5905
1026 1 1.75881 16.1475 32.191
2168 3 3.81932 14.3458 25.0681
113 3 7.10609 14.5544 25.2951
1179 3 5.5955 10.7888 26.8688
1185 3 5.54387 12.5609 25.1653
112 1 5.48957 14.5967 27.0295
1006 3 5.45639 12.4542 28.434
551 2 10.605 10.8438 24.9843
2681 1 8.65681 12.573 25.0224
1679 2 7.16574 12.7021 27.0904
2172 1 9.07489 14.3999 26.8231
3182 1 10.4806 12.5136 26.8442
2163 3 14.5177 10.5349 24.8214
1681 1 12.2025 12.5593 25.036
556 2 12.6314 14.0055 26.653
1682 3 14.2118 12.2046 26.4865
124 2 10.9526 14.2927 28.4689
1009 2 12.6399 12.3135 28.3499
2685 3 16.1521 12.3085 25.103
3184 2 16.2957 14.1606 26.6652
1011 1 16.255 12.4934 28.5471
3171 2 10.6368 -0.0141722 24.9827
1685 1 3.20262 16.0671 26.6214
2718 2 14.5424 12.2343 34.0306
3187 2 5.41188 16.0242 24.8637
2193 1 5.20857 16.1818 28.6551
3062 3 8.85981 1.74528 35.7196
3674 3 7.18558 16.2607 27.2236
1686 3 8.90834 16.0539 24.9905
2194 2 8.98148 16.0945 28.5945
630 2 7.22724 14.4364 28.7842
3188 3 12.7279 15.9509 25.0797
1688 2 10.8785 16.2756 26.9667
116 1 14.4941 16.0758 26.829
2137 1 0.0359917 14.1809 17.8686
3694 3 0.22477 17.7458 28.3711
2704 1 16.2465 16.1853 28.4894
2651 3 5.3172 -0.0547813 19.7198
2707 2 1.9366 1.83169 32.2055
117 1 3.43518 1.65971 30.3512
2176 1 9.09897 17.8132 26.7363
1690 2 3.4952 3.68083 28.5274
2710 1 7.00817 3.50096 32.2113
3680 2 5.36752 3.41101 30.1587
3679 2 17.7598 0.0978959 28.7829
1691 1 7.24024 3.3509 28.6583
118 1 7.21198 1.67395 30.4488
119 3 10.6348 1.90495 30.4732
2709 3 8.96509 1.92258 32.4056
2184 2 12.5243 1.76136 28.7288
3204 1 12.4387 1.78802 32.1988
521 2 3.70419 0.147068 21.7097
561 2 14.4858 1.6691 30.7858
623 1 16.3247 3.51182 30.2806
120 2 1.90271 4.03562 30.3042
1001 2 3.69001 5.52293 30.4481
121 2 1.56243 7.28746 30.1385
3195 2 5.54784 5.23953 28.3247
1191 1 6.99141 5.51065 30.5301
3196 2 3.78099 6.8471 28.4841
3197 1 9.03214 5.44854 28.8776
3682 3 8.82961 3.703 30.3987
563 1 7.2213 6.98487 28.5927
3702 3 9.17662 5.40232 32.3681
3681 1 10.6867 7.28339 28.7122
1002 2 10.7479 5.23596 30.3868
1003 3 12.5549 3.69838 30.4682
2187 3 12.3876 7.23368 30.3014
1693 2 14.1773 5.72827 30.3488
3703 2 12.6381 5.33816 32.5215
1694 2 16.2052 7.23776 30.4256
3704 1 16.2437 5.3623 31.9002
3687 3 1.7946 9.21051 28.1988
1696 3 3.70064 8.61687 30.2673
3706 3 1.80446 8.90945 31.8106
1692 2 5.49996 7.46455 30.7501
2189 1 7.30077 8.90745 30.7766
2188 3 5.55452 10.7534 30.4684
3701 3 7.31694 7.0457 32.3453
134 3 5.34093 9.10498 32.314
2693 3 8.80443 7.10388 30.5187
625 2 8.7236 9.12013 28.8735
1697 2 9.05692 10.861 30.5812
137 3 12.6911 8.86152 32.5206
626 2 12.4077 8.82679 28.5396
2697 3 10.563 8.80511 30.4892
2699 1 14.3304 8.5986 30.297
628 2 16.1082 8.79796 28.5466
139 1 16.4033 8.87739 32.2801
136 3 14.3734 10.5588 32.0711
3209 2 14.3264 7.09785 32.2989
629 1 1.92198 12.5788 28.6884
1007 2 3.49248 14.3134 28.6593
624 2 1.84034 10.8054 30.1113
2700 1 3.72098 12.7051 30.4342
2714 3 16.2568 10.6686 33.8459
3708 1 7.07771 14.3455 32.076
3199 3 7.11962 12.5584 30.3005
3707 2 3.7862 14.2146 32.3056
3198 1 5.46576 14.3647 30.383
2698 2 10.7124 10.663 28.6002
1008 1 8.96039 12.6406 28.5521
2701 2 9.09334 14.2126 30.2634
644 1 9.13366 12.8324 31.9921
627 1 12.5891 10.7627 30.5564
3200 3 10.9083 12.6797 30.455
2702 3 12.8502 14.0909 30.2984
646 2 12.8666 12.3262 32.448
3690 2 14.2626 10.6315 28.6179
2190 3 16.1471 10.6462 30.3892
3201 3 14.4905 12.5467 30.2905
1024 3 16.125 12.6436 32.3086
2178 3 14.3879 17.8883 24.9506
2192 1 1.77077 16.2084 28.4332
3691 3 1.80875 14.3662 30.4301
2183 2 14.131 0.224676 28.697
550 3 0.267942 9.02166 23.4
126 1 3.61133 15.875 30.6598
127 1 7.37193 16.2398 30.4615
3165 1 14.1773 17.7099 21.4861
1029 2 9.28072 15.9519 32.0966
3696 2 11.0455 16.0778 30.3148
2195 2 12.8416 15.6918 28.3111
1650 3 0.0072519 3.88731 21.3108
1716 1 12.8947 15.8495 32.3193
3189 1 16.1323 17.8715 23.3373
129 3 14.4426 16.1039 30.1129
643 2 11.003 14.3226 32.2663
1005 1 0.0615831 14.2579 28.6139
641 2 1.75875 12.3905 32.1108
2146 3 7.19201 0.0745701 21.5662
645 1 14.2803 14.2463 32.576
125 1 16.1829 14.264 30.4241
1699 1 14.4587 13.7185 28.3303
2712 3 11 7.29989 32.1597
3646 2 12.7203 -0.0742979 19.6707
633 3 3.60108 1.55265 33.9662
3151 3 2.0071 0.0183709 19.7387
2713 1 10.9762 10.7199 32.1841
2708 3 5.36163 1.72338 31.9861
632 2 7.13427 1.6935 33.8911
1709 3 16.2428 7.07632 34.2264
1020 1 8.94042 3.56346 34.0135
634 1 10.8999 1.55496 33.8444
3213 1 12.673 13.9578 34.254
2175 3 7.18238 17.9373 24.9413
2203 3 14.4517 9.12076 33.834
2717 3 10.7981 12.5297 33.942
1016 1 14.0802 1.61919 33.8245
3205 3 16.1254 1.76187 32.3008
2200 2 14.5453 3.6718 32.0515
3662 1 14.4532 -0.122966 25.1489
3207 3 1.83712 5.45868 32.1602
3699 2 1.89124 3.59653 33.6858
1705 1 3.5403 3.71013 32.095
1018 2 3.59006 5.3841 33.9603
2206 3 1.86442 14.0621 33.9647
95 2 9.0671 0.107305 26.9663
1021 3 12.3914 7.15337 34.14
132 1 5.3303 3.62739 33.9718
3208 2 5.35654 5.21971 32.0868
1019 3 7.2065 5.31261 33.8796
1028 1 9.23896 17.6879 34.0994
2711 3 10.8642 3.7639 32.1867
1707 2 10.4757 5.5483 34.0125
640 1 9.10318 10.6246 33.7649
3634 1 11.0184 10.6891 17.8215
637 3 12.6289 3.36544 33.9367
560 2 10.8371 0.160693 28.6239
3212 1 6.95369 10.9573 32.5032
1708 3 14.4876 5.19681 34.0265
133 2 16.1214 3.58316 33.9965
2716 3 7.40194 12.6074 33.9559
3700 2 3.57099 7.26426 32.3664
1710 3 2.04822 10.6383 33.838
1712 1 3.44589 8.90812 34.0294
636 1 1.86097 7.12235 33.8738
1023 1 12.5633 10.8635 33.9374
1022 1 5.3949 10.8601 34.2271
2199 2 5.1668 7.22102 34.0609
3164 3 9.13025 17.8038 19.717
642 1 5.32608 12.6459 32.2763
2715 2 3.75382 12.4626 34.1264
2201 2 7.11648 8.83736 34.0259
135 1 8.88143 8.9802 32.4217
2202 1 10.7766 8.80582 33.9443
3211 3 3.70235 10.5793 32.1801
1706 1 8.92306 7.04252 34.1757
131 2 16.0497 0.099741 34.3932
2673 1 12.6214 0.177895 23.5078
3664 1 16.0192 -0.0394144 26.8385
1666 2 5.40889 0.151275 26.8663
2165 2 17.9371 10.6705 24.8742
3192 3 12.44 -0.129861 30.4987
64 2 12.5203 5.46531 17.8731
3627 2 5.32191 5.78049 17.8038
82 3 17.718 -0.0592673 21.3502
2198 2 0.328341 7.20292 32.0031