ITEM: TIMESTEP
5000
ITEM: NUMBER OF ATOMS
4000
ITEM: BOX BOUNDS pp pp pp
6.0735117242881387e-02 3.5673324882757434e+01
6.0735117242881387e-02 3.5673324882757434e+01
6.0735117242881387e-02 3.5673324882757434e+01
ITEM: ATOMS id type x y z
563 1 -0.0523622 -0.0154651 -0.00338122
1064 2 1.6047 1.77343 -0.083258
1563 1 1.83414 0.115098 1.77773
2064 2 0.268856 1.9294 2.09251
1 2 3.41283 1.87236 1.95661
565 2 7.12747 0.140188 0.0551739
2065 1 7.47223 1.73629 1.79954
2565 1 3.64698 -0.0442646 0.163785
3064 3 5.44673 1.7077 -0.0820521
3564 3 5.41274 0.0578994 1.72919
2 2 10.6408 1.80824 1.75994
1066 2 9.06912 1.78283 -0.114143
1564 1 9.00971 0.0691069 1.78328
2566 2 10.8186 0.143776 -0.0538741
567 1 14.4926 0.104105 -0.0820897
2066 3 14.1556 1.84321 1.80105
3066 1 12.4623 1.85805 -0.0316387
3565 3 12.7118 0.0752904 1.69024
751 3 17.9547 0.031381 -0.105063
1068 1 16.2684 1.89964 -0.0021729
1565 2 16.0723 0.0497625 1.71839
2001 1 18.0437 1.83043 1.85973
3 3 0.0196536 5.58448 1.91172
573 2 0.242863 7.29663 0.134802
1568 1 1.86315 7.20875 2.08013
2569 2 -0.15272 3.5964 0.00281501
3068 3 1.71403 5.4777 0.240688
3566 1 2.02435 3.50534 1.88876
4 2 7.06001 5.44853 1.9628
569 2 3.70256 3.58981 0.0216196
577 3 7.14095 7.29313 0.295966
1070 1 5.39912 5.38595 0.18829
1566 2 5.25488 3.47068 1.8295
2067 2 3.55274 5.2787 1.71849
2576 3 3.59013 7.19821 0.23705
2571 3 7.25138 3.79046 0.0614698
3570 2 5.34562 7.20875 2.06684
570 3 10.8726 3.52304 -0.198289
1570 1 8.9067 7.14603 1.81345
2068 2 10.9187 5.37137 1.82794
2578 3 10.8507 7.16767 0.171167
3070 1 8.94953 5.53625 0.00925803
3567 3 9.15534 3.61672 1.70906
5 1 14.3199 5.55431 1.74653
581 1 14.6432 7.61279 0.0531865
1072 1 12.444 5.63363 -0.0612576
1567 3 12.333 3.63628 1.77578
2573 3 14.4667 3.66771 -0.0325938
3572 1 12.6293 7.2852 1.69333
253 1 17.9379 5.45532 1.90873
761 2 17.9116 7.18733 0.102183
1572 2 16.0616 7.19462 1.92298
2819 3 17.9517 3.62405 -0.113793
3072 2 16.2515 5.4572 -0.0374727
3568 1 16.212 3.61875 1.56998
1074 3 1.8479 8.96561 -0.000935721
2069 3 -0.0593932 9.07217 1.7087
2574 2 0.130432 10.8615 0.223365
3569 2 1.77351 11.0259 1.97625
6 3 3.42326 9.16745 1.95583
575 3 3.58118 10.8306 0.207406
1569 3 5.4009 10.5264 2.02894
2070 2 7.22256 8.8649 1.99125
2579 2 7.36393 10.7124 0.149766
3074 2 5.43163 8.89106 -0.0465299
7 3 10.8703 8.93933 1.80671
578 2 10.6304 10.5646 0.093798
1076 3 8.74863 8.89823 -0.104051
3571 3 9.15499 10.6472 1.70912
1571 1 12.6617 10.9701 2.03361
2071 3 14.1839 9.02535 1.74779
2582 1 14.1472 10.9631 0.106033
3076 3 12.4593 9.09755 -0.0136116
1078 1 16.3457 9.06507 0.192534
2006 1 17.8928 9.07416 1.78459
2825 3 17.7849 10.8344 0.178256
3573 3 16.0061 10.8386 2.08716
8 1 0.105359 12.6278 1.8052
583 2 0.119106 14.461 0.108534
1573 3 1.95586 14.1568 1.77278
3078 2 1.74343 12.5509 0.0847649
9 1 7.22931 12.4936 1.6944
585 1 7.34446 14.2257 0.111629
1080 2 5.42734 12.3993 0.154534
2072 1 3.67974 12.5161 1.94649
2585 1 3.59476 14.2086 0.0624261
3574 2 5.41701 14.2085 1.6755
1574 2 8.96119 14.1155 1.86848
2073 1 10.6581 12.6445 1.7715
2586 1 10.8969 14.1797 0.0501204
3080 1 9.18788 12.4699 -0.0403747
10 3 14.5137 12.8864 1.94765
587 3 14.3174 14.3917 0.0856154
1082 1 12.392 12.481 0.0341455
3575 2 12.5269 14.1987 2.0383
258 1 17.8294 12.5822 1.92404
771 2 17.7902 14.4815 -0.122923
1575 1 16.2847 14.1883 1.89399
3082 3 16.1779 12.5771 0.038435
626 1 0.0728696 17.8546 0.0591716
1084 2 2.01168 16.3084 -0.152453
1688 2 2.20049 17.9327 1.86427
2074 1 0.126753 16.3341 1.83696
11 3 3.51225 16.3067 1.70787
630 2 7.29323 17.6783 0.0379922
2075 1 7.2752 16.081 1.68832
2691 1 3.67767 17.9483 -0.145301
3084 3 5.41191 16.2037 0.175722
3690 3 5.37237 17.885 1.85333
12 1 10.5346 16.1073 1.85181
1086 1 9.14868 16.0807 -0.0154483
1690 3 8.9119 17.8405 1.76372
2693 3 10.8536 17.8382 0.0703421
634 2 14.4857 17.9858 -0.124732
2076 1 14.6618 16.0984 2.03525
3086 1 12.5481 16.078 -0.157004
3692 2 12.8583 17.4463 1.85496
876 2 17.762 17.7315 0.154211
1088 2 15.8968 16.0267 0.145003
1692 2 16.1311 17.9123 1.84518
2011 1 17.6568 16.0432 1.75016
13 3 -0.301986 1.88111 5.49113
588 2 -0.251679 0.0984535 7.19066
1089 1 1.5941 1.9013 7.31515
2564 1 0.210131 0.100644 3.60107
3063 1 1.71445 1.95743 3.83916
3576 2 1.83627 -0.0194105 5.63663
14 2 7.14829 1.85404 5.42162
564 1 3.42238 0.03084 3.5187
1065 2 5.4188 1.76505 3.5244
1577 2 3.74047 0.0994395 7.16272
1576 1 5.37949 0.348877 5.38646
2078 1 5.35869 1.96356 7.4192
2077 3 3.49193 1.79321 5.47546
2589 3 7.15654 -0.00319965 7.33476
2567 3 7.34244 0.116292 3.44382
566 2 10.6846 0.104867 3.50605
2079 1 10.7714 1.93921 5.38086
3065 2 9.026 1.9444 3.7155
3088 3 9.02008 1.97853 7.10306
3578 2 10.8537 -0.0317386 6.97537
3577 1 8.96702 0.00770715 5.30867
15 1 12.572 1.7644 7.10244
16 1 14.4121 1.82644 5.59021
589 3 14.2633 0.124399 7.14006
1067 3 12.4755 1.91526 3.54027
1578 2 12.6695 0.142717 5.52342
2568 1 14.3513 0.248089 3.52731
263 3 17.7443 1.91385 5.49041
776 3 17.9557 -0.0574112 7.09409
1090 2 16.1418 1.82808 7.21356
2815 2 18.026 0.284193 3.42348
3067 2 16.152 1.84632 3.8167
3579 1 16.0359 0.0845959 5.38023
568 1 -0.192833 3.63208 3.7188
1069 3 1.97414 5.26351 3.77139
1580 2 -0.00210317 3.45974 7.29197
1579 3 1.78113 3.46374 5.57636
2081 2 1.84931 5.33934 7.27398
2080 3 0.078245 5.44112 5.55038
2591 2 -0.238071 7.31231 7.39515
2575 3 -0.0752375 7.13159 3.67101
3583 2 1.59137 7.26078 5.19491
17 3 3.43824 5.29025 5.50512
571 1 7.16946 3.54716 3.76353
592 1 7.05657 7.14601 6.98633
576 1 3.44322 6.96466 3.57798
1585 2 5.2429 7.09212 5.3133
2082 1 7.1886 5.29104 5.24224
2590 3 3.52385 3.6773 7.14232
2580 1 7.10605 7.09904 3.63046
2570 1 3.65194 3.52249 3.57443
3069 3 5.22804 5.15284 3.45431
3089 3 5.39676 5.37436 7.04094
3586 2 3.5874 6.93887 7.2187
3581 2 7.14581 3.64285 7.0977
3580 3 5.28364 3.40795 5.3205
18 2 10.8787 5.40216 5.34113
19 2 9.02692 5.36462 7.35142
590 3 10.8296 3.61156 7.21474
579 1 10.7845 6.95853 3.62744
1071 2 8.85609 5.27792 3.3278
1587 1 10.6623 7.05315 7.10837
1581 2 9.06149 3.78326 5.44919
2572 1 10.8475 3.56657 3.75332
3587 3 8.93963 6.81312 5.26371
572 1 14.3781 3.62678 3.55096
1091 1 12.6875 5.37346 7.31488
1589 1 12.9454 7.2133 5.40682
1583 2 14.5107 3.58785 7.2092
2083 3 14.3429 5.38649 5.18788
2593 2 14.3421 7.22126 7.39613
2583 3 14.3537 7.3894 3.43987
3071 3 12.6625 5.374 3.65508
3582 3 12.7144 3.56507 5.32852
757 1 17.9125 3.65727 3.71621
1073 3 16.1823 5.30825 3.62541
1768 1 17.835 3.78086 7.12333
1582 3 16.1154 3.66235 5.37474
2084 1 16.0832 5.3786 7.33882
2017 3 18.0301 5.48492 5.49501
2841 3 17.9327 7.16607 7.55855
2826 3 17.8074 7.40208 3.66968
3589 3 16.0754 7.0823 5.43256
20 2 0.159518 9.23014 5.17337
574 1 0.026651 10.8891 3.46728
1584 3 1.94037 10.8087 5.45601
3073 2 1.82637 8.98964 3.55538
3090 2 1.80403 8.91283 7.07701
3584 1 -0.0391251 10.8879 7.18979
21 2 5.32568 8.66665 6.98226
22 2 7.1809 8.77818 5.23872
591 3 3.69391 10.7117 7.06892
580 2 7.29024 10.7814 3.50863
1075 3 5.06073 8.82807 3.65313
1588 1 7.05378 10.4306 7.53575
2085 2 3.54347 8.85982 5.29832
2577 3 3.48873 10.749 3.78891
3585 3 5.55554 10.6808 5.42886
1092 3 8.95388 8.9622 7.60049
1586 1 8.79062 10.534 5.34824
2086 1 10.5218 9.1824 5.65648
2592 2 10.6611 10.7332 7.39264
2581 2 10.7534 10.6691 3.58661
3075 2 9.16349 8.77945 3.65226
23 1 14.4175 9.04804 5.59849
582 3 14.2877 10.8832 3.78332
1077 3 12.5344 9.17767 3.83245
2087 2 12.4329 9.02469 7.32163
3590 3 14.2458 10.7072 7.49713
3588 1 12.5062 10.6646 5.60982
270 3 17.7853 9.16157 5.76794
764 3 17.7259 10.7379 3.88601
1590 2 15.9828 10.9173 5.68527
3091 2 16.0153 9.05497 7.38853
3077 1 16.0875 9.09483 3.79571
3835 1 17.8344 10.6827 7.47262
24 2 1.89671 12.5037 7.29431
593 1 0.315618 14.3257 7.2253
1079 2 1.85692 12.711 3.61873
2088 3 0.0446576 12.588 5.48948
2584 2 0.191398 14.6077 3.48198
3591 3 1.7946 14.2618 5.47742
25 1 3.75581 12.663 5.56375
584 3 3.80362 14.2693 3.37854
1093 3 5.62542 12.5166 7.1823
1592 1 3.75784 14.4285 7.30635
1591 2 5.65833 14.2505 5.29835
2089 1 7.26306 12.6799 5.37996
2594 1 7.11303 14.364 7.17749
2587 2 7.36887 14.1202 3.55862
3079 2 5.43944 12.5598 3.49199
26 1 10.6532 12.4744 5.67576
586 2 10.9828 14.2057 3.58784
1081 3 9.13422 12.4392 3.65682
2090 3 8.84427 12.4142 7.5164
3593 2 10.5924 14.2973 7.19318
3592 1 8.99111 14.3266 5.23272
594 3 14.2927 14.1959 7.19647
1593 3 12.5006 14.2009 5.55042
2091 1 14.3507 12.4462 5.64439
2588 1 14.4151 14.5524 3.68707
3092 1 12.3774 12.7319 7.39598
3081 3 12.6452 12.5953 3.84473
27 2 16.0599 12.4782 7.40197
781 3 17.7978 14.3461 7.27786
1083 2 16.0823 12.4863 3.69163
2025 2 17.7433 12.5829 5.64918
2835 3 17.9777 14.5609 3.75394
3594 1 16.1803 14.4783 5.39178
28 3 -0.100452 15.9054 5.5012
651 3 0.0354801 17.8 7.05043
1094 1 2.07411 16.1256 7.24538
2690 1 -0.074233 17.6976 3.86886
3083 1 2.01301 16.2678 3.77466
3701 1 1.71963 17.8943 5.47996
29 2 7.27448 16.0817 5.53372
629 2 3.70066 17.7773 3.76422
1085 1 5.77609 15.9627 3.52312
1704 3 3.58042 17.878 7.09467
1703 3 5.56583 17.9741 5.28628
2093 2 5.49558 16.019 7.06905
2092 2 3.74521 16.0583 5.3572
2715 1 7.1755 17.9566 6.91192
2695 1 7.34577 17.8683 3.63224
632 1 10.4816 17.8509 3.76087
2094 3 10.7251 15.8475 5.36504
3093 3 9.01025 16.1677 7.1834
3085 1 8.66644 16.2574 3.63063
3704 3 10.917 17.917 7.40558
3703 1 9.04902 18.041 5.57364
30 1 12.226 15.9873 7.23599
31 1 14.2454 16.2461 5.65636
653 1 14.4161 18.0578 7.35177
1087 1 12.5887 15.8799 3.68087
1706 2 12.3742 17.922 5.78608
2698 2 14.4857 17.8952 3.56014
278 3 17.8748 16.3812 5.3833
901 3 17.8009 18.0311 7.13533
1095 3 16.0766 16.183 7.18638
2878 3 17.8837 17.9468 3.62188
3087 3 16.2822 16.152 3.64141
3707 1 16.1014 17.869 5.34724
1594 2 1.6276 -0.0268501 8.89379
2095 3 -0.0614224 1.79729 9.14816
2595 2 0.0665023 -0.16411 10.8366
3094 3 1.64464 1.67778 10.7507
33 1 7.33831 2.02358 8.99641
595 1 3.64154 -0.114254 10.5818
1096 3 5.3746 1.81394 10.782
2597 1 7.00437 0.182048 10.4554
2596 2 5.38516 0.296753 8.92898
3095 3 3.5148 1.89546 9.16943
596 3 10.8256 -0.13157 10.8363
1097 1 10.9279 1.87629 8.95201
3096 3 8.97249 1.80282 10.7415
3596 1 9.05844 -0.0200904 8.87328
597 3 12.6582 0.00464357 8.97815
1098 2 12.8012 1.84307 10.6972
2098 1 14.3942 1.87891 8.94951
2598 2 14.4792 -0.0210854 10.8041
1597 3 16.1355 0.0640331 8.96121
2032 1 18.1036 1.95962 8.98161
2845 3 17.9611 0.154911 10.7817
3097 2 16.052 1.87226 10.6513
598 3 -0.202907 3.42093 10.6638
1099 3 1.84222 5.37931 10.6449
2603 2 -0.057233 7.24067 10.7408
2599 1 1.78841 3.50453 9.09319
3098 2 0.083023 5.18613 9.00109
3602 2 1.6912 7.09937 8.83956
36 3 3.62226 5.32629 9.06921
605 2 3.46265 7.2991 10.4771
604 2 5.35184 7.15865 8.93652
600 2 7.32732 3.64469 10.7941
1100 1 7.09135 5.50912 8.94859
2606 2 7.12969 6.83128 10.758
2600 2 3.31983 3.65021 10.8789
3099 1 5.00997 5.34395 10.7759
3599 3 5.4536 3.56171 9.08293
606 1 10.7891 7.04661 10.9047
599 2 9.11942 3.69934 9.10318
1101 1 9.08396 5.36262 10.8079
1605 2 9.02165 7.21445 9.11946
2100 3 10.9509 5.65187 9.04579
2601 3 10.7635 3.58659 10.8303
601 2 14.2967 3.66825 10.8381
1600 2 12.7378 3.6832 8.94612
2609 2 14.1591 7.36837 10.8719
2608 3 12.6472 7.15687 9.21476
3101 3 14.3781 5.58408 8.90398
3100 2 12.5558 5.48338 10.8761
786 2 17.7468 3.60894 10.7827
1102 3 16.0282 5.28727 10.7784
2853 3 17.8091 7.06156 10.9258
2602 3 16.0937 3.46761 8.99585
3348 3 17.8916 5.27634 9.11033
3608 3 16.0714 7.32991 9.12913
39 2 -0.0194217 9.03666 8.87087
603 1 0.121554 10.6454 10.7652
602 2 1.7369 10.7538 8.85441
3102 1 1.80227 8.95549 10.3996
607 2 7.25595 10.6506 10.8963
1104 2 5.27564 8.85894 10.7337
1103 2 3.45627 8.8739 8.74151
1603 1 5.22813 10.495 8.94293
2104 1 7.10037 8.76228 9.08053
2604 2 3.50038 10.705 10.6677
2607 1 10.635 10.5662 11.1038
2605 2 8.91992 10.6184 9.12524
3104 2 8.9404 8.76947 10.902
3103 2 11.0246 9.04778 9.16446
42 1 14.2737 8.93964 9.00868
609 2 14.3808 10.7141 10.965
1105 2 12.2832 8.9497 10.9531
3606 1 12.5204 10.9332 8.86725
289 3 18.0318 8.94596 9.04236
792 2 17.9729 10.4876 10.8735
608 1 16.0034 10.9986 9.08498
3105 1 16.1006 9.16997 10.8113
1107 2 1.88453 12.3921 10.6917
1106 3 0.0908031 12.5072 8.78373
1609 3 1.90287 14.3144 9.04889
2610 2 0.174249 14.2745 10.6814
610 3 3.64899 14.1399 10.7287
2107 2 3.5905 12.4126 8.84172
2612 2 7.248 14.2895 10.8589
2611 3 5.41793 14.1912 8.99134
3107 3 7.30156 12.5289 9.17059
3106 2 5.42239 12.4063 10.7592
45 3 10.7745 12.3676 9.08114
611 3 10.5492 14.0171 10.8544
1108 2 8.87047 12.3141 10.9716
3611 3 8.88357 14.2516 9.21086
612 1 12.4463 14.4332 9.1901
1109 1 14.1593 12.733 9.12913
2613 3 14.3247 14.327 10.8928
3108 2 12.4432 12.5261 10.8742
1293 2 17.8193 12.5683 9.07669
1110 1 16.2606 12.4178 10.86
1612 1 16.0707 14.061 9.05973
2860 3 17.8374 14.334 10.6395
1719 2 2.00999 17.8948 8.97517
2110 2 0.210363 16.1505 8.87445
2721 1 0.0713887 17.9279 10.8259
3109 2 2.0538 16.0691 10.7707
48 1 7.21003 16.0364 9.08403
659 1 3.7012 17.8292 10.6921
1111 1 5.24596 15.715 10.8912
2724 3 7.19073 17.9021 11.0141
2722 1 5.53285 17.9269 8.79224
3110 3 3.82235 16.2057 9.00608
661 3 10.6229 17.7709 10.7518
1112 1 10.7243 15.954 9.03296
3111 3 8.93242 16.1349 10.8983
3723 3 8.84989 17.7975 8.97479
663 3 12.5201 17.8672 8.88633
1113 2 12.5234 15.9085 10.711
2113 3 14.2001 16.0802 8.80978
2727 1 14.3299 17.6914 10.774
1725 3 16.1562 17.9934 9.00066
2047 1 17.8607 16.0586 9.14985
2908 2 17.8219 18.0645 10.9375
3112 3 15.9587 15.9895 10.5398
32 1 0.140161 1.91362 12.4413
613 2 0.0585854 -0.0145361 14.3334
1114 1 1.71006 1.7554 14.2993
3595 2 1.77107 -0.115447 12.5161
34 3 7.42449 1.58196 12.5587
614 3 7.20789 0.250354 14.3163
1595 1 5.46692 0.15346 12.3809
2096 3 3.4424 1.74223 12.6105
2614 2 3.53981 0.0138518 14.3315
3113 1 5.30713 1.7968 14.1239
1115 3 9.23694 1.83049 14.1928
2097 3 10.9412 1.62565 12.2277
2615 3 10.9301 0.0371885 14.3583
3597 1 9.26101 -0.0974399 12.4682
35 2 14.643 1.69212 12.5724
615 3 14.4129 -0.049621 14.304
1596 1 12.6974 0.0541471 12.4168
3114 3 12.6509 1.81702 14.1731
282 3 17.9486 1.85263 12.4157
801 2 17.9158 0.0126129 14.2005
1116 1 16.1862 1.72585 14.1335
3598 2 16.1562 0.00287333 12.394
618 3 -0.00614238 7.04367 14.3096
1598 3 1.65051 3.64065 12.4758
2099 1 -0.102712 5.167 12.4619
2616 3 -0.101491 3.50627 14.4752
3115 1 1.64187 5.1123 14.4978
3603 3 1.56651 7.0334 12.5039
37 1 3.51844 5.40506 12.5713
620 1 7.02666 7.01792 14.3699
616 3 3.54853 3.62176 14.0709
1117 3 5.37931 5.32485 14.2195
1604 2 5.42894 7.15988 12.5125
2101 1 7.04688 5.32814 12.3763
2620 3 3.52443 6.97184 14.3851
2617 1 7.30391 3.43444 14.2281
3600 1 5.48221 3.48061 12.4375
38 3 10.8167 5.20387 12.6231
617 3 10.768 3.57616 14.5087
1599 1 8.87325 3.64415 12.5906
2621 3 10.7627 6.80551 14.5669
3116 3 8.7806 5.14936 14.3713
3605 1 8.81557 6.99626 12.6474
622 2 14.3586 7.09875 14.507
1118 2 12.6179 5.21781 14.4013
1607 2 12.492 7.12646 12.7809
2102 1 14.2836 5.5713 12.5861
2618 1 14.1882 3.60451 14.2251
3601 1 12.6981 3.62675 12.6226
806 1 18.0917 7.05757 14.5487
1601 1 16.1127 3.38661 12.4198
2036 3 17.8938 5.52597 12.5549
2866 2 17.791 3.54154 14.2153
3117 3 16.0314 5.24217 14.1786
3609 1 15.9166 7.35655 12.5145
40 1 0.0230857 8.9978 12.1829
1119 1 1.74935 9.15493 14.2497
1602 1 1.83692 10.7664 12.4393
2619 2 0.11103 10.9377 14.2568
41 2 7.06177 8.69456 12.5698
619 1 3.48382 10.7464 14.3512
2103 3 3.37005 8.78992 12.3306
2622 1 6.90459 10.774 14.5148
3118 2 5.29017 8.84886 14.2708
3604 1 5.30061 10.8692 12.6111
621 2 10.5704 10.7085 14.4374
1120 3 8.77471 8.85227 14.3868
1606 1 8.85112 10.7693 12.6559
2105 3 10.7578 8.83766 12.9413
43 1 14.3462 8.98512 12.5255
2623 3 14.2697 10.6704 14.5082
3119 1 12.552 8.87639 14.5004
3607 3 12.5207 10.6342 12.5673
290 2 17.9609 8.98004 12.8609
1121 3 15.8792 8.92399 14.2618
1608 3 16.2094 10.7368 12.7329
2870 1 17.7131 11.0433 14.3778
623 2 0.0891733 14.1685 14.2789
2106 2 -0.0420689 12.7759 12.2951
3120 2 1.79129 12.5422 14.1849
3610 1 1.67862 14.2042 12.4198
44 3 3.49194 12.4764 12.5857
624 3 7.06504 14.456 14.2926
1122 2 5.2 12.5206 14.5355
1610 2 5.36289 14.1042 12.5976
2108 2 7.23766 12.3856 12.4621
2624 2 3.36471 14.3144 14.2005
46 2 10.5257 12.5933 12.4892
2625 3 10.8043 14.2153 14.4333
3121 2 8.6951 12.6202 14.3033
3612 1 8.92159 14.2675 12.6973
625 1 13.896 14.2268 14.4733
1123 2 12.3976 12.3298 14.5177
1611 1 12.3513 14.2676 12.6609
2109 3 14.4254 12.7054 12.6601
811 1 17.8952 14.3972 14.4484
2044 2 17.9978 12.4937 12.4339
3122 1 16.0847 12.6944 14.2637
3613 1 16.087 14.4097 12.4577
47 1 -0.041524 16.0443 12.6153
676 3 0.0964483 18.1526 14.2707
1124 3 1.8611 16.0319 14.2912
3720 3 1.9706 17.7463 12.5835
49 3 7.09133 16.1519 12.6658
678 1 7.20937 17.9472 14.3558
1721 1 5.2557 17.8259 12.6288
2111 3 3.52785 16.0041 12.5153
2740 2 3.67779 17.9331 14.2611
3123 1 5.20607 15.9932 14.1969
1125 3 9.03886 16.1667 14.3426
2112 2 10.8231 15.8116 12.4576
2741 1 10.7398 17.8924 13.9029
3724 3 8.92052 17.9902 12.4686
50 2 14.2284 16.2098 12.4087
680 3 14.1946 17.7324 14.2686
1724 3 12.5419 17.9034 12.4675
3124 1 12.5604 16.0184 14.358
297 3 17.8775 16.0207 12.5624
926 3 17.9825 17.6617 14.2836
1126 3 15.842 16.0394 14.1968
3726 1 16.1153 17.7532 12.6539
1613 2 1.94087 -0.0250304 16.0475
2114 1 0.0375698 1.46562 16.2043
2626 1 -0.0339775 0.0890307 18.0228
3125 2 1.73245 1.58719 17.7737
51 3 3.57973 1.92335 16.0155
502 2 3.44111 -0.0389406 17.8879
1128 3 5.26233 1.63228 17.8552
2115 2 7.22817 1.85003 16.0275
2628 1 7.17691 0.0135178 17.7327
3614 3 5.39631 0.0984671 15.9538
52 1 11.0145 1.79377 16.0136
503 3 10.7812 0.0236798 17.6991
1614 2 9.12636 0.0740109 15.8642
3127 3 9.12571 1.68054 17.7637
1130 3 12.4891 1.94437 18.1515
2116 3 14.3199 1.8187 16.0278
2630 3 14.2108 0.109366 17.9127
3615 1 12.7898 0.00740672 16.1083
1615 3 16.1278 0.0012509 15.9453
2051 1 17.7115 1.94197 16.1573
2501 3 17.8716 -0.0145992 17.9605
3129 2 16.0833 2.03928 17.9527
53 1 0.0565522 5.44441 15.9746
506 3 -0.0529159 3.49058 17.8887
1132 1 1.73555 5.29657 17.8531
1618 3 1.69435 7.09652 16.0525
2636 3 -0.0836045 7.03673 17.781
3616 2 1.48664 3.37145 16.1591
54 3 7.03203 5.2943 16.0095
508 2 7.30095 3.62551 17.7934
513 2 3.653 7.12547 17.5626
1616 3 5.50085 3.53076 16.0841
2117 3 3.63889 5.17069 16.212
2640 3 7.21414 7.0865 17.6806
2632 1 3.41359 3.59558 17.7519
3131 2 5.23725 5.44691 17.6898
3620 1 5.21704 7.20659 16.1104
515 1 10.7795 7.01631 18.1131
1134 1 8.94237 5.55918 17.8603
1620 2 8.95648 6.92332 16.0489
2118 1 10.7309 5.49818 16.1312
2633 1 10.57 3.44708 17.8856
3617 2 8.84867 3.4324 16.1117
55 3 14.3524 5.23906 16.2351
510 1 14.2073 3.79533 17.9892
1617 2 12.4754 3.39383 16.1274
2644 1 14.3572 7.29933 17.9138
3133 3 12.3207 5.114 17.8596
3622 3 12.6125 6.9321 16.2974
303 1 17.8871 5.11803 16.1026
819 1 17.8677 3.63485 18.1005
1136 3 16.3272 5.31886 17.8462
1622 1 16.0131 7.2152 15.9032
2511 1 17.7389 7.09732 17.6835
3618 2 16.0596 3.53394 16.1587
511 3 0.196052 10.7554 17.5911
2119 1 0.206916 9.10745 15.9525
3135 3 1.87286 8.78788 17.7982
3619 2 1.97536 10.8313 16.0171
56 2 3.3907 8.87168 15.9324
516 1 6.89512 10.7366 17.9425
1138 2 5.42936 8.92091 17.9514
1619 1 5.34533 10.6825 16.1358
2120 3 7.12228 8.99364 15.9818
2638 1 3.41765 10.4786 17.9467
57 1 10.6239 9.12744 15.9657
2641 2 10.5588 10.789 18.204
3137 2 8.92338 8.89557 17.7056
3621 1 8.78673 10.5617 16.2906
519 3 14.3417 10.7026 17.9889
1140 3 12.4457 8.73734 17.8722
1621 1 12.3828 10.841 16.4138
2121 2 14.4834 9.01723 16.1418
825 2 18.0166 10.6891 17.762
2056 3 18.0116 8.87279 16.0239
3139 1 16.2059 9.14949 17.7678
3623 1 16.155 10.9144 15.9389
58 1 -0.00598261 12.6418 16.0461
1142 1 1.9695 12.535 18.0387
1623 3 1.81638 14.2772 15.979
2646 3 0.261194 14.279 17.9739
59 3 6.91206 12.5994 16.1515
522 3 3.34005 14.4616 17.7931
2122 1 3.47416 12.4735 15.8774
2648 1 7.13723 14.4177 17.697
3141 1 5.12579 12.6359 17.624
3624 1 5.13222 14.4418 16.0234
523 3 10.521 14.2722 17.8495
1144 3 8.68735 12.4549 17.6689
1624 2 8.75881 14.4595 15.9883
2123 1 10.5588 12.2105 16.323
60 2 14.267 12.6294 16.1868
2650 1 14.2439 14.1431 17.922
3143 2 12.6049 12.5379 17.9226
3625 2 12.3208 14.251 16.2756
308 2 17.8954 12.7893 16.2214
1146 1 16.0967 12.1838 17.8909
1625 3 15.9199 14.1882 16.1247
2521 1 17.7912 14.3808 18.0584
1738 3 1.75418 17.929 16.2119
2124 1 0.118025 16.0355 16.1593
2751 3 -0.231936 17.7613 17.7818
3145 1 1.71928 16.3115 18.0193
61 2 3.49357 16.1988 16.035
691 2 3.64705 17.7887 17.8324
1148 3 5.47948 16.1824 17.9032
2125 2 7.20701 16.2262 16.1054
2755 1 6.93293 17.9886 17.9187
3740 1 5.23232 17.7243 15.9963
62 2 10.6631 15.977 16.0696
693 1 10.8162 17.9244 17.6349
1740 3 9.09469 17.9821 15.9217
3147 2 8.89767 16.2439 17.7443
1150 1 12.3401 16.0875 18.0128
2126 3 14.19 16.0837 16.1742
2759 3 14.571 17.8704 17.6867
3742 3 12.549 17.77 16.0106
1742 1 16.0458 17.718 16.028
2061 3 17.8104 15.813 16.215
2938 2 17.9872 17.6823 17.897
3149 3 16.2082 16.0478 17.987
501 3 -0.0723942 0.0364047 21.7726
63 1 0.0816935 1.74944 19.8957
1127 1 1.78652 1.86065 21.4482
3626 2 1.88138 -0.0621247 19.7552
504 1 7.06818 -0.0236365 21.2144
64 1 7.12932 1.75071 19.6255
1626 1 5.22578 0.196484 19.5852
2127 2 3.31858 1.76218 19.5124
2627 2 3.66201 -0.0510963 21.3435
3126 3 5.40602 1.7805 21.3339
1129 3 8.96932 1.8456 21.3559
2128 1 10.7495 1.75246 19.7699
2629 2 10.5304 0.0213914 21.5725
3627 3 9.07971 0.0211701 19.4791
505 1 14.1864 0.219418 21.5137
65 3 14.1814 1.92725 19.6314
1627 3 12.3728 0.15694 19.9422
3128 3 12.5732 1.86713 21.6054
815 1 17.9404 -0.00178471 21.4981
313 2 17.7438 1.8093 19.5821
1131 2 16.2846 1.65467 21.3212
3628 1 16.1784 0.0560767 19.5167
512 1 0.161159 7.08008 21.3611
1628 2 1.721 3.64721 19.5195
2129 3 -0.0675248 5.40842 19.7638
2631 3 0.0907654 3.78873 21.5797
3130 1 1.77282 5.43726 21.7309
3631 3 1.8047 6.96662 19.6779
507 3 3.67763 3.54663 21.2667
517 2 7.10078 7.16085 21.3903
66 3 3.65747 5.3934 19.557
1133 2 5.35804 5.43461 21.51
1632 1 5.26268 7.04163 19.429
2130 1 7.10223 5.25461 19.7034
2639 2 3.43436 7.1821 21.5174
2634 3 7.21405 3.72538 21.4287
3629 3 5.36167 3.54778 19.3436
509 3 10.58 3.57484 21.3716
67 3 10.7466 5.41273 19.8519
1629 3 8.67089 3.67627 19.666
2642 2 10.5818 7.1133 21.5649
3132 1 8.96278 5.3602 21.4715
3633 3 8.87598 7.0446 19.5499
520 3 14.342 7.28388 21.599
1135 1 12.5451 5.46061 21.5079
1634 2 12.564 7.10997 19.8456
2131 2 14.4575 5.40249 19.7326
2635 2 14.2077 3.58251 21.6529
3630 3 12.5325 3.64374 19.7903
826 2 18.0212 7.56027 21.2469
1630 2 16.1784 3.7127 19.8739
2316 2 18.0673 5.61665 19.8228
2507 2 17.8598 3.70968 21.7236
3134 2 16.2566 5.60291 21.1741
3635 2 16.1426 7.46171 19.4973
68 1 0.218697 8.83091 19.6081
1137 3 1.76095 8.95991 21.7665
1631 3 1.91299 10.7285 19.6959
2637 3 0.146387 10.5351 21.3842
514 1 3.52862 10.6484 21.7923
69 2 7.1816 8.94394 19.4113
2132 3 3.32434 8.77284 19.6739
2643 1 6.9951 10.6624 21.5
3136 1 5.46556 9.0287 21.5525
3632 3 5.31022 10.6388 19.7554
518 1 10.8031 10.8368 21.53
1139 2 8.9136 9.07338 21.5503
1633 3 8.81958 10.6883 19.8285
2133 1 10.8463 8.90692 19.7088
70 2 14.2002 8.81686 19.4444
2645 1 14.2349 10.7071 21.5648
3138 1 12.5617 8.96734 21.2837
3634 2 12.4636 10.8446 19.7236
318 1 18.0138 8.9809 19.548
1141 3 16.1047 8.99437 21.3331
1635 1 16.1696 10.7871 19.7743
2514 1 17.9871 10.7322 21.3429
521 2 -0.0674945 14.2687 21.5658
2134 2 0.00536467 12.4369 19.5286
3140 3 1.71596 12.4928 21.2995
3636 3 1.85649 14.4769 19.8211
524 3 6.98494 14.255 21.5072
71 1 3.58955 12.6641 19.6116
1143 3 5.37756 12.3962 21.5428
1636 3 5.37514 14.3099 19.4072
2135 3 7.28975 12.6447 19.7026
2647 3 3.86977 14.1786 21.3189
72 1 10.5334 12.7614 19.6594
2649 1 10.5639 14.3967 21.4539
3142 1 8.92252 12.5248 21.5731
3637 2 8.70516 14.5189 19.5311
525 2 14.1315 14.4154 21.2792
1145 2 12.3846 12.51 21.3592
1637 2 12.2735 14.4684 19.6352
2136 1 14.1171 12.6027 19.7052
835 3 18.0378 14.1288 21.5559
2321 1 17.613 12.4747 19.6421
3144 2 16.0266 12.5072 21.4919
3638 2 15.9205 14.1691 19.8038
690 2 -0.154944 17.852 21.4962
73 2 0.0302628 16.112 19.6463
1147 2 1.76542 16.1761 21.5273
3751 3 1.789 17.8537 19.6253
695 2 7.03388 18.0123 21.2863
74 1 7.064 16.1981 19.849
1502 2 5.31944 18.0376 19.6751
2137 1 3.52266 16.1333 19.6946
2754 3 3.58289 17.649 21.4137
3146 1 5.41727 16.0295 21.4624
1149 3 8.6232 16.282 21.4545
2138 2 10.7742 16.1946 19.6729
2757 1 10.8484 18.0989 21.2664
3753 2 9.00393 18.0284 19.6461
698 1 14.2689 17.8771 21.6059
75 3 14.1625 16.2124 19.5413
1504 3 12.4184 17.9344 19.5389
3148 2 12.5344 16.1696 21.4408
941 1 17.8972 17.8518 21.5733
323 2 17.941 15.8874 19.6548
1151 3 16.2113 16.0636 21.5451
3755 1 16.0202 17.8926 19.6013
1638 1 1.96799 0.0919057 23.3632
2139 2 0.162305 1.91096 23.4607
2651 1 0.139735 0.25697 25.0765
3150 2 2.03649 1.84747 24.9898
526 2 7.18954 -0.203742 25.3151
77 2 5.57701 1.71288 25.0716
76 1 3.87415 1.87881 23.3147
2140 3 7.17585 1.8669 23.1727
3640 3 3.76056 0.127985 25.1309
3639 2 5.67901 -0.086098 23.275
78 3 10.65 1.78963 23.2858
1152 3 8.85166 1.79023 24.9687
1640 3 10.6781 0.0146575 24.8719
1639 1 8.8776 0.28502 23.2825
2142 2 14.3346 1.85072 23.212
2141 1 12.5361 1.84581 24.995
2652 3 14.3375 0.0839758 25.0105
3641 3 12.5217 -0.0398021 23.1753
1641 1 16.0913 0.0568016 23.4313
2326 3 17.8222 1.91967 23.2136
2526 2 17.9798 0.299112 24.8345
3151 3 16.0723 1.91978 24.9022
528 3 -0.0043683 7.18712 25.0117
80 1 1.88538 5.39883 25.079
79 3 -0.0250084 5.53246 23.4051
1645 3 1.90455 7.10297 23.4621
3643 2 0.127585 3.65639 25.2158
3642 3 1.99737 3.84194 23.539
527 2 3.92391 3.4469 24.9559
81 2 7.3323 5.54155 23.3392
1153 3 5.48317 5.16245 25.0055
1648 2 3.93305 7.18624 25.1089
1643 3 7.44706 3.74747 25.0028
1642 2 5.52888 3.69234 23.1566
2143 3 3.7624 5.29161 23.1321
2655 1 6.97752 7.1325 25.2243
3648 1 5.41754 7.03061 23.2417
1649 1 9.05272 7.09309 23.3406
2145 2 8.88876 5.48685 25.2033
2144 2 10.7827 5.39401 23.2488
2653 2 10.5637 3.59532 24.9542
3650 2 10.8246 7.15555 25.2125
3644 1 9.0076 3.5778 23.0995
530 3 14.0537 7.05589 24.8617
82 2 14.3496 5.30083 23.0088
1644 3 12.3479 3.69627 23.2816
3152 1 12.3647 5.36926 24.9104
3652 3 12.3698 7.30854 23.4358
3646 3 14.18 3.49587 24.9608
841 3 18.1694 7.10091 24.8689
329 2 17.6391 5.45053 22.9909
83 2 15.9515 5.39608 24.8036
1651 1 16.2001 7.28164 23.4654
3893 2 17.806 3.89644 24.984
3645 1 16.1282 3.54681 22.9705
1154 2 1.93101 8.887 25.2976
1646 3 -0.121534 10.7284 25.1881
2146 1 -0.0285158 9.13039 23.2128
3647 3 1.76375 10.5696 23.6229
84 2 3.82255 8.96421 23.4143
1647 1 5.40907 10.5528 23.5236
2148 1 7.00885 8.93484 23.2247
2147 2 5.60574 8.92588 25.1553
2654 1 3.68242 10.7152 25.1025
3651 2 7.40119 10.7586 25.0545
529 3 10.6429 10.8698 25.2339
85 1 10.7433 9.074 23.4169
3153 2 9.02737 9.07101 25.0718
3649 2 8.93555 10.8672 23.2812
86 2 12.5396 8.98914 25.1003
1652 1 14.3219 10.9644 24.9036
1650 1 12.4416 10.7914 23.4376
2149 3 14.2881 9.00914 23.2808
1155 3 16.173 9.28853 24.8851
1835 1 17.9349 10.8907 25.037
2333 1 17.9908 9.04308 23.2157
3653 3 15.895 10.8721 23.368
87 1 0.117372 12.412 23.3344
1653 2 1.62924 14.3139 23.2684
2150 3 1.73862 12.4267 25.0951
2656 1 0.0728132 14.3543 25.0464
531 2 7.13187 14.4838 24.8895
88 1 7.02153 12.5816 23.1557
2151 1 3.46852 12.5868 23.0726
3154 3 5.29877 12.6717 25.0957
3655 2 3.51765 14.1985 24.9983
3654 2 5.12816 14.6031 23.3
89 1 8.80049 12.6602 24.9168
1655 1 10.7637 14.4667 24.9471
1654 2 8.84995 14.4581 23.1258
2152 1 10.6877 12.5427 23.1847
90 1 14.2477 12.7033 23.1347
1156 3 12.4437 12.4184 25.1225
2657 1 14.2686 14.0593 24.9794
3656 3 12.3303 14.3066 23.1649
337 1 17.7978 12.3415 23.2176
1656 2 16.0843 14.3199 23.2801
2153 3 16.1325 12.5331 25.0153
2531 3 17.9083 14.3942 24.8777
1513 3 1.86402 17.7826 23.2
2154 1 -0.0838529 16.1267 23.2938
2776 3 0.0425356 17.8496 25.0072
3155 1 1.65148 16.135 25.0399
715 1 7.0074 18.2778 25.1628
92 1 5.16231 16.1398 25.1294
91 3 3.39658 16.1242 23.4369
2155 2 7.25436 16.5006 23.4655
3767 2 3.49164 18.1224 25.1146
3766 3 5.16072 17.956 23.2042
93 2 10.6676 16.1745 23.1051
1157 1 8.94231 16.1368 25.1957
1515 3 8.8909 17.9759 23.3562
1516 1 10.682 17.8432 25.0264
2157 2 14.181 16.0417 23.0713
2156 3 12.5168 16.1165 24.8705
2778 2 14.3154 18.0516 25.053
3769 3 12.4857 17.7683 23.1479
1519 1 15.9422 17.7726 23.2105
2341 2 17.8516 16.1578 23.2738
2963 2 17.9038 17.9463 25.0034
3156 2 15.9656 15.9752 24.917
532 3 0.0721231 0.090422 28.4753
94 2 0.263273 1.94047 26.8681
1158 1 2.08413 1.94474 28.7846
3657 3 1.95806 0.273345 26.8867
533 1 5.33682 0.0172428 27.0123
534 2 7.17691 0.11298 28.482
1159 2 3.8797 1.89688 26.7182
2159 1 7.271 1.89698 26.9365
2658 3 3.58042 0.0942267 28.525
3157 3 5.41683 1.85307 28.774
1160 3 8.9664 1.84919 28.7125
1658 3 9.01348 0.0846992 26.8727
2659 3 10.8568 0.134256 28.512
3158 1 10.5695 1.76308 26.5919
535 3 14.3015 0.1376 28.4084
97 1 14.3324 1.8508 26.7067
2660 3 12.5719 0.0420916 26.6007
3159 3 12.4136 1.78707 28.3096
845 1 17.8178 0.0990623 28.4595
344 1 17.8865 2.02593 26.7283
1161 1 16.0683 1.88981 28.6294
3660 3 16.0314 0.266087 26.6635
536 2 1.80744 3.86714 26.9086
540 3 0.14914 7.26058 28.5949
1162 2 0.0941006 5.48498 26.7479
1664 2 1.94567 6.90203 26.9219
2661 2 0.0462311 3.86688 28.6756
3160 1 1.88422 5.32295 28.75
537 2 3.70279 3.5621 28.6084
543 1 7.35216 7.30882 28.5646
1163 2 5.38074 5.27263 28.6222
1661 1 5.53206 3.52373 26.9089
2162 3 3.78503 5.11581 26.8846
2668 3 3.63566 7.22153 28.6021
2667 1 5.3728 7.27771 26.9812
2663 3 7.27175 3.64855 28.7096
3161 2 7.3035 5.42889 27.1318
538 2 10.7571 3.52637 28.6223
99 3 10.7662 5.30049 26.6515
2669 2 10.5663 7.04029 28.6515
2662 2 9.12746 3.5636 26.9022
3162 1 9.09926 5.42288 28.5211
3668 1 9.26707 7.31733 26.84
545 2 12.5159 7.13686 26.7204
546 2 14.2625 7.00467 28.501
1165 3 14.2783 5.31713 26.6675
1164 1 12.3644 5.46512 28.5665
2664 2 13.9813 3.60563 28.4095
3663 2 12.4412 3.46193 26.5733
853 2 17.9173 7.02579 28.4726
539 3 16.0257 3.61269 26.7978
1349 3 17.6074 5.3763 26.5682
1670 1 16.0069 7.10533 26.5363
2536 2 17.9333 3.82526 28.5782
3163 1 16.0507 5.36849 28.3711
1166 3 1.96315 8.87704 28.6278
2165 3 0.120106 8.95214 26.9124
2666 2 0.0867136 10.8603 28.7298
2665 1 2.00729 10.745 26.7376