ITEM: TIMESTEP
5000
ITEM: NUMBER OF ATOMS
4000
ITEM: BOX BOUNDS pp pp pp
4.6682465370363246e-02 3.5687377534629761e+01
4.6682465370363246e-02 3.5687377534629761e+01
4.6682465370363246e-02 3.5687377534629761e+01
ITEM: ATOMS id type x y z
3063 1 1.79321 1.72881 3.4978
1563 2 1.85743 0.0724929 1.78672
2569 2 -0.062611 3.51132 0.0221544
1 2 3.70733 1.84269 1.5699
1566 2 5.20034 3.56004 1.70461
1065 2 5.13984 1.92813 3.46402
3564 2 5.29414 -0.10179 1.66992
2065 3 7.02839 1.92913 1.99468
3065 2 8.87436 1.69244 3.72635
2 2 10.6756 1.85424 1.95899
2572 3 10.6773 3.53351 3.64157
1067 2 12.4571 2.02656 3.44968
2066 3 14.2123 2.02674 1.76347
1567 3 12.4449 3.51031 1.80387
3565 1 12.6295 0.0785196 1.73944
2568 3 14.386 -0.0508564 3.6109
1068 3 15.9756 1.91123 -0.107285
3067 3 16.1682 2.07757 3.49407
3566 1 1.89657 3.64048 1.85081
1069 1 1.87383 5.3198 3.80467
1568 3 1.58473 7.04817 1.7096
573 3 -0.0080857 7.06825 -0.0748068
3 1 0.190694 5.27979 1.87608
2067 2 3.43477 5.38209 1.68673
2576 2 3.42991 7.24027 -0.10223
3567 1 8.88729 3.68314 1.79476
4 1 7.28263 5.28423 1.90998
2068 2 10.6829 5.26806 1.79632
2578 3 10.6951 6.97882 0.109732
5 2 14.4489 5.25185 1.76079
3071 3 12.385 5.3276 3.82346
3568 2 16.1696 3.70407 1.79048
581 2 14.3821 7.14262 -0.145633
1073 3 16.1536 5.35606 3.55143
3072 3 16.1334 5.53447 -0.23961
3073 3 1.5868 8.92781 3.71278
2575 3 -0.212641 6.98657 3.37798
3570 2 5.43956 7.18803 1.85332
576 3 3.47937 6.99104 3.60532
6 1 3.55482 8.59793 1.99004
2577 3 3.41226 10.6111 3.73178
1570 1 9.10115 7.18651 1.95507
2070 1 7.11114 8.99616 1.70873
3571 1 9.08105 10.6917 1.76915
2580 1 7.12901 7.08354 3.5645
3572 3 12.4674 6.91383 1.85735
7 3 10.8105 8.95881 1.99797
1077 1 12.5649 8.97866 3.66214
2071 2 14.4507 8.77213 1.85907
1571 3 12.5675 10.6828 2.07049
2581 3 10.7714 10.6226 3.5708
1572 1 16.1356 7.11885 1.75266
2006 2 17.7414 8.97062 1.54281
1078 2 15.8916 8.95947 0.0536641
3569 1 2.13845 10.4613 1.83107
574 2 0.124955 10.7523 3.43174
1079 3 1.90683 12.4774 3.59018
1569 1 5.26764 10.6755 1.99001
1080 2 5.33541 12.2912 0.109331
2072 2 3.54194 12.4793 1.76088
3574 1 5.47913 14.0584 1.89877
2585 3 3.65936 14.4287 0.0261585
580 1 7.11337 10.7617 3.73717
585 3 7.0977 14.1433 0.0425499
9 1 7.10916 12.349 2.02087
1574 1 8.93787 14.0984 1.82933
578 1 10.6998 10.815 -0.181909
2073 3 10.5457 12.4254 1.87048
3575 2 12.4353 14.0246 1.74541
582 3 14.2324 10.753 3.76992
3081 3 12.5364 12.6146 3.60229
10 2 14.2722 12.5193 1.70421
3573 2 16.0729 10.6648 1.95911
1083 2 15.9584 12.5497 3.61008
3082 2 16.0309 12.5332 0.0459405
1573 1 1.93167 14.1657 1.76949
1084 1 1.84578 15.9716 0.124817
11 2 3.79062 16.1111 1.90772
2074 2 0.0269891 15.9749 1.65473
3084 2 5.47958 16.0603 -0.0949404
2075 3 6.95118 16.107 1.78321
630 2 7.22185 17.7824 0.0420184
3690 1 5.4016 17.8894 1.95421
2693 2 10.4838 17.7282 0.133135
1690 2 8.97683 17.7663 1.73168
1086 2 8.74079 15.9814 -0.165836
12 2 10.6258 15.9042 1.88359
2076 2 14.3398 15.8818 1.71598
586 2 10.5736 14.3193 3.77485
1575 2 16.2222 14.5139 1.93679
1692 2 15.9305 17.9383 1.79898
2011 1 17.8036 16.1247 1.69544
2564 2 -0.249669 0.0375731 3.68037
3576 3 1.86993 0.0680891 5.20629
1579 1 1.82777 3.54503 5.3167
2077 2 3.48823 1.71704 5.44519
14 3 7.12523 1.68142 5.48248
3577 3 9.11226 0.107544 5.58047
3088 3 9.02094 1.89682 7.05916
2079 3 11.0349 1.69149 5.41828
1578 3 12.5008 -0.118881 5.19191
15 2 12.5877 1.84259 7.35132
16 1 14.2706 1.88123 5.47497
1090 3 16.1267 1.7638 7.23049
2081 1 1.8395 5.45379 7.46343
3586 3 3.64604 7.21557 7.23702
2080 2 -0.0298191 5.37797 5.45866
2591 3 -0.0863725 6.93131 7.24332
571 3 7.06345 3.5922 3.87976
3069 1 5.18378 5.28919 3.722
2570 3 3.46531 3.59397 3.54696
3580 3 4.9978 3.66684 5.25813
17 3 3.44522 5.46018 5.76039
2590 1 3.52813 3.57595 7.23938
3089 2 5.38979 5.49298 7.15408
1581 2 9.03069 3.57076 5.4073
2082 3 7.05216 5.44499 5.49056
1071 3 8.98627 5.46821 3.8435
3587 3 8.86899 7.14084 5.57474
19 1 9.00191 5.57781 7.36514
3581 3 7.10152 3.65467 7.23005
590 1 11.0092 3.54383 7.358
3582 3 12.6759 3.65512 5.46423
18 1 10.7205 5.38923 5.56373
1583 2 14.3618 3.78714 7.1829
572 3 14.3348 3.49395 3.53088
1582 1 16.0493 3.66193 5.23597
2083 1 14.3087 5.53118 5.24001
2583 3 14.2141 7.00597 3.51216
2593 1 14.4955 7.19339 7.2656
3583 1 1.61762 7.04082 5.5005
1584 1 1.61755 10.6626 5.5962
20 2 0.0114075 8.81812 5.6203
1585 2 5.28819 7.1968 5.32465
2085 1 3.54729 8.87858 5.51676
1075 3 5.34416 8.87332 3.51954
3075 3 8.99422 8.88963 3.47386
592 1 6.94671 7.1595 7.26836
22 3 7.05141 8.79703 5.17747
1092 2 8.91516 8.91703 7.25508
2086 1 10.4049 9.10218 5.4313
579 1 10.739 7.21858 3.78504
1589 2 12.6107 7.24593 5.38562
23 2 14.192 8.90803 5.29542
3590 1 14.2502 10.7749 6.93981
3077 3 16.2678 8.95788 3.65703
3589 2 16.0491 7.15038 5.31858
1590 3 15.9875 10.8693 5.36601
3091 2 16.0596 8.94332 7.22816
2088 2 0.215142 12.6791 5.1749
24 1 1.71485 12.6328 7.17617
2587 1 7.05507 14.1941 3.67256
3585 3 5.06496 10.6517 5.47499
25 1 3.54469 12.6851 5.52225
3079 2 5.21089 12.3941 3.84256
1093 1 5.68396 12.3334 7.25461
2089 2 7.30267 12.6398 5.5046
584 3 3.86169 14.1761 3.4164
1586 3 8.77325 10.6801 5.32123
1081 2 8.88516 12.6617 3.67525
3592 1 9.14025 14.1692 5.63508
3588 1 12.2581 10.6978 5.27438
26 2 10.8177 12.5381 5.33171
1593 1 12.3803 14.218 5.39197
2091 2 14.1223 12.5808 5.60278
764 2 17.7614 10.6513 3.56454
27 2 16.1689 12.5448 6.96746
3083 1 2.01518 16.1862 3.48322
3591 1 2.15193 14.289 5.21805
28 1 0.0914487 16.1671 5.37587
2092 2 3.59046 16.0015 5.41256
2695 3 7.236 17.9167 3.74247
1591 3 5.3584 14.2157 5.68079
1085 3 5.42072 16.092 3.6953
1592 3 3.71457 14.4555 7.29585
3703 3 9.03735 17.9513 5.38264
632 2 10.688 17.7731 3.79924
29 2 7.16661 16.219 5.43655
3085 1 9.0163 16.1649 3.6806
2094 1 10.7677 16.1262 5.4078
1087 1 12.4888 16.0033 3.58098
30 2 12.532 16.0193 7.16007
1706 2 12.4539 17.6561 5.51163
2588 3 14.24 14.2897 3.58836
3087 2 15.8772 16.1776 3.71616
3594 2 16.1438 14.4522 5.30298
31 3 14.2627 15.914 5.64264
588 3 0.228359 0.0506177 7.04564
1594 2 1.64704 0.0929748 9.01913
1089 1 1.91557 1.73486 7.29868
1577 1 3.54122 -0.0797426 7.12466
2589 1 7.02476 0.199921 7.3107
2078 2 5.14508 1.84186 7.2133
2596 2 5.2238 0.253773 9.08676
3095 2 3.67272 1.8335 9.00036
3599 1 5.43148 3.51202 9.13333
2597 1 7.15299 0.0770619 10.761
33 1 7.16568 1.61372 8.84531
1097 2 10.9406 1.88004 9.01489
3578 1 10.9027 0.0771826 7.13032
597 3 12.5466 0.045937 8.90689
601 3 14.4186 3.65023 10.7114
1600 3 12.7354 3.78409 9.27049
776 1 17.8703 -0.0549651 6.88934
2098 1 14.4297 1.92321 8.89697
2602 1 16.0251 3.53121 8.92648
2032 3 17.9861 1.55791 8.89633
1768 3 17.9684 3.50946 7.38356
2599 3 2.1623 3.58995 9.16783
1099 1 1.48566 5.47898 10.7257
3098 3 -0.106805 5.39146 9.14042
36 3 3.60987 5.48603 9.05327
1100 3 7.0322 5.38113 8.94704
3099 3 5.39136 5.31217 10.7922
605 3 3.49319 7.10051 10.8634
599 2 8.84181 3.48135 8.99989
1587 1 10.765 7.17771 7.18894
1605 2 8.90187 7.36772 9.08595
1101 1 9.14899 5.44119 10.7079
2100 2 10.6669 5.48665 9.08019
1091 1 12.7381 5.39926 7.29941
3101 3 14.4341 5.4114 9.0042
606 1 10.5086 7.30402 10.7909
2084 3 16.1043 5.41531 7.26075
3348 3 17.924 5.46678 9.32855
1102 3 15.9962 5.27961 10.9357
39 2 0.045 9.05078 8.85221
3602 1 1.85991 7.23293 9.01869
3090 1 1.7538 8.6737 7.35936
3102 2 1.6659 9.04813 10.7044
602 2 1.78676 10.7441 9.20495
3584 2 -0.0411317 10.7925 7.28821
21 2 5.40613 9.13816 7.27486
604 1 5.20158 7.31518 9.22157
1103 2 3.5531 9.05328 9.0813
2104 3 7.07315 8.83975 9.0372
2606 3 7.27177 6.96831 10.6459
1104 2 5.35915 8.92189 10.8245
2087 1 12.3999 8.70731 7.05417
3103 1 10.6893 8.87051 8.75878
2608 2 12.4499 7.3094 9.04839
42 1 14.246 8.98588 9.08758
3606 2 12.312 10.6977 8.79708
2609 1 14.3572 7.23547 10.8233
3608 1 16.1807 7.23509 9.38572
289 2 17.8218 9.10833 9.18506
3105 2 16.0405 9.03741 10.8148
591 2 3.44992 10.8637 7.17236
1609 1 1.87569 14.2773 8.98171
1107 3 1.75144 12.4939 10.8209
2594 1 7.22335 14.43 7.20398
1603 3 5.30219 10.7902 9.14698
2107 1 3.45123 12.5354 8.97096
3107 2 7.42398 12.648 9.08823
1588 1 7.36731 10.3395 7.06981
2090 1 8.96296 12.6067 7.26683
2592 2 10.8283 10.6943 7.12135
2605 3 8.80905 10.523 8.89739
1108 3 9.04404 12.4169 10.8169
3593 2 10.8886 14.2584 7.30243
45 3 10.594 12.3574 8.93255
3092 2 12.3801 12.6481 7.15509
1109 3 14.2777 12.5622 9.04728
608 3 15.9807 10.8254 9.05916
594 1 14.337 14.2846 7.45445
1612 3 16.3081 14.2615 9.14175
651 2 0.118982 17.8437 7.21216
1719 1 1.72312 17.8821 9.06221
1094 2 1.7532 16.1398 7.0239
1704 1 3.53273 17.8145 7.03467
3110 1 3.64777 15.9661 9.13254
3109 2 1.96512 15.9995 10.648
2724 2 6.99341 18.0231 10.7207
2093 3 5.52502 16.2124 7.32006
2611 3 5.50875 14.1003 8.88108
2612 1 7.23545 14.3116 10.7951
610 3 3.65139 14.147 10.7987
3723 2 8.64427 17.9868 9.03019
3093 2 8.89208 16.0889 7.21609
48 3 7.37105 16.1959 9.07307
3611 1 9.03661 14.3342 8.88862
3111 3 8.89695 16.1013 10.9501
1112 3 10.5513 16.0853 9.06156
663 3 12.5938 17.6835 9.07235
612 2 12.4691 14.3031 8.97404
611 3 10.5902 14.279 10.7651
2727 1 14.3824 17.8233 10.6546
2113 1 14.3964 16.0373 9.3446
1095 3 15.9205 15.9565 7.4019
781 1 17.9809 14.2765 7.16148
3112 1 16.2914 15.7843 10.8239
3094 1 1.64111 1.71471 10.9717
1114 3 1.66183 1.94445 14.528
2096 1 3.57018 2.07269 12.7009
3595 2 1.65174 0.1881 12.8231
616 1 3.53 3.72309 14.5504
1595 2 5.26901 0.28496 12.7312
595 1 3.4056 0.079043 10.7867
1096 2 5.44381 1.83012 10.7723
34 1 7.30175 1.88879 12.6979
3597 2 9.14733 0.188016 12.721
3096 2 9.00165 1.9113 10.9041
1599 1 9.0025 3.69995 12.5002
2097 3 10.5595 1.8337 12.5691
1098 3 12.5814 1.87055 10.6773
2598 3 14.4027 -0.0476001 10.802
35 1 14.4273 1.59932 12.4438
3601 2 12.4457 3.63547 12.5137
615 3 14.4919 -0.138318 14.4296
3097 2 16.2086 1.62916 10.8103
2845 2 18.0162 -0.0416211 10.7193
2866 3 17.9053 3.58681 14.3671
1116 2 16.0564 1.75712 14.3573
2099 2 0.120728 5.34232 12.7242
2600 1 3.56517 3.80881 10.9807
1598 3 1.80799 3.62309 12.755
37 2 3.56573 5.36126 12.7842
2603 1 0.116965 7.34367 10.8339
3115 3 1.59875 5.30759 14.5818
3600 3 5.43807 3.60112 12.5981
2101 3 7.22822 5.29614 12.5865
1604 1 5.50839 7.04311 12.6887
600 1 7.08749 3.60191 10.6996
2601 1 10.8054 3.7527 10.7549
3605 1 8.91838 7.05167 12.5608
3116 3 9.0415 5.45755 14.3903
3100 2 12.5878 5.56926 10.8183
38 2 10.7849 5.40118 12.6264
1601 2 16.1874 3.44087 12.3902
2102 3 14.3473 5.28939 12.7599
786 3 17.9581 3.53515 10.7698
3609 3 16.1443 7.28941 12.3512
2618 3 14.3393 3.49749 14.0792
3117 3 16.0594 5.53548 14.158
622 3 14.2346 7.40158 14.2704
2619 3 -0.0679114 10.8789 14.3913
3603 3 1.80207 6.87851 12.7192
40 2 -0.0215569 8.9788 12.6114
1602 2 1.74888 10.7281 12.6669
2103 3 3.5281 8.916 12.5125
41 3 7.13163 8.82586 12.487
2620 2 3.80129 7.12182 14.2397
3118 3 5.54857 8.97781 14.2108
3104 1 8.75555 9.18628 10.843
1120 3 9.05592 8.82939 14.1667
1606 1 8.6343 10.8391 12.6318
2105 3 10.649 9.06518 12.5151
2607 3 10.7836 10.6493 10.7159
1607 1 12.6655 7.03102 12.452
1105 3 12.5015 8.89482 10.7606
3119 1 12.3243 8.93554 14.5474
43 3 14.183 9.18864 12.511
1121 1 16.1468 8.92717 14.0172
1608 1 15.9217 10.8647 12.455
2106 1 -0.161265 12.6405 12.6588
2604 2 3.65885 10.8768 10.7463
3120 3 1.67048 12.5506 14.2711
44 1 3.47885 12.5265 12.4888
607 1 7.05978 10.9011 10.7151
3604 3 5.22471 10.9306 12.4056
3106 3 5.52273 12.6809 10.599
2108 3 7.19692 12.6017 12.5166
46 3 10.7806 12.7595 12.6113
3612 3 9.12638 14.4053 12.6637
2623 3 14.1145 10.8482 14.5577
3607 1 12.3762 10.8061 12.5687
3108 1 12.3018 12.4726 10.6804
1611 2 12.4643 14.3956 12.3326
1123 2 12.3349 12.4912 14.2723
792 1 17.9064 10.9558 10.7338
609 2 14.0959 10.8377 10.6925
1110 3 16.0453 12.5053 10.8351
2109 3 14.1246 12.532 12.4576
3613 1 16.1382 14.0532 12.7131
3720 2 1.96232 17.8398 12.6937
2610 2 0.031912 14.2928 10.9231
3610 2 1.74175 14.2785 12.6903
1124 3 1.81759 16.1147 14.3897
1111 2 5.46674 15.9661 10.7527
3123 2 5.39477 16.0875 14.3933
2111 2 3.80647 16.0829 12.4024
1610 3 5.30393 14.2651 12.5789
678 1 7.32295 17.624 14.0726
3724 2 8.94223 17.8036 12.3797
49 2 7.23096 15.9664 12.5614
661 2 10.7085 18.0391 10.7254
1113 2 12.5463 16.1038 10.6449
3124 2 12.5106 16.2344 14.3809
2112 1 10.8234 16.0725 12.4612
50 1 14.47 16.0748 12.3982
1126 3 16.0273 16.2808 14.3532
2613 1 14.2999 14.4391 10.8037
625 2 14.2749 14.2812 14.0965
2616 1 -0.0620062 3.53804 14.4324
3125 2 1.60301 1.78224 17.9136
51 1 3.5128 2.17534 16.113
3616 2 1.70213 3.8376 16.2907
3113 2 5.29449 2.04735 14.6385
614 1 7.01552 0.178748 14.2696
2115 1 7.36088 1.92831 16.1017
1616 2 5.1187 3.74943 16.3982
2628 3 7.1963 -0.0700226 17.7926
1115 2 9.15529 1.89556 14.3938
3127 3 8.87278 1.7047 17.9002
52 2 10.8569 1.7101 16.1096
3617 2 9.19102 3.61175 16.0262
503 1 10.7668 -0.110014 17.8742
3615 1 12.5313 -0.252472 16.1491
3114 2 12.5418 1.64697 14.2306
2116 2 14.0713 1.91724 16.0804
1130 1 12.4997 1.68266 17.8272
2051 1 17.9085 1.81326 16.0678
801 3 17.9571 0.181534 14.4768
1615 2 16.1114 0.217533 16.2155
3618 2 16.1676 3.81 15.9252
3129 1 16.0819 1.94285 17.8161
2501 2 17.9009 -0.0029445 17.9638
53 1 -0.0236161 5.48857 16.4837
1132 2 1.67512 5.49512 17.9771
1117 3 5.3107 5.29028 14.4149
2117 3 3.2946 5.62416 16.2082
2617 1 7.26792 3.61902 14.5332
3131 2 5.41086 5.55669 17.9765
617 1 10.7273 3.54211 14.4316
54 1 7.0879 5.43933 16.2741
2118 1 10.6975 5.61075 16.0888
2633 3 10.6872 3.47812 17.8495
1617 1 12.4431 3.64949 15.8636
1118 3 12.6352 5.40724 14.3684
3622 1 12.6442 7.00067 16.062
3133 2 12.4138 5.21579 17.996
55 1 14.4624 5.35175 15.9893
1136 2 16.2968 5.29729 17.7355
1622 3 15.9458 7.3068 16.0312
618 3 0.0813655 7.11859 14.4016
1618 3 1.7264 7.37326 16.0487
1119 1 1.77527 9.07681 14.3282
620 2 7.09688 7.16961 14.5155
3620 1 5.43678 7.24857 16.1439
56 3 3.64267 9.03121 16.0754
2640 2 7.20292 7.22801 17.9811
2120 3 7.17772 9.01403 16.0728
1619 1 5.43304 10.8123 16.1976
2621 3 10.6636 7.12226 14.0341
1620 3 8.85041 7.16435 16.1571
57 3 10.6888 8.85219 16.108
3137 1 8.93905 8.8919 18.0938
2121 3 14.192 8.96423 16.134
3623 3 15.9175 10.7006 16.2129
519 1 14.1675 10.8493 17.8282
3139 3 16.0863 8.89945 17.8067
825 3 17.767 10.7915 17.7214
58 2 -0.0181478 12.6417 16.0687
3619 1 1.89292 11.041 16.152
1142 1 2.0381 12.5863 17.8644
619 2 3.53516 10.7901 14.277
2624 3 3.55379 14.2154 14.19
624 1 7.37277 14.5539 14.269
2622 3 7.10735 11.0165 14.4323
1122 3 5.5322 12.614 14.2937
2122 3 3.65659 12.4641 16.1414
59 3 7.24982 12.6366 16.1703
3121 3 8.98343 12.6469 14.4935
3621 2 9.06554 10.6719 16.1943
621 3 10.7462 10.9439 14.3531
2625 1 10.9368 14.3719 14.1828
2123 2 10.5495 12.7082 16.1352
1621 1 12.5285 11.1338 16.1391
60 1 14.2532 12.7721 15.9658
3143 1 12.443 12.5776 17.9905
3122 2 16.0437 12.5332 14.5166
1625 3 16.1294 14.4561 16.3084
1738 3 1.93113 17.9321 15.9978
1623 3 1.9058 14.2778 16.1071
2125 2 7.17292 16.1939 16.1743
61 3 3.86027 16.341 16.0483
3624 1 5.34491 14.3887 16.02
522 3 3.76267 14.1777 17.7295
1624 2 8.99347 14.3835 16.2635
3147 1 8.80171 16.1931 17.7982
1125 3 9.11168 16.1537 14.5112
3625 2 12.4224 14.4054 16.0848
62 2 10.7331 16.2401 16.1654
693 2 10.7455 17.9194 17.939
1742 1 15.9751 17.8948 16.1891
2126 1 14.1266 15.9887 16.2309
811 2 17.8141 14.4708 14.4869
2061 1 17.9382 16.1708 16.253
2759 2 14.4705 17.9788 18.0351
63 2 -0.213811 1.83393 19.7475
1628 1 1.62617 3.72823 19.7731
2631 1 -0.224093 3.52869 21.3503
2127 3 3.51084 1.84487 19.4079
3126 1 5.41284 1.65286 21.2959
1626 3 5.26603 0.0546668 19.5352
1128 1 5.48993 1.89621 17.9803
64 2 7.33813 1.68694 19.7433
1629 3 9.08059 3.38636 19.8636
2128 3 10.8781 1.66781 19.8824
3630 3 12.4448 3.46689 19.6417
3128 3 12.6886 1.57583 21.5303
1627 3 12.6735 -0.115167 19.6398
65 2 14.4103 1.97461 19.6522
3628 1 16.0671 0.26318 19.3903
510 3 14.3264 3.75156 17.6839
1630 1 16.1013 3.66444 19.5983
1131 2 16.1103 1.81665 21.482
2632 1 3.37761 3.82187 17.9298
3631 3 1.69959 7.33212 19.5764
506 1 0.153366 3.51778 18.1004
3629 2 5.42263 3.63023 19.4635
66 1 3.62018 5.61786 19.7993
1632 1 5.51135 7.16993 19.7886
2130 1 7.01671 5.41873 19.5459
1134 2 8.9813 5.55149 17.8892
508 1 7.28416 3.70102 17.9053
67 3 10.6971 5.31948 19.8808
1634 3 12.4661 6.92202 19.8226
2644 3 14.3154 6.95897 18.0383
515 1 10.9282 7.26913 17.9463
2131 3 14.3218 5.24001 19.6226
3635 1 16.0609 6.9299 19.6093
819 2 17.9278 3.52133 17.6214
3134 3 16.2499 5.27611 21.4221
2316 3 18.0471 5.37689 19.8153
2132 3 3.47581 9.09551 19.6629
68 1 -0.180627 9.09633 19.7632
513 1 3.53104 7.21857 17.87
3135 3 1.77383 9.09506 17.6535
3136 3 5.5541 8.82668 21.385
3632 2 5.41857 10.6674 19.895
2639 1 3.63118 7.14499 21.4754
1138 2 5.22192 9.00599 17.7401
3633 1 8.88484 7.06478 19.4675
69 1 7.21799 9.04051 19.6631
516 2 7.12203 10.8668 17.9411
2133 3 10.6973 8.97 19.8313
2641 2 10.9642 10.5116 17.7056
70 2 14.2981 8.94981 19.843
1140 1 12.6239 8.8758 18.1506
1635 3 16.0397 10.6745 19.7017
2645 1 14.2619 10.8178 21.5233
1141 3 16.1306 8.83364 21.4218
1631 1 1.69316 10.6342 19.4285
3636 3 1.91887 14.3402 19.6677
2646 2 0.126798 14.3567 17.8339
71 3 3.46441 12.4071 19.8728
2638 3 3.67216 10.7591 17.8406
3141 2 5.5302 12.6317 17.9918
1633 2 8.99136 10.501 19.674
2135 3 7.26899 12.5993 19.7295
2643 2 7.21048 10.7647 21.4766
3142 3 8.92133 12.4508 21.4102
1144 1 8.93732 12.4489 17.9695
3634 1 12.7407 10.6748 19.7001
72 1 10.6053 12.4856 19.7302
525 1 14.2959 14.3691 21.5815
1145 2 12.547 12.5336 21.5458
2136 2 14.4088 12.4097 19.9252
3638 3 16.173 14.1834 19.768
1146 1 15.8237 12.5032 17.9046
2137 3 3.57981 16.0841 19.8183
1147 3 1.74653 15.9164 21.476
73 1 -0.0389896 15.8703 19.6197
691 1 3.71536 17.8234 18.084
3145 3 1.91061 16.0684 17.8133
1636 1 5.30785 14.7069 19.8233
1148 2 5.33527 16.2404 17.9367
3146 2 5.36135 16.294 21.6872
1502 1 5.45942 17.8672 19.7539
74 1 7.24846 16.2238 19.6935
2648 2 7.18803 14.4656 17.8866
3637 3 9 14.3816 19.7449
523 3 10.8565 14.3661 18.0408
1149 2 8.81934 16.2872 21.3852
2138 1 10.7964 16.2058 19.6548
1637 1 12.5892 14.2228 19.8313
75 1 14.1041 16.085 19.6934
1150 2 12.4183 16.3071 18.0184
1151 2 16.0264 16.063 21.4106
698 3 14.2593 17.7346 21.3269
3755 1 16.1722 18.008 19.7716
3149 1 16.1648 16.2091 18.2162
2521 2 17.7318 14.2552 17.924
2650 2 14.2478 14.1378 18.0306
1127 3 1.72208 1.75795 21.1328
3642 2 1.87774 3.55821 22.8431
501 1 -0.264323 -0.0912574 21.2957
3150 1 1.76472 1.80279 24.8193
507 2 3.63285 3.65575 21.3071
76 2 3.51306 1.6803 23.2511
2634 3 7.24671 3.47895 21.3072
2140 3 7.07539 1.5348 23.0974
1643 3 7.11348 3.50642 24.888
504 3 7.20754 -0.0617829 21.3688
526 3 7.15176 -0.0449837 25.0921
1639 1 8.8471 -0.0495735 23.1184
1129 3 9.10663 1.5992 21.3286
3644 2 8.85167 3.39902 23.2089
78 2 10.7725 1.65846 23.2291
2142 1 14.357 1.42556 23.216
3641 3 12.6903 -0.163771 23.1575
1644 2 12.4262 3.47885 23.2689
2635 1 14.5137 3.43397 21.4074
505 3 14.3622 -0.135985 21.2702
3645 1 16.1607 3.4544 23.4165
2326 3 17.8018 1.7601 23.1841
3130 3 1.72431 5.5406 21.3182
79 3 -0.023997 5.16058 23.2051
1645 1 1.85814 7.24863 23.2106
1642 2 5.57715 3.40748 22.8991
2143 3 3.35144 5.38905 23.0876
1133 2 5.44722 5.38593 21.3487
81 1 7.02657 5.37097 23.172
509 3 10.6987 3.60369 21.7822
3132 2 8.91272 5.27631 21.448
2145 2 8.84433 5.08856 24.6852
2642 3 10.5466 7.24695 21.5667
1135 1 12.6586 5.34872 21.5822
2144 1 10.7146 5.24991 23.154
3652 2 12.4152 7.10983 23.1982
3152 2 12.4833 5.26927 25.0024
520 3 14.4381 7.01088 21.4691
3646 3 14.3196 3.36664 24.9161
3893 1 17.9562 3.80092 25.0273
82 2 14.2508 5.55718 23.1538
1651 1 16.0061 7.19271 23.2678
329 3 17.8319 5.17714 23.3577
2507 3 17.7969 3.49316 21.5015
1137 3 1.8629 8.77517 21.4129
84 1 3.67176 8.97749 23.1623
3647 2 1.75618 10.68 23.1728
1154 1 1.89685 8.99996 24.9371
512 1 -0.0126507 7.09791 21.4139
517 2 7.33628 7.07399 21.3943
3648 2 5.37244 7.15131 23.0031
1649 2 8.84272 6.94924 23.2319
2148 1 7.11995 8.74237 23.1504
1139 2 8.96839 8.82852 21.6817
3153 1 8.66162 8.83558 25.0037
518 2 10.7529 10.589 21.4741
85 1 10.6433 8.96088 23.4537
3138 3 12.5208 8.9758 21.3828
1650 1 12.3003 10.6469 23.0363
86 2 12.4735 8.94363 24.9337
2149 3 14.23 8.88298 23.2036
3653 1 16.1064 10.6432 23.1943
3140 1 1.81263 12.6051 21.7939
2151 2 3.64443 12.5897 23.2114
2647 3 3.68734 14.5825 21.4253
1653 2 1.72256 14.4875 23.3478
2656 3 0.079314 14.3882 25.276
521 2 -0.132015 14.1766 21.3629
3655 1 3.63518 14.4359 25.0181
1647 2 5.39533 10.6944 23.1013
514 2 3.44131 10.6867 21.412
1143 2 5.49068 12.4788 21.3787
3154 2 5.35226 12.5558 25.0408
88 2 7.25218 12.6291 23.2716
3649 3 8.85582 10.6533 23.3698
89 2 8.76409 12.2317 25.0614
1655 1 10.5251 14.6119 24.9314
2152 1 10.5992 12.6534 23.2793
90 2 14.3785 12.5083 23.3658
1156 3 12.4421 12.4772 24.8995
3656 1 12.4338 14.3726 23.1788
2657 2 14.0973 14.388 24.9915
3144 1 16.0664 12.3849 21.7041
2153 1 16.1215 12.5155 24.8677
1656 1 16.1989 14.4427 23.2419
2776 3 -0.069672 17.9269 24.8556
2754 1 3.25215 17.7918 21.7849
91 2 3.63262 16.1277 23.4261
3155 2 1.81659 16.3826 25.0174
1513 1 1.87612 18.1052 23.4613
3654 2 5.4595 14.4275 23.2355
524 1 7.17331 14.3221 21.4057
2155 1 7.35535 16.3686 23.3226
531 1 7.04078 14.3042 24.8981
3767 1 3.49743 18.0715 24.9906
92 1 5.61238 16.428 25.0645
2649 2 10.9026 14.3209 21.4964
1654 2 8.9017 14.3178 23.402
1157 3 8.84524 16.3263 24.9234
93 2 10.5683 16.1851 22.9593
3769 1 12.4011 17.9102 23.1721
3148 3 12.3399 16.1699 21.3763
2156 2 12.2806 16.2147 25.0473
2778 2 14.2722 17.6245 25.1308
1519 1 15.9558 17.6806 23.4034
2157 3 14.1976 16.1315 23.2107
3156 2 15.9371 15.917 25.0692
3640 3 3.56165 0.0188661 24.6153
3643 1 -0.00993509 3.7856 24.9082
94 2 0.120505 1.70174 26.7458
3657 3 2.06302 -0.0078835 26.6506
1159 1 3.4179 1.72068 26.7837
536 2 1.7905 3.58258 26.823
1158 3 1.73535 1.7112 28.6021
77 1 5.32706 1.94252 24.8133
1661 2 5.31717 3.41547 26.5334
3157 3 5.18976 1.86302 28.4103
2653 2 10.769 3.66645 25.0457
1152 1 9.02384 1.54977 25.1385
2159 2 7.2138 1.55729 26.8125
3158 3 10.7732 1.7601 26.9786
535 1 14.1427 -0.0733021 28.4583
2141 2 12.4388 1.75308 25.1497
2664 1 14.502 3.82015 28.4741
344 2 17.7884 1.6734 26.5082
97 3 14.464 1.83543 26.6297
3151 2 16.1725 1.82516 24.8864
539 2 16.0364 3.61624 26.6864
80 2 1.64007 5.33655 24.968
1664 2 1.87771 7.00038 26.5696
527 3 3.37428 3.5409 24.8986
2162 1 3.40088 5.22214 26.9495
3160 2 1.66724 5.21697 28.5929
1153 2 5.20945 5.35208 25.0809
3161 1 7.00743 5.19724 26.6802
2662 2 8.96367 3.5388 26.7305
99 1 10.5613 5.37598 26.5302
3668 2 8.76291 6.96286 26.7053
2669 2 10.4712 7.06518 28.3994
3650 1 10.6858 7.30174 24.8838
3663 2 12.4741 3.51944 26.9639
1164 3 12.6356 5.45347 28.378
1165 2 14.2226 5.34747 26.7351
538 1 10.8823 3.50992 28.7256
1349 2 17.9154 5.53621 26.556
83 2 15.9598 5.24651 25.0266
546 1 14.4101 6.97715 28.5354
3163 2 16.2144 5.65137 28.4502
853 2 17.8418 7.30876 28.5677
1670 2 15.8229 7.28736 26.6157
1648 1 3.7966 7.24127 24.9521
2665 2 1.66207 10.7689 26.6524
2147 1 5.64224 8.92442 25.005
2667 1 5.18715 6.99044 26.8433
3164 1 3.62718 8.80469 26.8112
2655 2 6.86788 6.84935 24.8952
103 1 7.28965 8.85849 26.8389
1168 1 9.00125 8.83096 28.5391
1167 2 10.6695 8.99333 26.5487
529 1 10.631 10.6657 24.9343
545 2 12.4139 7.15035 26.7337
530 1 14.1652 7.20772 25.0336
1668 2 12.4521 10.7134 26.5973
2168 2 14.1192 8.972 26.9824
2352 3 17.8274 8.98511 26.8659
1155 1 15.9669 9.19482 25.0701
2672 3 14.2219 10.7728 28.3462
1169 2 16.101 8.99779 28.6747
2654 2 3.536 10.6917 24.7946
2150 1 1.74342 12.5223 24.7989
3168 2 1.64496 12.4886 28.4973
106 3 3.38922 12.5604 26.676
3666 2 5.45627 10.4708 26.5532
548 2 5.50525 14.271 26.7487
1170 2 5.27803 12.4277 28.325
1171 3 7.18797 12.6211 26.8055
3651 2 7.14342 10.4614 24.9423
542 2 8.75135 10.6739 26.7453
2670 2 7.22151 10.7761 28.4993
1673 3 8.98324 14.1478 26.7959
3169 2 9.05137 12.4357 28.6739
2171 1 10.6917 12.4663 26.6672
544 3 10.5196 10.5095 28.4868
1172 2 12.3916 12.3668 28.2707
2671 1 16.1743 10.8349 26.7229
1652 1 13.9883 10.6346 24.8767
3170 1 14.1014 12.5267 26.6343
3675 2 16.002 14.1442 26.6163
721 3 -0.175342 17.7774 28.5455
3782 2 1.5234 17.9189 26.7911
547 3 -0.0527027 14.2538 28.3811
109 2 0.0198782 16.1503 26.8082
3672 2 1.86901 14.5816 26.7873
1173 1 1.7774 16.019 28.6482
722 3 5.47088 17.8086 26.804
1174 3 3.8723 16.177 26.6705
2673 1 3.48728 14.2846 28.4893
549 1 7.37482 14.2299 28.6387
2174 3 7.25234 15.9194 26.6967
3173 3 10.5505 16.101 26.8439
1175 1 8.76345 16.1197 28.6343
2675 3 12.2957 14.4582 26.7122
3174 3 12.6355 16.0171 28.5828
112 2 14.3257 16.0597 26.784
727 2 14.2795 18.0458 28.5166
860 1 17.9106 14.1645 28.4065
550 3 14.1334 14.2575 28.3454
3788 2 16.116 17.7418 26.5865
1176 1 16.1259 16.0901 28.5845
2676 1 -0.176482 -0.000900176 32.023
3661 1 1.65365 3.42923 30.1262
95 1 3.61975 1.77576 30.2874
2679 2 3.59038 3.54487 32.0949
551 3 3.71726 -0.0189457 32.1179
537 1 3.59909 3.57558 28.6384
2160 1 7.08453 1.64694 30.3928
1662 2 5.39906 3.60204 30.4368
1177 3 5.40232 1.68376 31.8393
2663 1 7.13715 3.3428 28.3903
1160 3 8.90427 1.74627 28.7739
96 2 10.9105 1.60662 30.2292
3159 2 12.6606 1.72 28.5167
2161 3 14.2963 1.61562 30.3973
1663 3 12.6825 3.52057 30.1203
1161 3 15.9937 1.87705 28.4509
2345 3 17.8961 1.78253 30.0798
3664 3 16.3537 3.69365 30.1972
3177 1 16.2678 1.84892 31.9359
540 1 0.198719 7.30938 28.392
1665 1 1.76628 7.13335 30.2746
2163 2 3.48119 5.16589 30.2136
557 1 3.59919 6.86299 31.96
2668 1 3.52321 6.82139 28.4588
1163 2 5.47 5.04332 28.5418
543 1 6.97147 6.89939 28.4354
100 1 7.09405 5.24872 30.402
3662 2 9.13355 3.62327 30.2349
3162 3 8.79668 5.08284 28.475
2164 1 10.8072 5.70113 30.2578
101 3 14.4448 5.35798 30.2789
3670 1 12.5191 7.06565 30.4145
3179 2 12.5606 5.34586 32.104
2685 3 14.352 7.45829 32.0273
2536 1 17.775 3.61594 28.4952
1671 1 16.1943 7.24986 30.536
1166 2 1.7549 8.72268 28.3535
102 1 3.52683 8.78185 30.2128
3180 1 1.8444 8.79466 32.237
3165 3 5.42552 8.97685 28.438
3667 2 5.29775 6.95487 30.0644
2167 3 7.27484 8.81715 30.1407
1667 2 8.63837 6.91823 30.2565
3669 2 9.16058 10.7317 30.2268
104 3 10.5546 8.64165 30.1514
3166 1 12.3054 8.89198 28.3558
1183 1 12.3587 8.9726 32.126
2353 1 17.9797 9.02768 30.2836
2169 3 14.2169 9.03934 30.1842
541 2 3.46766 10.8732 28.2943
105 1 0.0332413 12.3364 30.2246
2666 3 -0.157662 10.44 28.5566
3665 1 1.84535 10.7458 30.3291
2170 2 3.58003 12.4348 30.1892
1672 3 1.82257 14.2248 30.0418
1666 2 5.46697 10.6273 30.2178
561 2 3.72191 14.2439 31.9542
3673 1 5.58115 14.382 30.1844
3183 1 5.40674 12.1637 31.9844
107 2 7.12546 12.4458 30.3079
2172 1 10.7381 12.2732 30.2632
2687 3 7.13182 14.3319 31.989
1185 1 8.92725 12.3496 32.1438
2684 3 10.6938 10.7433 32.0546
1669 3 12.3777 10.6346 30.267
2674 2 10.7188 14.223 28.5867
3184 1 12.7045 12.4284 31.9586
2688 3 14.2665 14.367 32.2091
1186 2 16.0803 12.4202 32.2253
108 3 14.2781 12.4118 30.2256
3171 2 15.8475 12.4415 28.382
3671 2 15.9889 10.8424 30.2012
1532 2 2.03841 17.8936 30.2261
3185 1 1.88233 16.1127 32.3721
2803 1 7.17914 18.0664 32.185
1187 2 5.48382 15.8091 32.4204
110 2 3.71437 16.2199 30.4557
3172 1 5.31268 16.1006 28.5161
2175 2 7.05467 16.1621 30.3438
2786 3 10.6944 17.9646 28.5289
1536 3 9.00197 17.9538 30.4512
1674 1 8.93577 14.3807 30.4115
562 2 10.8355 14.4283 31.9565
111 2 10.71 16.011 30.3737
3674 2 12.6444 14.0771 30.2446
2176 1 14.188 16.0082 30.376
3187 1 16.0591 16.1052 31.8972
1675 3 16.1644 14.2579 30.2578
2988 2 17.8317 17.5716 32.2046
3676 3 2.03577 -0.16765 33.8567
3175 1 1.81404 1.78087 32.18
2565 1 3.47706 0.111723 35.6817
1064 3 1.70467 1.8718 35.483
2177 1 3.71378 1.69603 33.771
3679 3 5.49263 3.74397 33.7088
1676 2 5.50044 0.106254 33.966
114 1 7.31776 1.7731 33.943
3064 2 5.51759 1.85802 35.6132
569 3 3.80047 3.47132 35.502
3677 2 8.8465 -0.121245 34.0316
3176 1 8.91316 1.75428 31.9952
554 2 7.05621 3.48671 32.0563
1679 2 8.67358 3.54413 33.8416
2566 1 10.8248 0.163126 35.7628
1066 3 8.86109 1.79691 35.8345
570 3 10.7467 3.41365 35.5896
3066 1 12.4463 1.79224 35.4976
2178 2 10.5776 1.63605 33.6485
1178 1 12.286 1.87626 32.0995
115 1 14.2739 1.84857 33.6636
555 3 14.4853 3.46597 31.9759
3678 3 16.1697 0.170802 33.8276
1678 1 1.77902 3.63148 33.8705
1179 1 1.90589 5.14225 32.0409
3681 3 1.86531 6.98757 33.692
3068 1 1.66086 5.2356 35.5179
116 3 3.76085 5.3734 33.9186
3178 1 5.42876 5.41386 32.1934
2683 1 7.08767 7.32034 32.2748
1682 2 5.22641 7.32627 33.9169
2180 1 7.11584 5.48764 33.8366
2571 3 7.24471 3.62037 35.7064
1070 1 5.26648 5.59241 35.9245
2680 2 10.8266 3.58176 31.8986
1180 3 8.99165 5.06611 32.069
577 3 7.33998 6.91264 35.984
117 1 10.8068 5.24559 33.7405
3070 3 9.05082 5.1942 35.6427
3683 2 8.85225 6.84193 33.9729
3680 2 12.2872 3.65834 33.79
1072 3 12.3826 5.30625 35.774
1684 2 12.3622 6.91679 33.8459
2181 2 14.1928 5.51135 33.8027
1181 3 16.1165 5.25344 32.2132
2573 1 14.3811 3.65425 35.7615
1680 3 16.1316 3.3104 33.7785
1681 1 1.71093 10.7189 33.8457
1074 1 1.68249 8.78429 35.4633
1182 3 5.24314 8.73955 32.0155
2682 2 3.60684 10.5777 31.923
559 1 7.26104 10.5306 31.9619
2182 1 3.51409 8.9031 34.0401
3682 3 5.69111 10.6785 33.9124
3074 3 5.0437 8.96184 35.6247
558 2 10.6463 7.02562 32.3892
3181 1 8.86493 8.88608 32.1776
1683 1 8.65282 10.7136 33.6943
119 1 7.35122 8.75796 34.169
1076 3 9.09872 8.95868 35.775
2183 2 10.5987 9.09681 33.9169
3076 2 12.4461 8.57926 35.5392
2556 3 17.9083 7.18489 32.3226
3182 2 16.3254 9.0118 32.0714
120 2 14.4342 8.85273 33.8032
3685 3 16.1981 7.30687 33.8032
2582 1 14.2701 10.644 35.6837
556 2 0.164172 10.5096 31.9748
2184 3 0.108141 12.5216 33.9562
1184 1 1.78357 12.5512 31.8711
2574 3 0.07314 10.7468 35.7695
3078 1 2.04351 12.6733 35.6602
1686 3 5.2492 14.1052 33.9371
121 1 3.56086 12.3699 33.9063
575 2 3.48413 10.515 35.6771
2185 3 7.07545 12.6371 33.6741
3080 2 8.8932 12.2278 35.6993
2579 2 7.08386 10.562 35.824
3687 3 9.0024 14.1813 33.7271
2586 1 10.5524 14.2617 35.7139
2186 3 14.2257 12.4014 34.0718
122 3 10.6862 12.4584 33.9899
3684 3 12.5453 10.7571 33.9618
1082 3 12.2259 12.3575 35.8018
3688 2 15.9156 14.2272 33.9272
2371 3 17.7994 12.3994 33.9636
560 1 14.3252 10.6726 32.1199
1685 1 16.12 10.6605 33.8486
123 3 0.0556271 15.898 34.0364
3686 2 2.05891 14.3511 33.8074
2691 2 3.57875 17.8634 35.8793